[Molden Format]
made by pyscf v[2.0.1]
[Atoms] (AU)
C   1   6     0.69100024066471     0.64692934207205    -3.48223131169301
H   2   1     2.68052439830868     1.13355088658700    -3.25784032593313
C   3   6    -0.36286361513219     0.85440132524594    -5.97030179418974
H   4   1    -2.35448549047279     0.36322488579172    -6.17995817793143
C   5   6     0.93697958957450     1.61209284601821    -8.05828437677121
H   6   1     1.79023114573091     3.48620134168797    -8.08322278856913
C   7   6     1.25568723688000     0.06665493916240   -10.26426053014808
H   8   1     0.39118722523993    -1.80671768770582   -10.21099750517578
H   9   1     1.55630230933075    -1.92953025305990    12.99630010416247
C   10   6     0.75233899775814    -2.21270439606481    11.10705728102219
H   11   1    -0.43433408177274    -3.90944857546550    11.22216085340412
C   12   6     2.86362581178706    -2.63237380607947     9.17926416456045
H   13   1     4.39038949912609    -1.24955421540245     9.49899813497433
H   14   1     3.74629220191363    -4.48798724300892     9.47414880959024
C   15   6     2.02478325613682    -2.42177285709634     6.44560829588644
C   16   6     3.88048732735477    -3.58795445234514     4.61402886975252
C   17   6    -0.18412382258602    -1.30464291234259     5.76021113872346
C   18   6    -2.10044360464350    -0.26837831858460     7.71610340967100
C   19   6    -3.08956938670431     2.35282328359417     6.88693925039594
C   20   6    -4.37372924086464    -2.09766595989678     7.93610724222001
C   21   6    -0.83850430601230     0.06372213486173    10.33002307638377
H   22   1     0.38411922151109     1.74281358582432    10.27380136542181
H   23   1    -2.30980003007874     0.45460143924521    11.73986301809809
H   24   1     4.58527064644668    -5.38706904487420     5.36778158031719
H   25   1     5.54944938085014    -2.37631462192748     4.35398898413318
H   26   1     3.06633019150423    -3.94118377050688     2.75255466040884
H   27   1    -4.17727778763735     2.26573369139522     5.12914900961283
H   28   1    -1.52662344944051     3.68001877445626     6.59540397144508
H   29   1    -4.32916174397830     3.13643051467482     8.35225460090378
H   30   1    -5.32329548508442    -2.36691813602939     6.11583672749896
H   31   1    -5.77989366602257    -1.33896741843465     9.25748940450990
H   32   1    -3.79310905208926    -3.96389819310853     8.61386170102686
C   33   6    -1.01100794811226    -1.06331657314144     3.11929490449947
C   34   6     0.37686231036534    -0.33275864505552     1.09165013605873
H   35   1    -3.01671213906703    -1.40297922279997     2.77827895090944
C   36   6    -0.64382707979370    -0.11591880174385    -1.42063131251064
H   37   1     2.35569259782137     0.17174499283897     1.33641070251401
H   38   1    -2.63317482980319    -0.60229203511219    -1.66119700387645
C   39   6     2.53016326718275     0.74184279311179   -12.38477126217512
C   40   6     2.74761784180424    -0.97075180884473   -14.53576076061004
H   41   1     3.43489191747297     2.57981441042514   -12.56110828288274
O   42   8     3.86136937293188    -0.48701494751058   -16.49697984673750
H   43   1     1.79359090776017    -2.83108880557309   -14.27278208139205
[GTO]
1 0
 s    6 1.00
             3047.5249  0.0018347001629433
             457.36951    0.01403730124668
             103.94869   0.068842606114048
             29.210155    0.23218442062076
              9.286663    0.46794134155879
              3.163927    0.36231203217765
 s    3 1.00
             7.8682724   -0.11933240861517
             1.8812885   -0.16085421161283
             0.5442493     1.1434564825515
 s    1 1.00
             0.1687144                   1
 p    3 1.00
             7.8682724   0.068999095584993
             1.8812885    0.31642397975315
             0.5442493    0.74430825237435
 p    1 1.00
             0.1687144                   1
 d    1 1.00
                   0.8                   1

2 0
 s    3 1.00
             18.731137    0.03349459952309
             2.8253937    0.23472694665786
             0.6401217    0.81375731841339
 s    1 1.00
             0.1612778                   1

3 0
 s    6 1.00
             3047.5249  0.0018347001629433
             457.36951    0.01403730124668
             103.94869   0.068842606114048
             29.210155    0.23218442062076
              9.286663    0.46794134155879
              3.163927    0.36231203217765
 s    3 1.00
             7.8682724   -0.11933240861517
             1.8812885   -0.16085421161283
             0.5442493     1.1434564825515
 s    1 1.00
             0.1687144                   1
 p    3 1.00
             7.8682724   0.068999095584993
             1.8812885    0.31642397975315
             0.5442493    0.74430825237435
 p    1 1.00
             0.1687144                   1
 d    1 1.00
                   0.8                   1

4 0
 s    3 1.00
             18.731137    0.03349459952309
             2.8253937    0.23472694665786
             0.6401217    0.81375731841339
 s    1 1.00
             0.1612778                   1

5 0
 s    6 1.00
             3047.5249  0.0018347001629433
             457.36951    0.01403730124668
             103.94869   0.068842606114048
             29.210155    0.23218442062076
              9.286663    0.46794134155879
              3.163927    0.36231203217765
 s    3 1.00
             7.8682724   -0.11933240861517
             1.8812885   -0.16085421161283
             0.5442493     1.1434564825515
 s    1 1.00
             0.1687144                   1
 p    3 1.00
             7.8682724   0.068999095584993
             1.8812885    0.31642397975315
             0.5442493    0.74430825237435
 p    1 1.00
             0.1687144                   1
 d    1 1.00
                   0.8                   1

6 0
 s    3 1.00
             18.731137    0.03349459952309
             2.8253937    0.23472694665786
             0.6401217    0.81375731841339
 s    1 1.00
             0.1612778                   1

7 0
 s    6 1.00
             3047.5249  0.0018347001629433
             457.36951    0.01403730124668
             103.94869   0.068842606114048
             29.210155    0.23218442062076
              9.286663    0.46794134155879
              3.163927    0.36231203217765
 s    3 1.00
             7.8682724   -0.11933240861517
             1.8812885   -0.16085421161283
             0.5442493     1.1434564825515
 s    1 1.00
             0.1687144                   1
 p    3 1.00
             7.8682724   0.068999095584993
             1.8812885    0.31642397975315
             0.5442493    0.74430825237435
 p    1 1.00
             0.1687144                   1
 d    1 1.00
                   0.8                   1

8 0
 s    3 1.00
             18.731137    0.03349459952309
             2.8253937    0.23472694665786
             0.6401217    0.81375731841339
 s    1 1.00
             0.1612778                   1

9 0
 s    3 1.00
             18.731137    0.03349459952309
             2.8253937    0.23472694665786
             0.6401217    0.81375731841339
 s    1 1.00
             0.1612778                   1

10 0
 s    6 1.00
             3047.5249  0.0018347001629433
             457.36951    0.01403730124668
             103.94869   0.068842606114048
             29.210155    0.23218442062076
              9.286663    0.46794134155879
              3.163927    0.36231203217765
 s    3 1.00
             7.8682724   -0.11933240861517
             1.8812885   -0.16085421161283
             0.5442493     1.1434564825515
 s    1 1.00
             0.1687144                   1
 p    3 1.00
             7.8682724   0.068999095584993
             1.8812885    0.31642397975315
             0.5442493    0.74430825237435
 p    1 1.00
             0.1687144                   1
 d    1 1.00
                   0.8                   1

11 0
 s    3 1.00
             18.731137    0.03349459952309
             2.8253937    0.23472694665786
             0.6401217    0.81375731841339
 s    1 1.00
             0.1612778                   1

12 0
 s    6 1.00
             3047.5249  0.0018347001629433
             457.36951    0.01403730124668
             103.94869   0.068842606114048
             29.210155    0.23218442062076
              9.286663    0.46794134155879
              3.163927    0.36231203217765
 s    3 1.00
             7.8682724   -0.11933240861517
             1.8812885   -0.16085421161283
             0.5442493     1.1434564825515
 s    1 1.00
             0.1687144                   1
 p    3 1.00
             7.8682724   0.068999095584993
             1.8812885    0.31642397975315
             0.5442493    0.74430825237435
 p    1 1.00
             0.1687144                   1
 d    1 1.00
                   0.8                   1

13 0
 s    3 1.00
             18.731137    0.03349459952309
             2.8253937    0.23472694665786
             0.6401217    0.81375731841339
 s    1 1.00
             0.1612778                   1

14 0
 s    3 1.00
             18.731137    0.03349459952309
             2.8253937    0.23472694665786
             0.6401217    0.81375731841339
 s    1 1.00
             0.1612778                   1

15 0
 s    6 1.00
             3047.5249  0.0018347001629433
             457.36951    0.01403730124668
             103.94869   0.068842606114048
             29.210155    0.23218442062076
              9.286663    0.46794134155879
              3.163927    0.36231203217765
 s    3 1.00
             7.8682724   -0.11933240861517
             1.8812885   -0.16085421161283
             0.5442493     1.1434564825515
 s    1 1.00
             0.1687144                   1
 p    3 1.00
             7.8682724   0.068999095584993
             1.8812885    0.31642397975315
             0.5442493    0.74430825237435
 p    1 1.00
             0.1687144                   1
 d    1 1.00
                   0.8                   1

16 0
 s    6 1.00
             3047.5249  0.0018347001629433
             457.36951    0.01403730124668
             103.94869   0.068842606114048
             29.210155    0.23218442062076
              9.286663    0.46794134155879
              3.163927    0.36231203217765
 s    3 1.00
             7.8682724   -0.11933240861517
             1.8812885   -0.16085421161283
             0.5442493     1.1434564825515
 s    1 1.00
             0.1687144                   1
 p    3 1.00
             7.8682724   0.068999095584993
             1.8812885    0.31642397975315
             0.5442493    0.74430825237435
 p    1 1.00
             0.1687144                   1
 d    1 1.00
                   0.8                   1

17 0
 s    6 1.00
             3047.5249  0.0018347001629433
             457.36951    0.01403730124668
             103.94869   0.068842606114048
             29.210155    0.23218442062076
              9.286663    0.46794134155879
              3.163927    0.36231203217765
 s    3 1.00
             7.8682724   -0.11933240861517
             1.8812885   -0.16085421161283
             0.5442493     1.1434564825515
 s    1 1.00
             0.1687144                   1
 p    3 1.00
             7.8682724   0.068999095584993
             1.8812885    0.31642397975315
             0.5442493    0.74430825237435
 p    1 1.00
             0.1687144                   1
 d    1 1.00
                   0.8                   1

18 0
 s    6 1.00
             3047.5249  0.0018347001629433
             457.36951    0.01403730124668
             103.94869   0.068842606114048
             29.210155    0.23218442062076
              9.286663    0.46794134155879
              3.163927    0.36231203217765
 s    3 1.00
             7.8682724   -0.11933240861517
             1.8812885   -0.16085421161283
             0.5442493     1.1434564825515
 s    1 1.00
             0.1687144                   1
 p    3 1.00
             7.8682724   0.068999095584993
             1.8812885    0.31642397975315
             0.5442493    0.74430825237435
 p    1 1.00
             0.1687144                   1
 d    1 1.00
                   0.8                   1

19 0
 s    6 1.00
             3047.5249  0.0018347001629433
             457.36951    0.01403730124668
             103.94869   0.068842606114048
             29.210155    0.23218442062076
              9.286663    0.46794134155879
              3.163927    0.36231203217765
 s    3 1.00
             7.8682724   -0.11933240861517
             1.8812885   -0.16085421161283
             0.5442493     1.1434564825515
 s    1 1.00
             0.1687144                   1
 p    3 1.00
             7.8682724   0.068999095584993
             1.8812885    0.31642397975315
             0.5442493    0.74430825237435
 p    1 1.00
             0.1687144                   1
 d    1 1.00
                   0.8                   1

20 0
 s    6 1.00
             3047.5249  0.0018347001629433
             457.36951    0.01403730124668
             103.94869   0.068842606114048
             29.210155    0.23218442062076
              9.286663    0.46794134155879
              3.163927    0.36231203217765
 s    3 1.00
             7.8682724   -0.11933240861517
             1.8812885   -0.16085421161283
             0.5442493     1.1434564825515
 s    1 1.00
             0.1687144                   1
 p    3 1.00
             7.8682724   0.068999095584993
             1.8812885    0.31642397975315
             0.5442493    0.74430825237435
 p    1 1.00
             0.1687144                   1
 d    1 1.00
                   0.8                   1

21 0
 s    6 1.00
             3047.5249  0.0018347001629433
             457.36951    0.01403730124668
             103.94869   0.068842606114048
             29.210155    0.23218442062076
              9.286663    0.46794134155879
              3.163927    0.36231203217765
 s    3 1.00
             7.8682724   -0.11933240861517
             1.8812885   -0.16085421161283
             0.5442493     1.1434564825515
 s    1 1.00
             0.1687144                   1
 p    3 1.00
             7.8682724   0.068999095584993
             1.8812885    0.31642397975315
             0.5442493    0.74430825237435
 p    1 1.00
             0.1687144                   1
 d    1 1.00
                   0.8                   1

22 0
 s    3 1.00
             18.731137    0.03349459952309
             2.8253937    0.23472694665786
             0.6401217    0.81375731841339
 s    1 1.00
             0.1612778                   1

23 0
 s    3 1.00
             18.731137    0.03349459952309
             2.8253937    0.23472694665786
             0.6401217    0.81375731841339
 s    1 1.00
             0.1612778                   1

24 0
 s    3 1.00
             18.731137    0.03349459952309
             2.8253937    0.23472694665786
             0.6401217    0.81375731841339
 s    1 1.00
             0.1612778                   1

25 0
 s    3 1.00
             18.731137    0.03349459952309
             2.8253937    0.23472694665786
             0.6401217    0.81375731841339
 s    1 1.00
             0.1612778                   1

26 0
 s    3 1.00
             18.731137    0.03349459952309
             2.8253937    0.23472694665786
             0.6401217    0.81375731841339
 s    1 1.00
             0.1612778                   1

27 0
 s    3 1.00
             18.731137    0.03349459952309
             2.8253937    0.23472694665786
             0.6401217    0.81375731841339
 s    1 1.00
             0.1612778                   1

28 0
 s    3 1.00
             18.731137    0.03349459952309
             2.8253937    0.23472694665786
             0.6401217    0.81375731841339
 s    1 1.00
             0.1612778                   1

29 0
 s    3 1.00
             18.731137    0.03349459952309
             2.8253937    0.23472694665786
             0.6401217    0.81375731841339
 s    1 1.00
             0.1612778                   1

30 0
 s    3 1.00
             18.731137    0.03349459952309
             2.8253937    0.23472694665786
             0.6401217    0.81375731841339
 s    1 1.00
             0.1612778                   1

31 0
 s    3 1.00
             18.731137    0.03349459952309
             2.8253937    0.23472694665786
             0.6401217    0.81375731841339
 s    1 1.00
             0.1612778                   1

32 0
 s    3 1.00
             18.731137    0.03349459952309
             2.8253937    0.23472694665786
             0.6401217    0.81375731841339
 s    1 1.00
             0.1612778                   1

33 0
 s    6 1.00
             3047.5249  0.0018347001629433
             457.36951    0.01403730124668
             103.94869   0.068842606114048
             29.210155    0.23218442062076
              9.286663    0.46794134155879
              3.163927    0.36231203217765
 s    3 1.00
             7.8682724   -0.11933240861517
             1.8812885   -0.16085421161283
             0.5442493     1.1434564825515
 s    1 1.00
             0.1687144                   1
 p    3 1.00
             7.8682724   0.068999095584993
             1.8812885    0.31642397975315
             0.5442493    0.74430825237435
 p    1 1.00
             0.1687144                   1
 d    1 1.00
                   0.8                   1

34 0
 s    6 1.00
             3047.5249  0.0018347001629433
             457.36951    0.01403730124668
             103.94869   0.068842606114048
             29.210155    0.23218442062076
              9.286663    0.46794134155879
              3.163927    0.36231203217765
 s    3 1.00
             7.8682724   -0.11933240861517
             1.8812885   -0.16085421161283
             0.5442493     1.1434564825515
 s    1 1.00
             0.1687144                   1
 p    3 1.00
             7.8682724   0.068999095584993
             1.8812885    0.31642397975315
             0.5442493    0.74430825237435
 p    1 1.00
             0.1687144                   1
 d    1 1.00
                   0.8                   1

35 0
 s    3 1.00
             18.731137    0.03349459952309
             2.8253937    0.23472694665786
             0.6401217    0.81375731841339
 s    1 1.00
             0.1612778                   1

36 0
 s    6 1.00
             3047.5249  0.0018347001629433
             457.36951    0.01403730124668
             103.94869   0.068842606114048
             29.210155    0.23218442062076
              9.286663    0.46794134155879
              3.163927    0.36231203217765
 s    3 1.00
             7.8682724   -0.11933240861517
             1.8812885   -0.16085421161283
             0.5442493     1.1434564825515
 s    1 1.00
             0.1687144                   1
 p    3 1.00
             7.8682724   0.068999095584993
             1.8812885    0.31642397975315
             0.5442493    0.74430825237435
 p    1 1.00
             0.1687144                   1
 d    1 1.00
                   0.8                   1

37 0
 s    3 1.00
             18.731137    0.03349459952309
             2.8253937    0.23472694665786
             0.6401217    0.81375731841339
 s    1 1.00
             0.1612778                   1

38 0
 s    3 1.00
             18.731137    0.03349459952309
             2.8253937    0.23472694665786
             0.6401217    0.81375731841339
 s    1 1.00
             0.1612778                   1

39 0
 s    6 1.00
             3047.5249  0.0018347001629433
             457.36951    0.01403730124668
             103.94869   0.068842606114048
             29.210155    0.23218442062076
              9.286663    0.46794134155879
              3.163927    0.36231203217765
 s    3 1.00
             7.8682724   -0.11933240861517
             1.8812885   -0.16085421161283
             0.5442493     1.1434564825515
 s    1 1.00
             0.1687144                   1
 p    3 1.00
             7.8682724   0.068999095584993
             1.8812885    0.31642397975315
             0.5442493    0.74430825237435
 p    1 1.00
             0.1687144                   1
 d    1 1.00
                   0.8                   1

40 0
 s    6 1.00
             3047.5249  0.0018347001629433
             457.36951    0.01403730124668
             103.94869   0.068842606114048
             29.210155    0.23218442062076
              9.286663    0.46794134155879
              3.163927    0.36231203217765
 s    3 1.00
             7.8682724   -0.11933240861517
             1.8812885   -0.16085421161283
             0.5442493     1.1434564825515
 s    1 1.00
             0.1687144                   1
 p    3 1.00
             7.8682724   0.068999095584993
             1.8812885    0.31642397975315
             0.5442493    0.74430825237435
 p    1 1.00
             0.1687144                   1
 d    1 1.00
                   0.8                   1

41 0
 s    3 1.00
             18.731137    0.03349459952309
             2.8253937    0.23472694665786
             0.6401217    0.81375731841339
 s    1 1.00
             0.1612778                   1

42 0
 s    6 1.00
             5484.6717   0.001831099805527
             825.23495   0.013950098518422
             188.04696    0.06844509273075
               52.9645    0.23271427528445
              16.89757    0.47019295006289
             5.7996353    0.35852086192309
 s    3 1.00
             15.539616   -0.11077750382508
             3.5999336   -0.14802630511126
             1.0137618     1.1307670390447
 s    1 1.00
             0.2700058                   1
 p    3 1.00
             15.539616   0.070874299543311
             3.5999336    0.33975279781076
             1.0137618    0.72715859531445
 p    1 1.00
             0.2700058                   1
 d    1 1.00
                   0.8                   1

43 0
 s    3 1.00
             18.731137    0.03349459952309
             2.8253937    0.23472694665786
             0.6401217    0.81375731841339
 s    1 1.00
             0.1612778                   1

[5d]
[7f]
[9g]

[MO]
 Sym= A
 Ene=               0
 Spin= Alpha
 Occup=    1.00000
   1     0.020018842843071
   2    -0.00080934104484778
   3    0.0063833594336977
   4    0.0003779192026222
   5    -6.0045791355384e-05
   6    0.0011758868380908
   7    0.00077472795301306
   8    0.00081062008714972
   9    -0.0042884437424827
  10    -0.00093858332842801
  11    -0.00088801952772566
  12    0.00014229686986542
  13    -0.00022425662549329
  14    4.4008858325494e-05
  15    -0.00045447207493878
  16    -0.00086958951334334
  17      0.99466633679696
  18     0.036441229757417
  19    -0.027249150038703
  20    0.00077162050738021
  21    0.00014445514109628
  22    -0.00039893464869222
  23    -0.0030269828550946
  24    -0.00089612635165144
  25    -0.00031829846037791
  26    0.00080187685870129
  27    -0.00025672690487845
  28    -0.00037665839031569
  29    0.00028090486235514
  30    0.00014045856498004
  31    -0.0010528531328622
  32    0.0039028005138862
  33     0.022202279522877
  34    -0.00030079662317223
  35    0.0025238524388365
  36    0.00082612641761047
  37    0.00033287114276455
  38    -0.0012033733120442
  39    -0.0007778706040008
  40      0.00235444827004
  41    0.0046807028910192
  42    -0.00066518258573817
  43    0.0010494746607849
  44    0.00045247721301105
  45    -0.00033868126318445
  46    -0.00043889856974956
  47    -0.00050681470189218
  48    -0.00056991195126008
  49    -0.00044230829890795
  50    -0.00049581542577517
  51    0.00044436183473796
  52    6.5206237944449e-05
  53    6.2263486452577e-05
  54    -0.00040788449910993
  55    -0.0021685004205892
  56    0.00046535916857004
  57    0.0061145867170656
  58    -5.6628262570491e-05
  59    5.3475677492331e-05
  60    0.00019481446909032
  61    -0.00017307963100277
  62    5.9385573148594e-05
  63    -0.00037278323215893
  64    7.3176583423851e-05
  65    -2.2989286365221e-06
  66    -4.6893148587884e-06
  67    -3.2931547952784e-08
  68    -6.4563998012448e-07
  69    7.7791193886562e-06
  70    1.6446694639376e-06
  71    -3.4620536125866e-06
  72    -4.1230203542543e-07
  73    9.5308307903243e-06
  74    2.0787972740078e-05
  75    9.3591278421863e-06
  76    -2.8357541861925e-07
  77    -4.0302272869009e-07
  78    2.7171854705378e-07
  79    4.7119026150101e-07
  80    -1.1396915753372e-07
  81    1.842595979104e-06
  82    1.0198724486746e-05
  83    6.9110410356248e-08
  84    4.1989091439806e-07
  85    -5.1646995204471e-05
  86    2.8848688121682e-06
  87    2.6272524441023e-06
  88    4.2567660152714e-06
  89    1.9881915225775e-05
  90    -5.0567089119037e-05
  91    5.5110842514153e-06
  92    1.4362122787509e-06
  93    -2.2766370740685e-06
  94    2.8107901514463e-06
  95    -5.3338897581931e-07
  96    -9.0984726992609e-07
  97    5.2422620775423e-06
  98    9.5546055704344e-06
  99    -2.696180357351e-06
 100    -1.5404940165484e-05
 101    -9.1034971602483e-07
 102    -1.0648314538958e-05
 103    0.00018506425466098
 104    -1.05940578363e-06
 105    -6.3422957797439e-06
 106    -1.9027549187118e-06
 107    -0.00015702811664936
 108    0.00014364514388804
 109    0.00011378222220357
 110    -5.281443400771e-06
 111    -6.4212248460399e-07
 112    2.7635674166175e-07
 113    2.1223113315919e-06
 114    -4.0911955768188e-06
 115    -3.0516490408806e-06
 116    -2.9543344681979e-05
 117    0.00020704242487107
 118    -2.1014970237146e-06
 119    2.6882185399115e-06
 120    4.5823042252013e-06
 121    -4.0795839673173e-05
 122    1.0036763781954e-05
 123    1.6309660029422e-05
 124    1.2506192811305e-06
 125    -1.8941728633253e-06
 126    -1.9270284804989e-06
 127    2.0931927094474e-07
 128    -1.6251142080837e-06
 129    -5.1276053220213e-06
 130    -4.7727326549593e-05
 131    0.00010236344661619
 132    2.9842377494394e-06
 133    -5.5970432918995e-06
 134    2.0428316053202e-05
 135    -0.00026488222183283
 136    4.8733523122612e-05
 137    -0.00033643459311448
 138    8.4575568563837e-06
 139    1.0532787954362e-05
 140    3.6461414739548e-06
 141    3.7864752783989e-06
 142    4.8916967584787e-06
 143    -1.3909850534935e-06
 144    -1.8833162481793e-05
 145    2.3732747521855e-05
 146    1.8400104396441e-06
 147    6.2032121848956e-06
 148    7.5203919795405e-06
 149    1.5515063718211e-05
 150    -2.7861773629605e-05
 151    -2.7154507739755e-05
 152    -5.985569703977e-06
 153    -2.8398607115101e-06
 154    -1.466645806848e-06
 155    3.8547100170128e-06
 156    -2.6214090973143e-06
 157    8.1942579117297e-07
 158    6.4246188886296e-06
 159    -1.2998834709179e-06
 160    4.8308518049935e-06
 161    -9.2495492774427e-07
 162    9.6635805061436e-08
 163    -3.3754912716646e-05
 164    8.8201096117978e-06
 165    4.7561190938306e-06
 166    2.7896917903105e-06
 167    9.9962574548513e-08
 168    -2.2249474541589e-07
 169    1.335006671236e-07
 170    1.1659270743866e-06
 171    -4.7107610403279e-07
 172    -1.0334422531241e-05
 173    1.9666009149545e-05
 174    -2.4851385820385e-06
 175    1.6771911913721e-07
 176    8.083152034806e-06
 177    -1.4230506331439e-05
 178    -4.042166129112e-06
 179    -2.8949949581089e-05
 180    1.7085322156049e-06
 181    3.1860061329141e-06
 182    4.6663631023026e-07
 183    -1.6465472234656e-06
 184    6.092469773735e-07
 185    -2.525636686014e-06
 186    -2.2226395518491e-05
 187    5.4277511505169e-05
 188    -1.5306406824374e-06
 189    8.3550715628905e-07
 190    4.6915516386783e-06
 191    1.5224697598458e-06
 192    -4.5896153433107e-06
 193    -5.5144802299334e-05
 194    2.7950868311985e-06
 195    8.7974016761792e-07
 196    1.2484880771432e-06
 197    -1.679825035618e-07
 198    1.0232642710608e-07
 199    -5.9138553084127e-06
 200    -1.6215817596649e-06
 201    -1.4352900838402e-06
 202    1.7894405107334e-05
 203    -9.754086304031e-06
 204    -4.7675094432629e-06
 205    -1.7744076207979e-06
 206    -2.2401868861456e-05
 207    9.907087124989e-06
 208    -6.8636976156188e-05
 209    7.2137750158327e-06
 210    -2.4448461625338e-05
 211    3.4803837743837e-06
 212    1.2149051639556e-05
 213    -7.5752261105934e-07
 214    -1.4839553724945e-05
 215    4.0608259669248e-07
 216    -4.3061754391655e-05
 217    5.5850635110072e-07
 218    5.2858637451916e-06
 219    9.2377957702881e-09
 220    1.3764758974011e-06
 221    -4.5752279940527e-06
 222    -5.3216433734223e-05
 223    0.00053996931218813
 224    -1.4731983190587e-05
 225    7.1600860198035e-07
 226    1.1222472324162e-05
 227    0.00051781501410213
 228    0.00021873778732872
 229    -0.00061984913829929
 230    -3.2150523513092e-06
 231    -3.0162952488756e-05
 232    -1.4427391588819e-05
 233    1.5460815821919e-05
 234    1.7088881930753e-05
 235    -1.73982560749e-05
 236    -7.8741852690027e-05
 237    0.00030028421719448
 238    -2.3933633891848e-05
 239    -3.340174220461e-06
 240    5.9308834418959e-06
 241    0.00010519808540105
 242    0.00023660755982154
 243    -0.0013551070581732
 244    2.1553486271481e-05
 245    5.3785001702624e-05
 246    1.0833468921885e-05
 247    1.397175294232e-05
 248    2.8099994482031e-06
 249    -2.481338959784e-05
 250    0.00029137788738868
 251    1.1855088961704e-05
 252    -0.00034291301821049
 253    0.0012298413048008
 254    7.200126434373e-05
 255    -4.7758783057752e-05
 256    0.00020485396973543
 257    -0.00045874646106824
 258    0.00034913385249159
 259    -0.0016209099246409
 260    -6.9774493424299e-05
 261    -3.3184399550699e-06
 262    -1.5851377171145e-05
 263    0.0001165969362397
 264    8.3468793006076e-05
 265    -8.6415452100248e-05
 266    0.00016554081271856
 267    -0.00013915114829474
 268    -0.00060147366926936
 269    -3.7215342924143e-05
 270    -0.00037647618550626
 271    0.0049325691109188
 272    1.7093113943848e-05
 273    4.0705621583735e-05
 274    0.00011631248853831
 275    -0.0018868840585151
 276    -0.0017658848490435
 277    0.0017583788765626
 278    5.3763316725248e-05
 279    -0.00013470076481561
 280    -3.7198320076772e-05