[Molden Format]
made by pyscf v[2.0.1]
[Atoms] (AU)
C   1   6     0.69100024066471     0.64692934207205    -3.48223131169301
H   2   1     2.68052439830868     1.13355088658700    -3.25784032593313
C   3   6    -0.36286361513219     0.85440132524594    -5.97030179418974
H   4   1    -2.35448549047279     0.36322488579172    -6.17995817793143
C   5   6     0.93697958957450     1.61209284601821    -8.05828437677121
H   6   1     0.85962833397368     3.59050820045091    -8.62470494839578
C   7   6     2.42635389771936    -0.06497183323565    -9.58324401854610
H   8   1     2.48676726707897    -2.04132781761705    -8.99156043119802
H   9   1     1.55630230933075    -1.92953025305990    12.99630010416247
C   10   6     0.75233899775814    -2.21270439606481    11.10705728102219
H   11   1    -0.43433408177274    -3.90944857546550    11.22216085340412
C   12   6     2.86362581178706    -2.63237380607947     9.17926416456045
H   13   1     4.39038949912609    -1.24955421540245     9.49899813497433
H   14   1     3.74629220191363    -4.48798724300892     9.47414880959024
C   15   6     2.02478325613682    -2.42177285709634     6.44560829588644
C   16   6     3.88048732735477    -3.58795445234514     4.61402886975252
C   17   6    -0.18412382258602    -1.30464291234259     5.76021113872346
C   18   6    -2.10044360464350    -0.26837831858460     7.71610340967100
C   19   6    -3.08956938670431     2.35282328359417     6.88693925039594
C   20   6    -4.37372924086464    -2.09766595989678     7.93610724222001
C   21   6    -0.83850430601230     0.06372213486173    10.33002307638377
H   22   1     0.38411922151109     1.74281358582432    10.27380136542181
H   23   1    -2.30980003007874     0.45460143924521    11.73986301809809
H   24   1     4.58527064644668    -5.38706904487420     5.36778158031719
H   25   1     5.54944938085014    -2.37631462192748     4.35398898413318
H   26   1     3.06633019150423    -3.94118377050688     2.75255466040884
H   27   1    -4.17727778763735     2.26573369139522     5.12914900961283
H   28   1    -1.52662344944051     3.68001877445626     6.59540397144508
H   29   1    -4.32916174397830     3.13643051467482     8.35225460090378
H   30   1    -5.32329548508442    -2.36691813602939     6.11583672749896
H   31   1    -5.77989366602257    -1.33896741843465     9.25748940450990
H   32   1    -3.79310905208926    -3.96389819310853     8.61386170102686
C   33   6    -1.01100794811226    -1.06331657314144     3.11929490449947
C   34   6     0.37686231036534    -0.33275864505552     1.09165013605873
H   35   1    -3.01671213906703    -1.40297922279997     2.77827895090944
C   36   6    -0.64382707979370    -0.11591880174385    -1.42063131251064
H   37   1     2.35569259782137     0.17174499283897     1.33641070251401
H   38   1    -2.63317482980319    -0.60229203511219    -1.66119700387645
C   39   6     3.74832505967432     0.60333842975764   -11.67668310140841
C   40   6     5.21001738076888    -1.24955999097241   -13.10400422335708
H   41   1     3.76814643119893     2.53960520723023   -12.36823673003836
O   42   8     6.43815552067501    -0.78092818090474   -14.99949494178040
H   43   1     5.13629360998863    -3.20740752771493   -12.32839043702936
[GTO]
1 0
 s    6 1.00
             3047.5249  0.0018347001629433
             457.36951    0.01403730124668
             103.94869   0.068842606114048
             29.210155    0.23218442062076
              9.286663    0.46794134155879
              3.163927    0.36231203217765
 s    3 1.00
             7.8682724   -0.11933240861517
             1.8812885   -0.16085421161283
             0.5442493     1.1434564825515
 s    1 1.00
             0.1687144                   1
 p    3 1.00
             7.8682724   0.068999095584993
             1.8812885    0.31642397975315
             0.5442493    0.74430825237435
 p    1 1.00
             0.1687144                   1
 d    1 1.00
                   0.8                   1

2 0
 s    3 1.00
             18.731137    0.03349459952309
             2.8253937    0.23472694665786
             0.6401217    0.81375731841339
 s    1 1.00
             0.1612778                   1

3 0
 s    6 1.00
             3047.5249  0.0018347001629433
             457.36951    0.01403730124668
             103.94869   0.068842606114048
             29.210155    0.23218442062076
              9.286663    0.46794134155879
              3.163927    0.36231203217765
 s    3 1.00
             7.8682724   -0.11933240861517
             1.8812885   -0.16085421161283
             0.5442493     1.1434564825515
 s    1 1.00
             0.1687144                   1
 p    3 1.00
             7.8682724   0.068999095584993
             1.8812885    0.31642397975315
             0.5442493    0.74430825237435
 p    1 1.00
             0.1687144                   1
 d    1 1.00
                   0.8                   1

4 0
 s    3 1.00
             18.731137    0.03349459952309
             2.8253937    0.23472694665786
             0.6401217    0.81375731841339
 s    1 1.00
             0.1612778                   1

5 0
 s    6 1.00
             3047.5249  0.0018347001629433
             457.36951    0.01403730124668
             103.94869   0.068842606114048
             29.210155    0.23218442062076
              9.286663    0.46794134155879
              3.163927    0.36231203217765
 s    3 1.00
             7.8682724   -0.11933240861517
             1.8812885   -0.16085421161283
             0.5442493     1.1434564825515
 s    1 1.00
             0.1687144                   1
 p    3 1.00
             7.8682724   0.068999095584993
             1.8812885    0.31642397975315
             0.5442493    0.74430825237435
 p    1 1.00
             0.1687144                   1
 d    1 1.00
                   0.8                   1

6 0
 s    3 1.00
             18.731137    0.03349459952309
             2.8253937    0.23472694665786
             0.6401217    0.81375731841339
 s    1 1.00
             0.1612778                   1

7 0
 s    6 1.00
             3047.5249  0.0018347001629433
             457.36951    0.01403730124668
             103.94869   0.068842606114048
             29.210155    0.23218442062076
              9.286663    0.46794134155879
              3.163927    0.36231203217765
 s    3 1.00
             7.8682724   -0.11933240861517
             1.8812885   -0.16085421161283
             0.5442493     1.1434564825515
 s    1 1.00
             0.1687144                   1
 p    3 1.00
             7.8682724   0.068999095584993
             1.8812885    0.31642397975315
             0.5442493    0.74430825237435
 p    1 1.00
             0.1687144                   1
 d    1 1.00
                   0.8                   1

8 0
 s    3 1.00
             18.731137    0.03349459952309
             2.8253937    0.23472694665786
             0.6401217    0.81375731841339
 s    1 1.00
             0.1612778                   1

9 0
 s    3 1.00
             18.731137    0.03349459952309
             2.8253937    0.23472694665786
             0.6401217    0.81375731841339
 s    1 1.00
             0.1612778                   1

10 0
 s    6 1.00
             3047.5249  0.0018347001629433
             457.36951    0.01403730124668
             103.94869   0.068842606114048
             29.210155    0.23218442062076
              9.286663    0.46794134155879
              3.163927    0.36231203217765
 s    3 1.00
             7.8682724   -0.11933240861517
             1.8812885   -0.16085421161283
             0.5442493     1.1434564825515
 s    1 1.00
             0.1687144                   1
 p    3 1.00
             7.8682724   0.068999095584993
             1.8812885    0.31642397975315
             0.5442493    0.74430825237435
 p    1 1.00
             0.1687144                   1
 d    1 1.00
                   0.8                   1

11 0
 s    3 1.00
             18.731137    0.03349459952309
             2.8253937    0.23472694665786
             0.6401217    0.81375731841339
 s    1 1.00
             0.1612778                   1

12 0
 s    6 1.00
             3047.5249  0.0018347001629433
             457.36951    0.01403730124668
             103.94869   0.068842606114048
             29.210155    0.23218442062076
              9.286663    0.46794134155879
              3.163927    0.36231203217765
 s    3 1.00
             7.8682724   -0.11933240861517
             1.8812885   -0.16085421161283
             0.5442493     1.1434564825515
 s    1 1.00
             0.1687144                   1
 p    3 1.00
             7.8682724   0.068999095584993
             1.8812885    0.31642397975315
             0.5442493    0.74430825237435
 p    1 1.00
             0.1687144                   1
 d    1 1.00
                   0.8                   1

13 0
 s    3 1.00
             18.731137    0.03349459952309
             2.8253937    0.23472694665786
             0.6401217    0.81375731841339
 s    1 1.00
             0.1612778                   1

14 0
 s    3 1.00
             18.731137    0.03349459952309
             2.8253937    0.23472694665786
             0.6401217    0.81375731841339
 s    1 1.00
             0.1612778                   1

15 0
 s    6 1.00
             3047.5249  0.0018347001629433
             457.36951    0.01403730124668
             103.94869   0.068842606114048
             29.210155    0.23218442062076
              9.286663    0.46794134155879
              3.163927    0.36231203217765
 s    3 1.00
             7.8682724   -0.11933240861517
             1.8812885   -0.16085421161283
             0.5442493     1.1434564825515
 s    1 1.00
             0.1687144                   1
 p    3 1.00
             7.8682724   0.068999095584993
             1.8812885    0.31642397975315
             0.5442493    0.74430825237435
 p    1 1.00
             0.1687144                   1
 d    1 1.00
                   0.8                   1

16 0
 s    6 1.00
             3047.5249  0.0018347001629433
             457.36951    0.01403730124668
             103.94869   0.068842606114048
             29.210155    0.23218442062076
              9.286663    0.46794134155879
              3.163927    0.36231203217765
 s    3 1.00
             7.8682724   -0.11933240861517
             1.8812885   -0.16085421161283
             0.5442493     1.1434564825515
 s    1 1.00
             0.1687144                   1
 p    3 1.00
             7.8682724   0.068999095584993
             1.8812885    0.31642397975315
             0.5442493    0.74430825237435
 p    1 1.00
             0.1687144                   1
 d    1 1.00
                   0.8                   1

17 0
 s    6 1.00
             3047.5249  0.0018347001629433
             457.36951    0.01403730124668
             103.94869   0.068842606114048
             29.210155    0.23218442062076
              9.286663    0.46794134155879
              3.163927    0.36231203217765
 s    3 1.00
             7.8682724   -0.11933240861517
             1.8812885   -0.16085421161283
             0.5442493     1.1434564825515
 s    1 1.00
             0.1687144                   1
 p    3 1.00
             7.8682724   0.068999095584993
             1.8812885    0.31642397975315
             0.5442493    0.74430825237435
 p    1 1.00
             0.1687144                   1
 d    1 1.00
                   0.8                   1

18 0
 s    6 1.00
             3047.5249  0.0018347001629433
             457.36951    0.01403730124668
             103.94869   0.068842606114048
             29.210155    0.23218442062076
              9.286663    0.46794134155879
              3.163927    0.36231203217765
 s    3 1.00
             7.8682724   -0.11933240861517
             1.8812885   -0.16085421161283
             0.5442493     1.1434564825515
 s    1 1.00
             0.1687144                   1
 p    3 1.00
             7.8682724   0.068999095584993
             1.8812885    0.31642397975315
             0.5442493    0.74430825237435
 p    1 1.00
             0.1687144                   1
 d    1 1.00
                   0.8                   1

19 0
 s    6 1.00
             3047.5249  0.0018347001629433
             457.36951    0.01403730124668
             103.94869   0.068842606114048
             29.210155    0.23218442062076
              9.286663    0.46794134155879
              3.163927    0.36231203217765
 s    3 1.00
             7.8682724   -0.11933240861517
             1.8812885   -0.16085421161283
             0.5442493     1.1434564825515
 s    1 1.00
             0.1687144                   1
 p    3 1.00
             7.8682724   0.068999095584993
             1.8812885    0.31642397975315
             0.5442493    0.74430825237435
 p    1 1.00
             0.1687144                   1
 d    1 1.00
                   0.8                   1

20 0
 s    6 1.00
             3047.5249  0.0018347001629433
             457.36951    0.01403730124668
             103.94869   0.068842606114048
             29.210155    0.23218442062076
              9.286663    0.46794134155879
              3.163927    0.36231203217765
 s    3 1.00
             7.8682724   -0.11933240861517
             1.8812885   -0.16085421161283
             0.5442493     1.1434564825515
 s    1 1.00
             0.1687144                   1
 p    3 1.00
             7.8682724   0.068999095584993
             1.8812885    0.31642397975315
             0.5442493    0.74430825237435
 p    1 1.00
             0.1687144                   1
 d    1 1.00
                   0.8                   1

21 0
 s    6 1.00
             3047.5249  0.0018347001629433
             457.36951    0.01403730124668
             103.94869   0.068842606114048
             29.210155    0.23218442062076
              9.286663    0.46794134155879
              3.163927    0.36231203217765
 s    3 1.00
             7.8682724   -0.11933240861517
             1.8812885   -0.16085421161283
             0.5442493     1.1434564825515
 s    1 1.00
             0.1687144                   1
 p    3 1.00
             7.8682724   0.068999095584993
             1.8812885    0.31642397975315
             0.5442493    0.74430825237435
 p    1 1.00
             0.1687144                   1
 d    1 1.00
                   0.8                   1

22 0
 s    3 1.00
             18.731137    0.03349459952309
             2.8253937    0.23472694665786
             0.6401217    0.81375731841339
 s    1 1.00
             0.1612778                   1

23 0
 s    3 1.00
             18.731137    0.03349459952309
             2.8253937    0.23472694665786
             0.6401217    0.81375731841339
 s    1 1.00
             0.1612778                   1

24 0
 s    3 1.00
             18.731137    0.03349459952309
             2.8253937    0.23472694665786
             0.6401217    0.81375731841339
 s    1 1.00
             0.1612778                   1

25 0
 s    3 1.00
             18.731137    0.03349459952309
             2.8253937    0.23472694665786
             0.6401217    0.81375731841339
 s    1 1.00
             0.1612778                   1

26 0
 s    3 1.00
             18.731137    0.03349459952309
             2.8253937    0.23472694665786
             0.6401217    0.81375731841339
 s    1 1.00
             0.1612778                   1

27 0
 s    3 1.00
             18.731137    0.03349459952309
             2.8253937    0.23472694665786
             0.6401217    0.81375731841339
 s    1 1.00
             0.1612778                   1

28 0
 s    3 1.00
             18.731137    0.03349459952309
             2.8253937    0.23472694665786
             0.6401217    0.81375731841339
 s    1 1.00
             0.1612778                   1

29 0
 s    3 1.00
             18.731137    0.03349459952309
             2.8253937    0.23472694665786
             0.6401217    0.81375731841339
 s    1 1.00
             0.1612778                   1

30 0
 s    3 1.00
             18.731137    0.03349459952309
             2.8253937    0.23472694665786
             0.6401217    0.81375731841339
 s    1 1.00
             0.1612778                   1

31 0
 s    3 1.00
             18.731137    0.03349459952309
             2.8253937    0.23472694665786
             0.6401217    0.81375731841339
 s    1 1.00
             0.1612778                   1

32 0
 s    3 1.00
             18.731137    0.03349459952309
             2.8253937    0.23472694665786
             0.6401217    0.81375731841339
 s    1 1.00
             0.1612778                   1

33 0
 s    6 1.00
             3047.5249  0.0018347001629433
             457.36951    0.01403730124668
             103.94869   0.068842606114048
             29.210155    0.23218442062076
              9.286663    0.46794134155879
              3.163927    0.36231203217765
 s    3 1.00
             7.8682724   -0.11933240861517
             1.8812885   -0.16085421161283
             0.5442493     1.1434564825515
 s    1 1.00
             0.1687144                   1
 p    3 1.00
             7.8682724   0.068999095584993
             1.8812885    0.31642397975315
             0.5442493    0.74430825237435
 p    1 1.00
             0.1687144                   1
 d    1 1.00
                   0.8                   1

34 0
 s    6 1.00
             3047.5249  0.0018347001629433
             457.36951    0.01403730124668
             103.94869   0.068842606114048
             29.210155    0.23218442062076
              9.286663    0.46794134155879
              3.163927    0.36231203217765
 s    3 1.00
             7.8682724   -0.11933240861517
             1.8812885   -0.16085421161283
             0.5442493     1.1434564825515
 s    1 1.00
             0.1687144                   1
 p    3 1.00
             7.8682724   0.068999095584993
             1.8812885    0.31642397975315
             0.5442493    0.74430825237435
 p    1 1.00
             0.1687144                   1
 d    1 1.00
                   0.8                   1

35 0
 s    3 1.00
             18.731137    0.03349459952309
             2.8253937    0.23472694665786
             0.6401217    0.81375731841339
 s    1 1.00
             0.1612778                   1

36 0
 s    6 1.00
             3047.5249  0.0018347001629433
             457.36951    0.01403730124668
             103.94869   0.068842606114048
             29.210155    0.23218442062076
              9.286663    0.46794134155879
              3.163927    0.36231203217765
 s    3 1.00
             7.8682724   -0.11933240861517
             1.8812885   -0.16085421161283
             0.5442493     1.1434564825515
 s    1 1.00
             0.1687144                   1
 p    3 1.00
             7.8682724   0.068999095584993
             1.8812885    0.31642397975315
             0.5442493    0.74430825237435
 p    1 1.00
             0.1687144                   1
 d    1 1.00
                   0.8                   1

37 0
 s    3 1.00
             18.731137    0.03349459952309
             2.8253937    0.23472694665786
             0.6401217    0.81375731841339
 s    1 1.00
             0.1612778                   1

38 0
 s    3 1.00
             18.731137    0.03349459952309
             2.8253937    0.23472694665786
             0.6401217    0.81375731841339
 s    1 1.00
             0.1612778                   1

39 0
 s    6 1.00
             3047.5249  0.0018347001629433
             457.36951    0.01403730124668
             103.94869   0.068842606114048
             29.210155    0.23218442062076
              9.286663    0.46794134155879
              3.163927    0.36231203217765
 s    3 1.00
             7.8682724   -0.11933240861517
             1.8812885   -0.16085421161283
             0.5442493     1.1434564825515
 s    1 1.00
             0.1687144                   1
 p    3 1.00
             7.8682724   0.068999095584993
             1.8812885    0.31642397975315
             0.5442493    0.74430825237435
 p    1 1.00
             0.1687144                   1
 d    1 1.00
                   0.8                   1

40 0
 s    6 1.00
             3047.5249  0.0018347001629433
             457.36951    0.01403730124668
             103.94869   0.068842606114048
             29.210155    0.23218442062076
              9.286663    0.46794134155879
              3.163927    0.36231203217765
 s    3 1.00
             7.8682724   -0.11933240861517
             1.8812885   -0.16085421161283
             0.5442493     1.1434564825515
 s    1 1.00
             0.1687144                   1
 p    3 1.00
             7.8682724   0.068999095584993
             1.8812885    0.31642397975315
             0.5442493    0.74430825237435
 p    1 1.00
             0.1687144                   1
 d    1 1.00
                   0.8                   1

41 0
 s    3 1.00
             18.731137    0.03349459952309
             2.8253937    0.23472694665786
             0.6401217    0.81375731841339
 s    1 1.00
             0.1612778                   1

42 0
 s    6 1.00
             5484.6717   0.001831099805527
             825.23495   0.013950098518422
             188.04696    0.06844509273075
               52.9645    0.23271427528445
              16.89757    0.47019295006289
             5.7996353    0.35852086192309
 s    3 1.00
             15.539616   -0.11077750382508
             3.5999336   -0.14802630511126
             1.0137618     1.1307670390447
 s    1 1.00
             0.2700058                   1
 p    3 1.00
             15.539616   0.070874299543311
             3.5999336    0.33975279781076
             1.0137618    0.72715859531445
 p    1 1.00
             0.2700058                   1
 d    1 1.00
                   0.8                   1

43 0
 s    3 1.00
             18.731137    0.03349459952309
             2.8253937    0.23472694665786
             0.6401217    0.81375731841339
 s    1 1.00
             0.1612778                   1

[5d]
[7f]
[9g]

[MO]
 Sym= A
 Ene=               0
 Spin= Alpha
 Occup=    1.00000
   1    0.0030627670687513
   2      0.29815140406744
   3      0.19655425920352
   4    -0.076491875269055
   5    -0.048405199250595
   6      0.14698202003903
   7     0.010771461287305
   8    -0.006538488207018
   9     0.048762093637733
  10    0.0047267016142695
  11    -0.0064621206369943
  12    -0.0053537627615478
  13     0.007823999542276
  14    0.0058785225174422
  15      0.06642346197008
  16    -0.0022332319946564
  17    -0.0087401520787675
  18     0.046517846256215
  19     0.021520378519743
  20    -0.0062394582081612
  21    -0.011180064366219
  22     0.052847358503574
  23    -0.011635450708917
  24    -0.007204404343092
  25     0.025598132237588
  26    0.0064078703528327
  27    0.0028497914160195
  28    -0.0017922290491969
  29    0.00086708560384088
  30    2.5582503619276e-05
  31     0.012868802246352
  32    -0.00018363070677099
  33    0.0010887487932343
  34    -0.00084887650823702
  35     0.017230203583692
  36     0.001984978448947
  37    0.00083757859300669
  38    -0.0070554254991022
  39    -0.0060549482470314
  40    -0.0049808994111129
  41    0.0017022576419437
  42    -3.5600054529743e-06
  43    -0.0008026713891696
  44    0.00020118955439237
  45    3.5932780771277e-05
  46    -0.0001756307883493
  47    0.0010491528700345
  48    0.0018576064854967
  49    -0.00046658060102322
  50     0.022129909128296
  51     0.015074443400845
  52    0.0072176238382606
  53    0.00047343170865231
  54    -0.010198835089605
  55    0.0061019251289241
  56    -0.0013209948235144
  57    -0.005697577542164
  58    0.00017845546228078
  59    -0.00063643981857932
  60    -0.00061664578675421
  61    -0.00037536395219725
  62    0.00014472775370061
  63     0.006188400165828
  64    0.0016037661943879
  65    4.5740946126593e-05
  66    6.6017147765493e-05
  67    2.1529620823174e-05
  68    7.1216484150112e-06
  69    -0.00039927447619407
  70    -7.2312284920961e-05
  71    1.8735607411439e-05
  72    4.5030754843553e-05
  73    0.00017958338080339
  74    0.00047198511305534
  75    0.00019550746480183
  76    2.7596042198768e-05
  77    1.7392338578161e-05
  78    -1.2132312516068e-05
  79    -6.5445639778597e-06
  80    1.3675438229183e-05
  81    1.538250015479e-05
  82    0.00039279268497863
  83    -1.292307649287e-05
  84    0.00013702865838882
  85    0.0010695608704807
  86    -8.7609427205746e-05
  87    0.0001408289787779
  88    -0.00026488127388397
  89    -0.000389584346886
  90    -0.00045655280733914
  91    -0.00040206748685868
  92    -1.4745232202904e-05
  93    4.5431411181063e-05
  94    1.247943024101e-05
  95    3.4049243382349e-06
  96    1.1755896825317e-05
  97    0.00010750156906499
  98    0.00038176997073778
  99    -0.00013662877100205
 100    -0.00030488550414715
 101    4.0686117678681e-05
 102    1.9655319374986e-05
 103    -0.00073928956619454
 104    -0.00043557173336059
 105    -0.0004062347955936
 106    0.00035777624929017
 107    0.0023891516927708
 108    -0.0012808894136893
 109    -0.0031655103548169
 110    3.7657253369192e-05
 111    8.6441548995223e-05
 112    -3.1471337632119e-05
 113    -5.4848390447032e-05
 114    3.9867984026905e-05
 115    8.4001301807054e-05
 116    -0.00016716348128542
 117    -0.0023150746656127
 118    0.00012263617373096
 119    -0.000345131220591
 120    -1.0039840650867e-05
 121    0.00054531568668047
 122    -0.00024940343135653
 123    -0.0015986331736367
 124    1.2774712645862e-05
 125    3.1501175124692e-05
 126    -6.4336282107414e-05
 127    1.2017928416391e-05
 128    3.2130956516717e-05
 129    -1.5178682456673e-05
 130    0.00077924508973292
 131    -0.011378165345237
 132    -0.00020849863788285
 133    -0.00022500069511979
 134    -0.00077914070372116
 135    0.0014830756199918
 136    -0.0012672476313705
 137     0.012554931134228
 138    -0.00040773899101844
 139    9.6204488495128e-05
 140    7.2811466766016e-05
 141    3.3545950213663e-05
 142    5.1442421327874e-05
 143    0.00010749414966001
 144    -0.00010417628162512
 145    -0.0025659333540023
 146    -6.6438351300106e-05
 147    0.0001709101434378
 148    0.00058250159699644
 149    -0.0028981969560837
 150      0.00162487249934
 151    -0.0018392798184411
 152    0.00010187419057535
 153    -2.0660891586153e-05
 154    -3.8162152236076e-05
 155    -6.3967478562913e-05
 156    5.9269050854426e-05
 157    3.7760881228441e-05
 158    0.00011440557354414
 159    -0.0016077699251516
 160    6.260883500451e-05
 161    1.6889952347032e-05
 162    2.4740993698459e-05
 163    0.00016018571762655
 164    0.00087104093991971
 165    0.0002543471377592
 166    2.8520251120705e-05
 167    -8.2079602134086e-06
 168    3.0113632346514e-06
 169    5.1787236502281e-05
 170    -7.1624911658045e-06
 171    1.5231989785723e-05
 172    -0.0002299199673233
 173    0.00026013865249013
 174    -2.1749967169783e-05
 175    1.7583074799354e-05
 176    0.00026669552170875
 177    0.00035667494305706
 178    -0.00071463529002299
 179    -8.9299892403714e-05
 180    5.1874109908971e-06
 181    5.9985900838237e-05
 182    2.1718857474957e-05
 183    3.2424860609292e-05
 184    -8.385014029633e-06
 185    -2.6840033241951e-05
 186    7.919369841118e-05
 187     0.001729619319881
 188    -5.7360317588553e-06
 189    -5.967126337252e-05
 190    -0.00036075409490986
 191    -0.0010179742285639
 192    -0.00037944727077416
 193    -0.00055262709070992
 194    1.5901663511346e-05
 195    4.9960386855667e-05
 196    2.101146894284e-05
 197    -7.736836171869e-06
 198    2.6181173944378e-05
 199    1.2820921831567e-05
 200    0.00033986732208684
 201    -0.00016440293555587
 202    -0.00059217240492164
 203    0.00012842599420506
 204    0.00057773186236229
 205    -8.9911431731608e-05
 206    8.0404070569636e-05
 207    0.00012416752272303
 208    -0.0009354296036253
 209    7.1450378891887e-05
 210    0.00026000675410277
 211    2.7909119025751e-05
 212    -7.8926104864069e-05
 213    2.6051468728696e-05
 214    -0.00013224451821019
 215    -1.895875566641e-05
 216    -0.00060131378490331
 217    3.614679377638e-05
 218    0.00035834247043169
 219    -1.110703510297e-05
 220    -0.0004193063237048
 221    0.0012721113091724
 222    -0.002953782992627
 223     0.023042898286573
 224    -0.0018218526238602
 225    -0.0001884246790258
 226    0.0032603043033771
 227     0.016235505123002
 228    0.0027344684837422
 229    0.0091458947189909
 230    0.00024463845420863
 231    -0.00016043665774496
 232    -0.00018086918007975
 233    0.00010965905477252
 234    0.00014532299780616
 235    -0.0082457643456364
 236     0.043696473249324
 237     0.019735082334595
 238    0.0064928499482577
 239     0.011223391085189
 240      -0.0487612504906
 241    0.0076900717703122
 242    0.0075542893761287
 243    -0.028716961410884
 244    0.0065269375262711
 245    0.0024415099272519
 246    -0.0017476187857289
 247    0.00096998947891394
 248    0.00014636981165085
 249    0.00077598118355022
 250    0.0081747099533989
 251    0.0015413726918798
 252      0.29683136159889
 253      0.18545041902582
 254     0.079571196067211
 255     0.049813255560983
 256     -0.14941544227572
 257    -0.012437584209788
 258    0.0045994233281688
 259    -0.045702817493081
 260    0.0043377560331589
 261    -0.0063278208937271
 262    -0.0053969342728552
 263     0.007486702638561
 264    0.0061356906694559
 265     0.012197905023429
 266    0.0019072087989965
 267      0.06432802669533
 268    -0.0037965532678377
 269    0.0011671922503062
 270     0.023428081258106
 271     0.010313299979555
 272    -0.0045894954980153
 273    -0.004237297774635
 274    0.0087581334946605
 275    -0.0012325196468161
 276    0.0037824130867752
 277    0.00093661462455017
 278    0.00021014830552051
 279    -0.00077214552246955
 280    -0.00049746082714677
 281    -0.00033196938884439
 282    6.0422703627562e-05
 283    -0.0012985882795548
 284    0.0060627882518123
 285     0.006407226884659