[Molden Format]
made by pyscf v[2.0.1]
[Atoms] (AU)
C   1   6     0.69100024066471     0.64692934207205    -3.48223131169301
H   2   1     2.68052439830868     1.13355088658700    -3.25784032593313
C   3   6    -0.36286361513219     0.85440132524594    -5.97030179418974
H   4   1    -2.35448549047279     0.36322488579172    -6.17995817793143
C   5   6     0.93697958957450     1.61209284601821    -8.05828437677121
H   6   1     0.93570604399073     3.60645829547735    -8.57155587183010
C   7   6     2.33064164489587    -0.08500019610028    -9.65009622470686
H   8   1     2.31545752956704    -2.07726916449957    -9.11124928966168
H   9   1     1.55630230933075    -1.92953025305990    12.99630010416247
C   10   6     0.75233899775814    -2.21270439606481    11.10705728102219
H   11   1    -0.43433408177274    -3.90944857546550    11.22216085340412
C   12   6     2.86362581178706    -2.63237380607947     9.17926416456045
H   13   1     4.39038949912609    -1.24955421540245     9.49899813497433
H   14   1     3.74629220191363    -4.48798724300892     9.47414880959024
C   15   6     2.02478325613682    -2.42177285709634     6.44560829588644
C   16   6     3.88048732735477    -3.58795445234514     4.61402886975252
C   17   6    -0.18412382258602    -1.30464291234259     5.76021113872346
C   18   6    -2.10044360464350    -0.26837831858460     7.71610340967100
C   19   6    -3.08956938670431     2.35282328359417     6.88693925039594
C   20   6    -4.37372924086464    -2.09766595989678     7.93610724222001
C   21   6    -0.83850430601230     0.06372213486173    10.33002307638377
H   22   1     0.38411922151109     1.74281358582432    10.27380136542181
H   23   1    -2.30980003007874     0.45460143924521    11.73986301809809
H   24   1     4.58527064644668    -5.38706904487420     5.36778158031719
H   25   1     5.54944938085014    -2.37631462192748     4.35398898413318
H   26   1     3.06633019150423    -3.94118377050688     2.75255466040884
H   27   1    -4.17727778763735     2.26573369139522     5.12914900961283
H   28   1    -1.52662344944051     3.68001877445626     6.59540397144508
H   29   1    -4.32916174397830     3.13643051467482     8.35225460090378
H   30   1    -5.32329548508442    -2.36691813602939     6.11583672749896
H   31   1    -5.77989366602257    -1.33896741843465     9.25748940450990
H   32   1    -3.79310905208926    -3.96389819310853     8.61386170102686
C   33   6    -1.01100794811226    -1.06331657314144     3.11929490449947
C   34   6     0.37686231036534    -0.33275864505552     1.09165013605873
H   35   1    -3.01671213906703    -1.40297922279997     2.77827895090944
C   36   6    -0.64382707979370    -0.11591880174385    -1.42063131251064
H   37   1     2.35569259782137     0.17174499283897     1.33641070251401
H   38   1    -2.63317482980319    -0.60229203511219    -1.66119700387645
C   39   6     3.64869579482306     0.58263290243353   -11.74621951745329
C   40   6     5.00865186237336    -1.29151691020822   -13.24458681490645
H   41   1     3.74083961582251     2.53414495508714   -12.38721761884598
O   42   8     6.22738846457655    -0.82464446464225   -15.14656876600025
H   43   1     4.86298794977594    -3.26455446446118   -12.51927050350916
[GTO]
1 0
 s    6 1.00
             3047.5249  0.0018347001629433
             457.36951    0.01403730124668
             103.94869   0.068842606114048
             29.210155    0.23218442062076
              9.286663    0.46794134155879
              3.163927    0.36231203217765
 s    3 1.00
             7.8682724   -0.11933240861517
             1.8812885   -0.16085421161283
             0.5442493     1.1434564825515
 s    1 1.00
             0.1687144                   1
 p    3 1.00
             7.8682724   0.068999095584993
             1.8812885    0.31642397975315
             0.5442493    0.74430825237435
 p    1 1.00
             0.1687144                   1
 d    1 1.00
                   0.8                   1

2 0
 s    3 1.00
             18.731137    0.03349459952309
             2.8253937    0.23472694665786
             0.6401217    0.81375731841339
 s    1 1.00
             0.1612778                   1

3 0
 s    6 1.00
             3047.5249  0.0018347001629433
             457.36951    0.01403730124668
             103.94869   0.068842606114048
             29.210155    0.23218442062076
              9.286663    0.46794134155879
              3.163927    0.36231203217765
 s    3 1.00
             7.8682724   -0.11933240861517
             1.8812885   -0.16085421161283
             0.5442493     1.1434564825515
 s    1 1.00
             0.1687144                   1
 p    3 1.00
             7.8682724   0.068999095584993
             1.8812885    0.31642397975315
             0.5442493    0.74430825237435
 p    1 1.00
             0.1687144                   1
 d    1 1.00
                   0.8                   1

4 0
 s    3 1.00
             18.731137    0.03349459952309
             2.8253937    0.23472694665786
             0.6401217    0.81375731841339
 s    1 1.00
             0.1612778                   1

5 0
 s    6 1.00
             3047.5249  0.0018347001629433
             457.36951    0.01403730124668
             103.94869   0.068842606114048
             29.210155    0.23218442062076
              9.286663    0.46794134155879
              3.163927    0.36231203217765
 s    3 1.00
             7.8682724   -0.11933240861517
             1.8812885   -0.16085421161283
             0.5442493     1.1434564825515
 s    1 1.00
             0.1687144                   1
 p    3 1.00
             7.8682724   0.068999095584993
             1.8812885    0.31642397975315
             0.5442493    0.74430825237435
 p    1 1.00
             0.1687144                   1
 d    1 1.00
                   0.8                   1

6 0
 s    3 1.00
             18.731137    0.03349459952309
             2.8253937    0.23472694665786
             0.6401217    0.81375731841339
 s    1 1.00
             0.1612778                   1

7 0
 s    6 1.00
             3047.5249  0.0018347001629433
             457.36951    0.01403730124668
             103.94869   0.068842606114048
             29.210155    0.23218442062076
              9.286663    0.46794134155879
              3.163927    0.36231203217765
 s    3 1.00
             7.8682724   -0.11933240861517
             1.8812885   -0.16085421161283
             0.5442493     1.1434564825515
 s    1 1.00
             0.1687144                   1
 p    3 1.00
             7.8682724   0.068999095584993
             1.8812885    0.31642397975315
             0.5442493    0.74430825237435
 p    1 1.00
             0.1687144                   1
 d    1 1.00
                   0.8                   1

8 0
 s    3 1.00
             18.731137    0.03349459952309
             2.8253937    0.23472694665786
             0.6401217    0.81375731841339
 s    1 1.00
             0.1612778                   1

9 0
 s    3 1.00
             18.731137    0.03349459952309
             2.8253937    0.23472694665786
             0.6401217    0.81375731841339
 s    1 1.00
             0.1612778                   1

10 0
 s    6 1.00
             3047.5249  0.0018347001629433
             457.36951    0.01403730124668
             103.94869   0.068842606114048
             29.210155    0.23218442062076
              9.286663    0.46794134155879
              3.163927    0.36231203217765
 s    3 1.00
             7.8682724   -0.11933240861517
             1.8812885   -0.16085421161283
             0.5442493     1.1434564825515
 s    1 1.00
             0.1687144                   1
 p    3 1.00
             7.8682724   0.068999095584993
             1.8812885    0.31642397975315
             0.5442493    0.74430825237435
 p    1 1.00
             0.1687144                   1
 d    1 1.00
                   0.8                   1

11 0
 s    3 1.00
             18.731137    0.03349459952309
             2.8253937    0.23472694665786
             0.6401217    0.81375731841339
 s    1 1.00
             0.1612778                   1

12 0
 s    6 1.00
             3047.5249  0.0018347001629433
             457.36951    0.01403730124668
             103.94869   0.068842606114048
             29.210155    0.23218442062076
              9.286663    0.46794134155879
              3.163927    0.36231203217765
 s    3 1.00
             7.8682724   -0.11933240861517
             1.8812885   -0.16085421161283
             0.5442493     1.1434564825515
 s    1 1.00
             0.1687144                   1
 p    3 1.00
             7.8682724   0.068999095584993
             1.8812885    0.31642397975315
             0.5442493    0.74430825237435
 p    1 1.00
             0.1687144                   1
 d    1 1.00
                   0.8                   1

13 0
 s    3 1.00
             18.731137    0.03349459952309
             2.8253937    0.23472694665786
             0.6401217    0.81375731841339
 s    1 1.00
             0.1612778                   1

14 0
 s    3 1.00
             18.731137    0.03349459952309
             2.8253937    0.23472694665786
             0.6401217    0.81375731841339
 s    1 1.00
             0.1612778                   1

15 0
 s    6 1.00
             3047.5249  0.0018347001629433
             457.36951    0.01403730124668
             103.94869   0.068842606114048
             29.210155    0.23218442062076
              9.286663    0.46794134155879
              3.163927    0.36231203217765
 s    3 1.00
             7.8682724   -0.11933240861517
             1.8812885   -0.16085421161283
             0.5442493     1.1434564825515
 s    1 1.00
             0.1687144                   1
 p    3 1.00
             7.8682724   0.068999095584993
             1.8812885    0.31642397975315
             0.5442493    0.74430825237435
 p    1 1.00
             0.1687144                   1
 d    1 1.00
                   0.8                   1

16 0
 s    6 1.00
             3047.5249  0.0018347001629433
             457.36951    0.01403730124668
             103.94869   0.068842606114048
             29.210155    0.23218442062076
              9.286663    0.46794134155879
              3.163927    0.36231203217765
 s    3 1.00
             7.8682724   -0.11933240861517
             1.8812885   -0.16085421161283
             0.5442493     1.1434564825515
 s    1 1.00
             0.1687144                   1
 p    3 1.00
             7.8682724   0.068999095584993
             1.8812885    0.31642397975315
             0.5442493    0.74430825237435
 p    1 1.00
             0.1687144                   1
 d    1 1.00
                   0.8                   1

17 0
 s    6 1.00
             3047.5249  0.0018347001629433
             457.36951    0.01403730124668
             103.94869   0.068842606114048
             29.210155    0.23218442062076
              9.286663    0.46794134155879
              3.163927    0.36231203217765
 s    3 1.00
             7.8682724   -0.11933240861517
             1.8812885   -0.16085421161283
             0.5442493     1.1434564825515
 s    1 1.00
             0.1687144                   1
 p    3 1.00
             7.8682724   0.068999095584993
             1.8812885    0.31642397975315
             0.5442493    0.74430825237435
 p    1 1.00
             0.1687144                   1
 d    1 1.00
                   0.8                   1

18 0
 s    6 1.00
             3047.5249  0.0018347001629433
             457.36951    0.01403730124668
             103.94869   0.068842606114048
             29.210155    0.23218442062076
              9.286663    0.46794134155879
              3.163927    0.36231203217765
 s    3 1.00
             7.8682724   -0.11933240861517
             1.8812885   -0.16085421161283
             0.5442493     1.1434564825515
 s    1 1.00
             0.1687144                   1
 p    3 1.00
             7.8682724   0.068999095584993
             1.8812885    0.31642397975315
             0.5442493    0.74430825237435
 p    1 1.00
             0.1687144                   1
 d    1 1.00
                   0.8                   1

19 0
 s    6 1.00
             3047.5249  0.0018347001629433
             457.36951    0.01403730124668
             103.94869   0.068842606114048
             29.210155    0.23218442062076
              9.286663    0.46794134155879
              3.163927    0.36231203217765
 s    3 1.00
             7.8682724   -0.11933240861517
             1.8812885   -0.16085421161283
             0.5442493     1.1434564825515
 s    1 1.00
             0.1687144                   1
 p    3 1.00
             7.8682724   0.068999095584993
             1.8812885    0.31642397975315
             0.5442493    0.74430825237435
 p    1 1.00
             0.1687144                   1
 d    1 1.00
                   0.8                   1

20 0
 s    6 1.00
             3047.5249  0.0018347001629433
             457.36951    0.01403730124668
             103.94869   0.068842606114048
             29.210155    0.23218442062076
              9.286663    0.46794134155879
              3.163927    0.36231203217765
 s    3 1.00
             7.8682724   -0.11933240861517
             1.8812885   -0.16085421161283
             0.5442493     1.1434564825515
 s    1 1.00
             0.1687144                   1
 p    3 1.00
             7.8682724   0.068999095584993
             1.8812885    0.31642397975315
             0.5442493    0.74430825237435
 p    1 1.00
             0.1687144                   1
 d    1 1.00
                   0.8                   1

21 0
 s    6 1.00
             3047.5249  0.0018347001629433
             457.36951    0.01403730124668
             103.94869   0.068842606114048
             29.210155    0.23218442062076
              9.286663    0.46794134155879
              3.163927    0.36231203217765
 s    3 1.00
             7.8682724   -0.11933240861517
             1.8812885   -0.16085421161283
             0.5442493     1.1434564825515
 s    1 1.00
             0.1687144                   1
 p    3 1.00
             7.8682724   0.068999095584993
             1.8812885    0.31642397975315
             0.5442493    0.74430825237435
 p    1 1.00
             0.1687144                   1
 d    1 1.00
                   0.8                   1

22 0
 s    3 1.00
             18.731137    0.03349459952309
             2.8253937    0.23472694665786
             0.6401217    0.81375731841339
 s    1 1.00
             0.1612778                   1

23 0
 s    3 1.00
             18.731137    0.03349459952309
             2.8253937    0.23472694665786
             0.6401217    0.81375731841339
 s    1 1.00
             0.1612778                   1

24 0
 s    3 1.00
             18.731137    0.03349459952309
             2.8253937    0.23472694665786
             0.6401217    0.81375731841339
 s    1 1.00
             0.1612778                   1

25 0
 s    3 1.00
             18.731137    0.03349459952309
             2.8253937    0.23472694665786
             0.6401217    0.81375731841339
 s    1 1.00
             0.1612778                   1

26 0
 s    3 1.00
             18.731137    0.03349459952309
             2.8253937    0.23472694665786
             0.6401217    0.81375731841339
 s    1 1.00
             0.1612778                   1

27 0
 s    3 1.00
             18.731137    0.03349459952309
             2.8253937    0.23472694665786
             0.6401217    0.81375731841339
 s    1 1.00
             0.1612778                   1

28 0
 s    3 1.00
             18.731137    0.03349459952309
             2.8253937    0.23472694665786
             0.6401217    0.81375731841339
 s    1 1.00
             0.1612778                   1

29 0
 s    3 1.00
             18.731137    0.03349459952309
             2.8253937    0.23472694665786
             0.6401217    0.81375731841339
 s    1 1.00
             0.1612778                   1

30 0
 s    3 1.00
             18.731137    0.03349459952309
             2.8253937    0.23472694665786
             0.6401217    0.81375731841339
 s    1 1.00
             0.1612778                   1

31 0
 s    3 1.00
             18.731137    0.03349459952309
             2.8253937    0.23472694665786
             0.6401217    0.81375731841339
 s    1 1.00
             0.1612778                   1

32 0
 s    3 1.00
             18.731137    0.03349459952309
             2.8253937    0.23472694665786
             0.6401217    0.81375731841339
 s    1 1.00
             0.1612778                   1

33 0
 s    6 1.00
             3047.5249  0.0018347001629433
             457.36951    0.01403730124668
             103.94869   0.068842606114048
             29.210155    0.23218442062076
              9.286663    0.46794134155879
              3.163927    0.36231203217765
 s    3 1.00
             7.8682724   -0.11933240861517
             1.8812885   -0.16085421161283
             0.5442493     1.1434564825515
 s    1 1.00
             0.1687144                   1
 p    3 1.00
             7.8682724   0.068999095584993
             1.8812885    0.31642397975315
             0.5442493    0.74430825237435
 p    1 1.00
             0.1687144                   1
 d    1 1.00
                   0.8                   1

34 0
 s    6 1.00
             3047.5249  0.0018347001629433
             457.36951    0.01403730124668
             103.94869   0.068842606114048
             29.210155    0.23218442062076
              9.286663    0.46794134155879
              3.163927    0.36231203217765
 s    3 1.00
             7.8682724   -0.11933240861517
             1.8812885   -0.16085421161283
             0.5442493     1.1434564825515
 s    1 1.00
             0.1687144                   1
 p    3 1.00
             7.8682724   0.068999095584993
             1.8812885    0.31642397975315
             0.5442493    0.74430825237435
 p    1 1.00
             0.1687144                   1
 d    1 1.00
                   0.8                   1

35 0
 s    3 1.00
             18.731137    0.03349459952309
             2.8253937    0.23472694665786
             0.6401217    0.81375731841339
 s    1 1.00
             0.1612778                   1

36 0
 s    6 1.00
             3047.5249  0.0018347001629433
             457.36951    0.01403730124668
             103.94869   0.068842606114048
             29.210155    0.23218442062076
              9.286663    0.46794134155879
              3.163927    0.36231203217765
 s    3 1.00
             7.8682724   -0.11933240861517
             1.8812885   -0.16085421161283
             0.5442493     1.1434564825515
 s    1 1.00
             0.1687144                   1
 p    3 1.00
             7.8682724   0.068999095584993
             1.8812885    0.31642397975315
             0.5442493    0.74430825237435
 p    1 1.00
             0.1687144                   1
 d    1 1.00
                   0.8                   1

37 0
 s    3 1.00
             18.731137    0.03349459952309
             2.8253937    0.23472694665786
             0.6401217    0.81375731841339
 s    1 1.00
             0.1612778                   1

38 0
 s    3 1.00
             18.731137    0.03349459952309
             2.8253937    0.23472694665786
             0.6401217    0.81375731841339
 s    1 1.00
             0.1612778                   1

39 0
 s    6 1.00
             3047.5249  0.0018347001629433
             457.36951    0.01403730124668
             103.94869   0.068842606114048
             29.210155    0.23218442062076
              9.286663    0.46794134155879
              3.163927    0.36231203217765
 s    3 1.00
             7.8682724   -0.11933240861517
             1.8812885   -0.16085421161283
             0.5442493     1.1434564825515
 s    1 1.00
             0.1687144                   1
 p    3 1.00
             7.8682724   0.068999095584993
             1.8812885    0.31642397975315
             0.5442493    0.74430825237435
 p    1 1.00
             0.1687144                   1
 d    1 1.00
                   0.8                   1

40 0
 s    6 1.00
             3047.5249  0.0018347001629433
             457.36951    0.01403730124668
             103.94869   0.068842606114048
             29.210155    0.23218442062076
              9.286663    0.46794134155879
              3.163927    0.36231203217765
 s    3 1.00
             7.8682724   -0.11933240861517
             1.8812885   -0.16085421161283
             0.5442493     1.1434564825515
 s    1 1.00
             0.1687144                   1
 p    3 1.00
             7.8682724   0.068999095584993
             1.8812885    0.31642397975315
             0.5442493    0.74430825237435
 p    1 1.00
             0.1687144                   1
 d    1 1.00
                   0.8                   1

41 0
 s    3 1.00
             18.731137    0.03349459952309
             2.8253937    0.23472694665786
             0.6401217    0.81375731841339
 s    1 1.00
             0.1612778                   1

42 0
 s    6 1.00
             5484.6717   0.001831099805527
             825.23495   0.013950098518422
             188.04696    0.06844509273075
               52.9645    0.23271427528445
              16.89757    0.47019295006289
             5.7996353    0.35852086192309
 s    3 1.00
             15.539616   -0.11077750382508
             3.5999336   -0.14802630511126
             1.0137618     1.1307670390447
 s    1 1.00
             0.2700058                   1
 p    3 1.00
             15.539616   0.070874299543311
             3.5999336    0.33975279781076
             1.0137618    0.72715859531445
 p    1 1.00
             0.2700058                   1
 d    1 1.00
                   0.8                   1

43 0
 s    3 1.00
             18.731137    0.03349459952309
             2.8253937    0.23472694665786
             0.6401217    0.81375731841339
 s    1 1.00
             0.1612778                   1

[5d]
[7f]
[9g]

[MO]
 Sym= A
 Ene=               0
 Spin= Alpha
 Occup=    1.00000
   1      0.02124707044322
   2    -0.00080725797644395
   3    0.0068558009801987
   4    0.00037395963295653
   5    -0.00014501046469397
   6    0.0011563832185052
   7    0.00083198656734626
   8    0.0013050487981442
   9    -0.0054796656321945
  10    -0.00088346948711574
  11    -0.00085971086893344
  12    0.0001445091456521
  13    -0.00020447062795868
  14    4.1317105228962e-05
  15    -0.00048997802501321
  16    -0.00089421313704602
  17      0.99484255919094
  18     0.036852433697011
  19    -0.028456759333498
  20    0.00093495244081961
  21    0.00017815276872474
  22    -0.00056448684284783
  23    -0.003588912866942
  24    -0.0010908456957703
  25    -0.00079483737825497
  26    0.00076268192210062
  27    -0.0003036628477842
  28    -0.00034350584156033
  29    0.0002980913334389
  30    0.00020683153454547
  31    -0.0011221708797362
  32    0.0038453950926749
  33     0.012529064559474
  34    -0.00027693155096521
  35    0.00098941859903839
  36    0.00083132656465585
  37    0.00031714062742129
  38    -0.0011137402547799
  39    -0.0025079454099352
  40    0.0034867643311037
  41    0.0039399283816806
  42    -0.00058736881261915
  43    0.0011793439246839
  44    0.00047146234085939
  45    -0.00035087677214352
  46    -0.00035916436251094
  47    -0.00055098464599663
  48    -0.0005917814748503
  49    -0.00026380552930527
  50    -0.00054249503130809
  51    0.00023922770762078
  52    0.00027213770147036
  53    2.8777629227386e-05
  54    -0.00038781356759466
  55    -0.0050396146057985
  56    0.0010563474482068
  57    0.0068652489467883
  58    -0.00015588375525884
  59    -1.8186326573433e-05
  60    0.00014361310328331
  61    -0.00022184039424058
  62    -0.00021234456983055
  63    -0.00047737503858726
  64    0.00024063187772084
  65    -2.6115641875083e-06
  66    -3.9959406204389e-06
  67    -5.931299138013e-08
  68    -1.3940694600674e-06
  69    6.293534019015e-06
  70    1.9528327938314e-06
  71    -4.4404582034442e-06
  72    -3.6210683180476e-08
  73    1.2786950049535e-05
  74    2.5060889660795e-05
  75    9.0336867384538e-06
  76    -1.2814973880434e-07
  77    -3.0713064768003e-07
  78    3.0547887751764e-07
  79    5.5992267616581e-07
  80    -3.000047189092e-08
  81    2.479834834546e-06
  82    1.2746235628402e-05
  83    2.0763287756686e-07
  84    1.0767052025401e-06
  85    -6.6487207419758e-05
  86    3.9720962775618e-06
  87    3.2101104819621e-06
  88    5.2064653448611e-06
  89    2.3448012569514e-05
  90    -6.2674590982893e-05
  91    8.1063146505956e-06
  92    1.595338569064e-06
  93    -2.6390631655795e-06
  94    3.7406371300654e-06
  95    -6.7891393787227e-07
  96    -1.0314023773482e-06
  97    7.1994805548813e-06
  98    1.2386952562244e-05
  99    -3.3968035971873e-06
 100    -1.8901389795776e-05
 101    -1.0863471464521e-06
 102    -1.0968431005135e-05
 103    0.00022074235878598
 104    -2.3774814992595e-06
 105    -8.9666659668483e-06
 106    -3.380630006645e-06
 107    -0.00018663273307047
 108    0.00017961895272476
 109    0.00013947889128155
 110    -5.9407683580499e-06
 111    -2.4390218461148e-07
 112    8.3322343425173e-08
 113    1.2825345311914e-06
 114    -5.2461833785519e-06
 115    -3.3925071124953e-06
 116    -3.2016264951388e-05
 117    0.0002344745427722
 118    -2.4288510382763e-06
 119    3.0745733636073e-06
 120    4.8442837864372e-06
 121    -4.9709051468808e-05
 122    1.2957421530961e-05
 123    2.8952674427388e-05
 124    1.4849869853576e-06
 125    -2.9311799999359e-06
 126    -2.3155684264632e-06
 127    7.8674533442325e-07
 128    -2.1307977489695e-06
 129    -5.3701767361145e-06
 130    -5.194624791947e-05
 131    0.00015239562862959
 132    5.4687106863542e-06
 133    -4.8708851684633e-06
 134    2.1753452580708e-05
 135    -0.00033680653654123
 136    3.4633295634605e-05
 137    -0.0004049613108936
 138    9.1995851573614e-06
 139    1.3203556888084e-05
 140    5.3287209333224e-06
 141    4.3831183603857e-06
 142    6.5005755601084e-06
 143    -2.1090001554463e-06
 144    -2.7202986281183e-05
 145    3.5011829911711e-05
 146    2.1215718051673e-06
 147    5.593060618948e-06
 148    1.2478488330527e-05
 149    1.7153892093561e-05
 150    -3.2682064838648e-07
 151    -6.3321589375824e-05
 152    -6.7028528153758e-06
 153    -3.8405846888391e-06
 154    -2.9937456773621e-06
 155    4.1404731451765e-06
 156    -4.0489878061741e-06
 157    1.5537275706366e-06
 158    1.2342333864232e-05
 159    -3.6280423713899e-05
 160    5.7945612394886e-06
 161    -1.0122040962549e-07
 162    -1.3931740217474e-06
 163    -4.8732464211139e-05
 164    2.3849033726458e-05
 165    1.0811720537747e-05
 166    4.3285748876631e-06
 167    -7.6409791835979e-07
 168    -2.0650810481582e-07
 169    8.1562478409019e-07
 170    1.9124902865223e-06
 171    -4.9930108279439e-07
 172    -1.2100473984774e-05
 173    2.2633617378466e-05
 174    -4.0130603744536e-06
 175    -2.4793122284493e-07
 176    1.0479972654367e-05
 177    -1.4659426134983e-06
 178    -1.3920811870277e-06
 179    -2.6076324404066e-05
 180    1.546053974566e-06
 181    4.6553442663991e-06
 182    8.6557588514163e-07
 183    -1.2091901476303e-06
 184    1.576754658904e-06
 185    -3.2629190385756e-06
 186    -2.8373312445037e-05
 187    8.1439086543138e-05
 188    -2.3060341996837e-06
 189    7.0468668261767e-07
 190    4.9667971718903e-06
 191    -2.7601314379936e-06
 192    -1.3134144262278e-05
 193    -6.9654092878287e-05
 194    3.1703360397976e-06
 195    1.650462043543e-06
 196    2.6792865304047e-06
 197    -2.8830193516128e-07
 198    3.8886948264123e-07
 199    -7.3499485159208e-06
 200    2.2455631212467e-07
 201    -2.3052283915261e-06
 202    1.9688064257479e-05
 203    -1.1353008815878e-05
 204    -5.5163457190279e-06
 205    -3.8021979931767e-07
 206    -2.6118279216854e-05
 207    9.2129986673469e-06
 208    -6.1000935704006e-05
 209    1.0657237099194e-05
 210    -2.5817283769209e-05
 211    6.0633929223404e-06
 212    1.6962679011483e-05
 213    -6.1140272167953e-07
 214    -2.0538281565021e-05
 215    -2.5101788842436e-06
 216    -2.7976576578261e-05
 217    1.3670719879333e-06
 218    8.5949304838613e-06
 219    4.5337417805046e-07
 220    -1.2730808735281e-06
 221    -8.635152186642e-06
 222    -8.296680233046e-05
 223    0.00082898418112037
 224    -1.0515110217693e-05
 225    2.735965012654e-08
 226    1.2239986736551e-05
 227    0.00060357077777799
 228    0.00029603610962831
 229    -0.00088985490196785
 230    1.9153992628255e-06
 231    -4.1507195953598e-05
 232    -2.0524300196325e-05
 233    2.0776745240285e-05
 234    2.1410287765103e-05
 235    -1.4006072153502e-05
 236    -6.4388189203288e-05
 237    -0.00021339543759584
 238    -2.9486132563428e-05
 239    -5.7266696815129e-06
 240    2.9139056950293e-05
 241    0.00026585411963795
 242    0.00033092391958578
 243    -0.0014596506508547
 244    9.0418237515317e-06
 245    6.6657259973397e-05
 246    1.2204647898479e-05
 247    1.7614856127701e-05
 248    -2.5782385265575e-06
 249    -3.4326886097083e-05
 250    0.00029302786466643
 251    4.4613632881652e-06
 252    -0.00040315656888156
 253    0.0020746430090724
 254    5.3917152198984e-05
 255    -3.1537249349764e-05
 256    0.00019998445130362
 257    -1.4527269911282e-05
 258    0.00036664325389856
 259    -0.0017528033838847
 260    -5.8745110930606e-05
 261    -1.6019268814253e-05
 262    -1.30184774723e-05
 263    0.00013319649729987
 264    7.7834541012185e-05
 265    -0.00010111717985704
 266    0.00018714092980362
 267    -0.00012890665683366
 268    -0.00049611699373989
 269    -5.5318641112404e-05
 270    -0.00050541259142162
 271     0.006694478443442
 272    -7.8257997446493e-05
 273    9.8863275034846e-05
 274    0.00011901556536007
 275    -0.0014103896338497
 276    -0.0027372184741112
 277    0.0027318916005526
 278    8.4044454411955e-05
 279    -0.00017159161725219
 280    -9.6842588441944e-05