[Molden Format]
made by pyscf v[2.0.1]
[Atoms] (AU)
C   1   6     0.69100024066471     0.64692934207205    -3.48223131169301
H   2   1     2.68052439830868     1.13355088658700    -3.25784032593313
C   3   6    -0.36286361513219     0.85440132524594    -5.97030179418974
H   4   1    -2.35448549047279     0.36322488579172    -6.17995817793143
C   5   6     0.93697958957450     1.61209284601821    -8.05828437677121
H   6   1     0.30646242799847     3.28538583431710    -9.07979378939352
C   7   6     3.12235401223615     0.31857752265429    -9.01077606594223
H   8   1     3.73232478675010    -1.35404880050347    -7.96675544506269
H   9   1     1.55630230933075    -1.92953025305990    12.99630010416247
C   10   6     0.75233899775814    -2.21270439606481    11.10705728102219
H   11   1    -0.43433408177274    -3.90944857546550    11.22216085340412
C   12   6     2.86362581178706    -2.63237380607947     9.17926416456045
H   13   1     4.39038949912609    -1.24955421540245     9.49899813497433
H   14   1     3.74629220191363    -4.48798724300892     9.47414880959024
C   15   6     2.02478325613682    -2.42177285709634     6.44560829588644
C   16   6     3.88048732735477    -3.58795445234514     4.61402886975252
C   17   6    -0.18412382258602    -1.30464291234259     5.76021113872346
C   18   6    -2.10044360464350    -0.26837831858460     7.71610340967100
C   19   6    -3.08956938670431     2.35282328359417     6.88693925039594
C   20   6    -4.37372924086464    -2.09766595989678     7.93610724222001
C   21   6    -0.83850430601230     0.06372213486173    10.33002307638377
H   22   1     0.38411922151109     1.74281358582432    10.27380136542181
H   23   1    -2.30980003007874     0.45460143924521    11.73986301809809
H   24   1     4.58527064644668    -5.38706904487420     5.36778158031719
H   25   1     5.54944938085014    -2.37631462192748     4.35398898413318
H   26   1     3.06633019150423    -3.94118377050688     2.75255466040884
H   27   1    -4.17727778763735     2.26573369139522     5.12914900961283
H   28   1    -1.52662344944051     3.68001877445626     6.59540397144508
H   29   1    -4.32916174397830     3.13643051467482     8.35225460090378
H   30   1    -5.32329548508442    -2.36691813602939     6.11583672749896
H   31   1    -5.77989366602257    -1.33896741843465     9.25748940450990
H   32   1    -3.79310905208926    -3.96389819310853     8.61386170102686
C   33   6    -1.01100794811226    -1.06331657314144     3.11929490449947
C   34   6     0.37686231036534    -0.33275864505552     1.09165013605873
H   35   1    -3.01671213906703    -1.40297922279997     2.77827895090944
C   36   6    -0.64382707979370    -0.11591880174385    -1.42063131251064
H   37   1     2.35569259782137     0.17174499283897     1.33641070251401
H   38   1    -2.63317482980319    -0.60229203511219    -1.66119700387645
C   39   6     4.47307059082302     1.00138906809445   -11.08105785168909
C   40   6     6.67463726557562    -0.44413475967984   -11.89995199897600
H   41   1     3.96718229655089     2.64690253849906   -12.20539356366280
O   42   8     7.97152342098443     0.06042731610533   -13.73960618931333
H   43   1     7.12379765531873    -2.11255344586070   -10.69379572801653
[GTO]
1 0
 s    6 1.00
             3047.5249  0.0018347001629433
             457.36951    0.01403730124668
             103.94869   0.068842606114048
             29.210155    0.23218442062076
              9.286663    0.46794134155879
              3.163927    0.36231203217765
 s    3 1.00
             7.8682724   -0.11933240861517
             1.8812885   -0.16085421161283
             0.5442493     1.1434564825515
 s    1 1.00
             0.1687144                   1
 p    3 1.00
             7.8682724   0.068999095584993
             1.8812885    0.31642397975315
             0.5442493    0.74430825237435
 p    1 1.00
             0.1687144                   1
 d    1 1.00
                   0.8                   1

2 0
 s    3 1.00
             18.731137    0.03349459952309
             2.8253937    0.23472694665786
             0.6401217    0.81375731841339
 s    1 1.00
             0.1612778                   1

3 0
 s    6 1.00
             3047.5249  0.0018347001629433
             457.36951    0.01403730124668
             103.94869   0.068842606114048
             29.210155    0.23218442062076
              9.286663    0.46794134155879
              3.163927    0.36231203217765
 s    3 1.00
             7.8682724   -0.11933240861517
             1.8812885   -0.16085421161283
             0.5442493     1.1434564825515
 s    1 1.00
             0.1687144                   1
 p    3 1.00
             7.8682724   0.068999095584993
             1.8812885    0.31642397975315
             0.5442493    0.74430825237435
 p    1 1.00
             0.1687144                   1
 d    1 1.00
                   0.8                   1

4 0
 s    3 1.00
             18.731137    0.03349459952309
             2.8253937    0.23472694665786
             0.6401217    0.81375731841339
 s    1 1.00
             0.1612778                   1

5 0
 s    6 1.00
             3047.5249  0.0018347001629433
             457.36951    0.01403730124668
             103.94869   0.068842606114048
             29.210155    0.23218442062076
              9.286663    0.46794134155879
              3.163927    0.36231203217765
 s    3 1.00
             7.8682724   -0.11933240861517
             1.8812885   -0.16085421161283
             0.5442493     1.1434564825515
 s    1 1.00
             0.1687144                   1
 p    3 1.00
             7.8682724   0.068999095584993
             1.8812885    0.31642397975315
             0.5442493    0.74430825237435
 p    1 1.00
             0.1687144                   1
 d    1 1.00
                   0.8                   1

6 0
 s    3 1.00
             18.731137    0.03349459952309
             2.8253937    0.23472694665786
             0.6401217    0.81375731841339
 s    1 1.00
             0.1612778                   1

7 0
 s    6 1.00
             3047.5249  0.0018347001629433
             457.36951    0.01403730124668
             103.94869   0.068842606114048
             29.210155    0.23218442062076
              9.286663    0.46794134155879
              3.163927    0.36231203217765
 s    3 1.00
             7.8682724   -0.11933240861517
             1.8812885   -0.16085421161283
             0.5442493     1.1434564825515
 s    1 1.00
             0.1687144                   1
 p    3 1.00
             7.8682724   0.068999095584993
             1.8812885    0.31642397975315
             0.5442493    0.74430825237435
 p    1 1.00
             0.1687144                   1
 d    1 1.00
                   0.8                   1

8 0
 s    3 1.00
             18.731137    0.03349459952309
             2.8253937    0.23472694665786
             0.6401217    0.81375731841339
 s    1 1.00
             0.1612778                   1

9 0
 s    3 1.00
             18.731137    0.03349459952309
             2.8253937    0.23472694665786
             0.6401217    0.81375731841339
 s    1 1.00
             0.1612778                   1

10 0
 s    6 1.00
             3047.5249  0.0018347001629433
             457.36951    0.01403730124668
             103.94869   0.068842606114048
             29.210155    0.23218442062076
              9.286663    0.46794134155879
              3.163927    0.36231203217765
 s    3 1.00
             7.8682724   -0.11933240861517
             1.8812885   -0.16085421161283
             0.5442493     1.1434564825515
 s    1 1.00
             0.1687144                   1
 p    3 1.00
             7.8682724   0.068999095584993
             1.8812885    0.31642397975315
             0.5442493    0.74430825237435
 p    1 1.00
             0.1687144                   1
 d    1 1.00
                   0.8                   1

11 0
 s    3 1.00
             18.731137    0.03349459952309
             2.8253937    0.23472694665786
             0.6401217    0.81375731841339
 s    1 1.00
             0.1612778                   1

12 0
 s    6 1.00
             3047.5249  0.0018347001629433
             457.36951    0.01403730124668
             103.94869   0.068842606114048
             29.210155    0.23218442062076
              9.286663    0.46794134155879
              3.163927    0.36231203217765
 s    3 1.00
             7.8682724   -0.11933240861517
             1.8812885   -0.16085421161283
             0.5442493     1.1434564825515
 s    1 1.00
             0.1687144                   1
 p    3 1.00
             7.8682724   0.068999095584993
             1.8812885    0.31642397975315
             0.5442493    0.74430825237435
 p    1 1.00
             0.1687144                   1
 d    1 1.00
                   0.8                   1

13 0
 s    3 1.00
             18.731137    0.03349459952309
             2.8253937    0.23472694665786
             0.6401217    0.81375731841339
 s    1 1.00
             0.1612778                   1

14 0
 s    3 1.00
             18.731137    0.03349459952309
             2.8253937    0.23472694665786
             0.6401217    0.81375731841339
 s    1 1.00
             0.1612778                   1

15 0
 s    6 1.00
             3047.5249  0.0018347001629433
             457.36951    0.01403730124668
             103.94869   0.068842606114048
             29.210155    0.23218442062076
              9.286663    0.46794134155879
              3.163927    0.36231203217765
 s    3 1.00
             7.8682724   -0.11933240861517
             1.8812885   -0.16085421161283
             0.5442493     1.1434564825515
 s    1 1.00
             0.1687144                   1
 p    3 1.00
             7.8682724   0.068999095584993
             1.8812885    0.31642397975315
             0.5442493    0.74430825237435
 p    1 1.00
             0.1687144                   1
 d    1 1.00
                   0.8                   1

16 0
 s    6 1.00
             3047.5249  0.0018347001629433
             457.36951    0.01403730124668
             103.94869   0.068842606114048
             29.210155    0.23218442062076
              9.286663    0.46794134155879
              3.163927    0.36231203217765
 s    3 1.00
             7.8682724   -0.11933240861517
             1.8812885   -0.16085421161283
             0.5442493     1.1434564825515
 s    1 1.00
             0.1687144                   1
 p    3 1.00
             7.8682724   0.068999095584993
             1.8812885    0.31642397975315
             0.5442493    0.74430825237435
 p    1 1.00
             0.1687144                   1
 d    1 1.00
                   0.8                   1

17 0
 s    6 1.00
             3047.5249  0.0018347001629433
             457.36951    0.01403730124668
             103.94869   0.068842606114048
             29.210155    0.23218442062076
              9.286663    0.46794134155879
              3.163927    0.36231203217765
 s    3 1.00
             7.8682724   -0.11933240861517
             1.8812885   -0.16085421161283
             0.5442493     1.1434564825515
 s    1 1.00
             0.1687144                   1
 p    3 1.00
             7.8682724   0.068999095584993
             1.8812885    0.31642397975315
             0.5442493    0.74430825237435
 p    1 1.00
             0.1687144                   1
 d    1 1.00
                   0.8                   1

18 0
 s    6 1.00
             3047.5249  0.0018347001629433
             457.36951    0.01403730124668
             103.94869   0.068842606114048
             29.210155    0.23218442062076
              9.286663    0.46794134155879
              3.163927    0.36231203217765
 s    3 1.00
             7.8682724   -0.11933240861517
             1.8812885   -0.16085421161283
             0.5442493     1.1434564825515
 s    1 1.00
             0.1687144                   1
 p    3 1.00
             7.8682724   0.068999095584993
             1.8812885    0.31642397975315
             0.5442493    0.74430825237435
 p    1 1.00
             0.1687144                   1
 d    1 1.00
                   0.8                   1

19 0
 s    6 1.00
             3047.5249  0.0018347001629433
             457.36951    0.01403730124668
             103.94869   0.068842606114048
             29.210155    0.23218442062076
              9.286663    0.46794134155879
              3.163927    0.36231203217765
 s    3 1.00
             7.8682724   -0.11933240861517
             1.8812885   -0.16085421161283
             0.5442493     1.1434564825515
 s    1 1.00
             0.1687144                   1
 p    3 1.00
             7.8682724   0.068999095584993
             1.8812885    0.31642397975315
             0.5442493    0.74430825237435
 p    1 1.00
             0.1687144                   1
 d    1 1.00
                   0.8                   1

20 0
 s    6 1.00
             3047.5249  0.0018347001629433
             457.36951    0.01403730124668
             103.94869   0.068842606114048
             29.210155    0.23218442062076
              9.286663    0.46794134155879
              3.163927    0.36231203217765
 s    3 1.00
             7.8682724   -0.11933240861517
             1.8812885   -0.16085421161283
             0.5442493     1.1434564825515
 s    1 1.00
             0.1687144                   1
 p    3 1.00
             7.8682724   0.068999095584993
             1.8812885    0.31642397975315
             0.5442493    0.74430825237435
 p    1 1.00
             0.1687144                   1
 d    1 1.00
                   0.8                   1

21 0
 s    6 1.00
             3047.5249  0.0018347001629433
             457.36951    0.01403730124668
             103.94869   0.068842606114048
             29.210155    0.23218442062076
              9.286663    0.46794134155879
              3.163927    0.36231203217765
 s    3 1.00
             7.8682724   -0.11933240861517
             1.8812885   -0.16085421161283
             0.5442493     1.1434564825515
 s    1 1.00
             0.1687144                   1
 p    3 1.00
             7.8682724   0.068999095584993
             1.8812885    0.31642397975315
             0.5442493    0.74430825237435
 p    1 1.00
             0.1687144                   1
 d    1 1.00
                   0.8                   1

22 0
 s    3 1.00
             18.731137    0.03349459952309
             2.8253937    0.23472694665786
             0.6401217    0.81375731841339
 s    1 1.00
             0.1612778                   1

23 0
 s    3 1.00
             18.731137    0.03349459952309
             2.8253937    0.23472694665786
             0.6401217    0.81375731841339
 s    1 1.00
             0.1612778                   1

24 0
 s    3 1.00
             18.731137    0.03349459952309
             2.8253937    0.23472694665786
             0.6401217    0.81375731841339
 s    1 1.00
             0.1612778                   1

25 0
 s    3 1.00
             18.731137    0.03349459952309
             2.8253937    0.23472694665786
             0.6401217    0.81375731841339
 s    1 1.00
             0.1612778                   1

26 0
 s    3 1.00
             18.731137    0.03349459952309
             2.8253937    0.23472694665786
             0.6401217    0.81375731841339
 s    1 1.00
             0.1612778                   1

27 0
 s    3 1.00
             18.731137    0.03349459952309
             2.8253937    0.23472694665786
             0.6401217    0.81375731841339
 s    1 1.00
             0.1612778                   1

28 0
 s    3 1.00
             18.731137    0.03349459952309
             2.8253937    0.23472694665786
             0.6401217    0.81375731841339
 s    1 1.00
             0.1612778                   1

29 0
 s    3 1.00
             18.731137    0.03349459952309
             2.8253937    0.23472694665786
             0.6401217    0.81375731841339
 s    1 1.00
             0.1612778                   1

30 0
 s    3 1.00
             18.731137    0.03349459952309
             2.8253937    0.23472694665786
             0.6401217    0.81375731841339
 s    1 1.00
             0.1612778                   1

31 0
 s    3 1.00
             18.731137    0.03349459952309
             2.8253937    0.23472694665786
             0.6401217    0.81375731841339
 s    1 1.00
             0.1612778                   1

32 0
 s    3 1.00
             18.731137    0.03349459952309
             2.8253937    0.23472694665786
             0.6401217    0.81375731841339
 s    1 1.00
             0.1612778                   1

33 0
 s    6 1.00
             3047.5249  0.0018347001629433
             457.36951    0.01403730124668
             103.94869   0.068842606114048
             29.210155    0.23218442062076
              9.286663    0.46794134155879
              3.163927    0.36231203217765
 s    3 1.00
             7.8682724   -0.11933240861517
             1.8812885   -0.16085421161283
             0.5442493     1.1434564825515
 s    1 1.00
             0.1687144                   1
 p    3 1.00
             7.8682724   0.068999095584993
             1.8812885    0.31642397975315
             0.5442493    0.74430825237435
 p    1 1.00
             0.1687144                   1
 d    1 1.00
                   0.8                   1

34 0
 s    6 1.00
             3047.5249  0.0018347001629433
             457.36951    0.01403730124668
             103.94869   0.068842606114048
             29.210155    0.23218442062076
              9.286663    0.46794134155879
              3.163927    0.36231203217765
 s    3 1.00
             7.8682724   -0.11933240861517
             1.8812885   -0.16085421161283
             0.5442493     1.1434564825515
 s    1 1.00
             0.1687144                   1
 p    3 1.00
             7.8682724   0.068999095584993
             1.8812885    0.31642397975315
             0.5442493    0.74430825237435
 p    1 1.00
             0.1687144                   1
 d    1 1.00
                   0.8                   1

35 0
 s    3 1.00
             18.731137    0.03349459952309
             2.8253937    0.23472694665786
             0.6401217    0.81375731841339
 s    1 1.00
             0.1612778                   1

36 0
 s    6 1.00
             3047.5249  0.0018347001629433
             457.36951    0.01403730124668
             103.94869   0.068842606114048
             29.210155    0.23218442062076
              9.286663    0.46794134155879
              3.163927    0.36231203217765
 s    3 1.00
             7.8682724   -0.11933240861517
             1.8812885   -0.16085421161283
             0.5442493     1.1434564825515
 s    1 1.00
             0.1687144                   1
 p    3 1.00
             7.8682724   0.068999095584993
             1.8812885    0.31642397975315
             0.5442493    0.74430825237435
 p    1 1.00
             0.1687144                   1
 d    1 1.00
                   0.8                   1

37 0
 s    3 1.00
             18.731137    0.03349459952309
             2.8253937    0.23472694665786
             0.6401217    0.81375731841339
 s    1 1.00
             0.1612778                   1

38 0
 s    3 1.00
             18.731137    0.03349459952309
             2.8253937    0.23472694665786
             0.6401217    0.81375731841339
 s    1 1.00
             0.1612778                   1

39 0
 s    6 1.00
             3047.5249  0.0018347001629433
             457.36951    0.01403730124668
             103.94869   0.068842606114048
             29.210155    0.23218442062076
              9.286663    0.46794134155879
              3.163927    0.36231203217765
 s    3 1.00
             7.8682724   -0.11933240861517
             1.8812885   -0.16085421161283
             0.5442493     1.1434564825515
 s    1 1.00
             0.1687144                   1
 p    3 1.00
             7.8682724   0.068999095584993
             1.8812885    0.31642397975315
             0.5442493    0.74430825237435
 p    1 1.00
             0.1687144                   1
 d    1 1.00
                   0.8                   1

40 0
 s    6 1.00
             3047.5249  0.0018347001629433
             457.36951    0.01403730124668
             103.94869   0.068842606114048
             29.210155    0.23218442062076
              9.286663    0.46794134155879
              3.163927    0.36231203217765
 s    3 1.00
             7.8682724   -0.11933240861517
             1.8812885   -0.16085421161283
             0.5442493     1.1434564825515
 s    1 1.00
             0.1687144                   1
 p    3 1.00
             7.8682724   0.068999095584993
             1.8812885    0.31642397975315
             0.5442493    0.74430825237435
 p    1 1.00
             0.1687144                   1
 d    1 1.00
                   0.8                   1

41 0
 s    3 1.00
             18.731137    0.03349459952309
             2.8253937    0.23472694665786
             0.6401217    0.81375731841339
 s    1 1.00
             0.1612778                   1

42 0
 s    6 1.00
             5484.6717   0.001831099805527
             825.23495   0.013950098518422
             188.04696    0.06844509273075
               52.9645    0.23271427528445
              16.89757    0.47019295006289
             5.7996353    0.35852086192309
 s    3 1.00
             15.539616   -0.11077750382508
             3.5999336   -0.14802630511126
             1.0137618     1.1307670390447
 s    1 1.00
             0.2700058                   1
 p    3 1.00
             15.539616   0.070874299543311
             3.5999336    0.33975279781076
             1.0137618    0.72715859531445
 p    1 1.00
             0.2700058                   1
 d    1 1.00
                   0.8                   1

43 0
 s    3 1.00
             18.731137    0.03349459952309
             2.8253937    0.23472694665786
             0.6401217    0.81375731841339
 s    1 1.00
             0.1612778                   1

[5d]
[7f]
[9g]

[MO]
 Sym= A
 Ene=               0
 Spin= Alpha
 Occup=    1.00000
   1    0.0030050467197478
   2      0.29538266019348
   3      0.19543961158041
   4    -0.076270682388826
   5    -0.048400296703747
   6      0.14569581878458
   7     0.010631836256291
   8    -0.0070247900986347
   9     0.048221765654073
  10    0.0044359687205777
  11    -0.0062668630847267
  12    -0.0052225125001469
  13    0.0077708607666302
  14     0.005804952273684
  15     0.065827671099263
  16    -0.0020578573717623
  17    -0.0084567071372013
  18     0.045866546850377
  19     0.020476659139757
  20    -0.0066027103201142
  21    -0.011340151281328
  22     0.052221619524568
  23    -0.011417605656114
  24    -0.0074908982728041
  25     0.025310612708798
  26    0.0065396616473054
  27    0.0027548918780953
  28    -0.0018287582576806
  29    0.00095767213549231
  30    1.6043617577598e-05
  31     0.012827575559849
  32    2.3535503789072e-05
  33    0.00044971384668611
  34    0.0028840753173424
  35     0.017253095064449
  36    0.0055451491945076
  37    0.0002744175736386
  38    -0.0090221503070176
  39    -0.0064095560664801
  40    -0.0029508834332386
  41    0.0017799823344704
  42    -0.00025066374131683
  43    -0.0010600982431055
  44    1.9333325219126e-05
  45    0.00049288802241755
  46    -0.0004869052018639
  47    0.0018592035930134
  48    0.00037554686869207
  49    -6.9846971604825e-05
  50       0.0433505452288
  51     0.034450334649836
  52     0.015713303751144
  53    0.0038438431983912
  54    -0.018448819087145
  55    0.0090558470680905
  56    0.00063620215052294
  57    -0.0062097448513749
  58    0.00063106669089565
  59    -0.0011491531367122
  60    -0.001436196212867
  61    -0.00014274072288536
  62    -0.00023394389671978
  63     0.011205547447343
  64    0.0017642786190193
  65    3.8415796017018e-05
  66    3.8460479758034e-05
  67    1.8706619767767e-05
  68    1.8347058137675e-05
  69    -0.00040075969344898
  70    -5.1970709935146e-05
  71    7.1178986102891e-06
  72    2.8482056265698e-05
  73    0.00019975988919935
  74    0.00043893351175353
  75    0.00021544370926076
  76    2.7011487900584e-05
  77    1.5517713464703e-05
  78    -1.1319760535654e-05
  79    -7.0373020210128e-06
  80    1.2162038450008e-05
  81    1.3039495558798e-05
  82    0.00037167564380726
  83    -1.5878396359668e-05
  84    0.00013765472077384
  85    0.0011169784200916
  86    -0.00011648232194473
  87    0.00011800075257789
  88    -0.00026646292041503
  89    -0.00041021181980247
  90    -0.00044275416312635
  91    -0.00042807267980832
  92    -1.154974726518e-05
  93    3.9513365515084e-05
  94    4.9371591516708e-06
  95    8.2495696183317e-07
  96    5.3497427119588e-06
  97    5.6300240475623e-05
  98    0.00028990224074465
  99    -0.00011135141558909
 100    -0.0002516669629116
 101    5.2242221977293e-05
 102    -3.5744065808409e-06
 103    -0.00086104334873688
 104    -0.00029213141974315
 105    -0.0002233033460194
 106    0.00036049696085516
 107    0.0024665982119897
 108    -0.0011161951842212
 109    -0.0031635055320741
 110    3.6770742648932e-05
 111    8.4856172879657e-05
 112    -3.0946229202801e-05
 113    -5.8083305880223e-05
 114    3.5725449649004e-05
 115    8.5064823989372e-05
 116    -0.00017927566541329
 117    -0.0022791787524329
 118     0.000119551543651
 119    -0.00035602859957354
 120    1.9212357650832e-05
 121    0.00052804683204402
 122    -0.00022924681299032
 123    -0.0015592541395125
 124    1.3029580285747e-05
 125    3.6438736770086e-05
 126    -6.0923141199818e-05
 127    5.6203737332971e-06
 128    2.5753017581805e-05
 129    -8.8223874319056e-06
 130    0.0007525963926533
 131    -0.011401502250104
 132    -0.00019014790018183
 133    -0.00014300811367793
 134    -0.00072460174030714
 135    0.0015608636161964
 136    -0.0012161371670229
 137     0.012508193692953
 138    -0.00040010958585996
 139     8.97149213849e-05
 140    8.9802225987774e-05
 141    4.1784200210876e-05
 142    6.1687983429006e-05
 143    9.3309847818259e-05
 144    -7.8118894001086e-05
 145    -0.0024402086049179
 146    -2.6031118335393e-05
 147    0.00014773463149765
 148    0.00050954452277656
 149    -0.0028289853971035
 150     0.001615556371642
 151    -0.001891300999404
 152    9.820059341409e-05
 153    -2.3971324796469e-05
 154    -3.8762460874456e-05
 155    -6.0623872752214e-05
 156    5.9228065296796e-05
 157    3.2234516769597e-05
 158    0.00012789014587959
 159    -0.0015737888392175
 160    5.3387593203112e-05
 161    1.9446077064077e-05
 162    -1.0623669592342e-05
 163    0.00010999840123165
 164    0.00089583169593399
 165    0.0002442617834886
 166    2.6383149213274e-05
 167    -6.0214005047324e-06
 168    2.8704588141388e-06
 169    5.2113431181588e-05
 170    -7.6000902594229e-06
 171    1.2243720960448e-05
 172    -0.00022739792990956
 173    0.00029320406122838
 174    -1.4180591636215e-05
 175    1.8260534165943e-05
 176     0.000271766082166
 177    0.00037058100021429
 178    -0.00071722776918957
 179    -9.1769917843602e-05
 180    4.9614437112359e-06
 181    5.7678197558861e-05
 182    2.0476817520079e-05
 183    3.2447610558134e-05
 184    -8.0323880671706e-06
 185    -2.1587213951018e-05
 186    6.3525785783775e-05
 187    0.0017120059906775
 188    -2.1195535163677e-06
 189    -5.6225761008032e-05
 190    -0.00031893197473137
 191    -0.00098906238187128
 192    -0.00039167232907019
 193    -0.0005290619925681
 194    1.7410839034415e-05
 195    4.572325007985e-05
 196    2.2404754568006e-05
 197    -7.009919772167e-06
 198    2.4902044054402e-05
 199    5.0947776632714e-06
 200    0.00033279912678774
 201    -0.0001390482976753
 202    -0.00053570595900671
 203    0.0001582813759437
 204    0.00064010799515059
 205    -0.00012843111718194
 206    4.7212447760612e-06
 207    0.00013112829966442
 208    -0.00090971664519187
 209    8.9105841309809e-05
 210    0.00022872415898098
 211    3.1867853534625e-05
 212    -8.0131126943395e-05
 213    1.6514675716058e-05
 214    -0.00016535532867778
 215    -2.7454012134051e-05
 216    -0.00061601067703848
 217    4.1278524119694e-05
 218    0.00037370738194964
 219    -1.0159683516301e-05
 220    -0.00043392156230327
 221    0.0012370809802402
 222    -0.0028678656018995
 223     0.023087700982907
 224    -0.0016927512088978
 225    -0.00055415370299469
 226    0.0030876695212243
 227     0.016293348767037
 228    0.0024313970238673
 229    0.0090740079589137
 230    0.00023842928830394
 231    -0.00015988548202222
 232    -0.00017011946306423
 233    0.00011541597627407
 234    0.00014398568116256
 235    -0.0081488556689784
 236     0.043150682089269
 237     0.019879592238527
 238    0.0064358680395611
 239     0.010954396844413
 240    -0.048290266308074
 241    0.0075748993074508
 242    0.0073707158869319
 243    -0.028859509282332
 244    0.0065219465925407
 245    0.0024140894756261
 246    -0.0017736479729897
 247    0.00095660349630799
 248    0.00015442372443042
 249    0.00078437463922756
 250    0.0081766582429067
 251    0.0015646482698569
 252      0.29396572903279
 253      0.18435459743634
 254     0.078825047717514
 255     0.049530082326465
 256     -0.14804126516829
 257    -0.012646289291743
 258    0.0051026845689972
 259    -0.046171404725622
 260    0.0042541646846723
 261    -0.0061685519110639
 262    -0.0052587151441992
 263    0.0074298135303309
 264    0.0060127516880186
 265     0.011971413478437
 266    0.0018094864914325
 267     0.063747724200606
 268    -0.0040502467408247
 269    0.0010084916224565
 270     0.043163460303554
 271     0.021233001519411
 272    -0.011039711138543
 273    -0.0055938559049483
 274     0.019780511453621
 275    -0.0040584762382193
 276      0.00481954109697
 277     0.001002542930184
 278    0.00062408023462598
 279    -0.001170400356468
 280    -0.0013500348448861
 281    -8.2235031189212e-05
 282    -0.00021653683947959
 283    -0.0018351054224161
 284    0.0087507552900288
 285    0.0075324914747916