[Molden Format]
made by pyscf v[2.0.1]
[Atoms] (AU)
C   1   6     0.69100024066471     0.64692934207205    -3.48223131169301
H   2   1     2.68052439830868     1.13355088658700    -3.25784032593313
C   3   6    -0.36286361513219     0.85440132524594    -5.97030179418974
H   4   1    -2.35448549047279     0.36322488579172    -6.17995817793143
C   5   6     0.93697958957450     1.61209284601821    -8.05828437677121
H   6   1     1.25179717896080     3.62344259528190    -8.36861463213972
C   7   6     1.93299030663405    -0.10622024085708    -9.90534865945394
H   8   1     1.60367989661651    -2.11561190296467    -9.56827000221191
H   9   1     1.55630230933075    -1.92953025305990    12.99630010416247
C   10   6     0.75233899775814    -2.21270439606481    11.10705728102219
H   11   1    -0.43433408177274    -3.90944857546550    11.22216085340412
C   12   6     2.86362581178706    -2.63237380607947     9.17926416456045
H   13   1     4.39038949912609    -1.24955421540245     9.49899813497433
H   14   1     3.74629220191363    -4.48798724300892     9.47414880959024
C   15   6     2.02478325613682    -2.42177285709634     6.44560829588644
C   16   6     3.88048732735477    -3.58795445234514     4.61402886975252
C   17   6    -0.18412382258602    -1.30464291234259     5.76021113872346
C   18   6    -2.10044360464350    -0.26837831858460     7.71610340967100
C   19   6    -3.08956938670431     2.35282328359417     6.88693925039594
C   20   6    -4.37372924086464    -2.09766595989678     7.93610724222001
C   21   6    -0.83850430601230     0.06372213486173    10.33002307638377
H   22   1     0.38411922151109     1.74281358582432    10.27380136542181
H   23   1    -2.30980003007874     0.45460143924521    11.73986301809809
H   24   1     4.58527064644668    -5.38706904487420     5.36778158031719
H   25   1     5.54944938085014    -2.37631462192748     4.35398898413318
H   26   1     3.06633019150423    -3.94118377050688     2.75255466040884
H   27   1    -4.17727778763735     2.26573369139522     5.12914900961283
H   28   1    -1.52662344944051     3.68001877445626     6.59540397144508
H   29   1    -4.32916174397830     3.13643051467482     8.35225460090378
H   30   1    -5.32329548508442    -2.36691813602939     6.11583672749896
H   31   1    -5.77989366602257    -1.33896741843465     9.25748940450990
H   32   1    -3.79310905208926    -3.96389819310853     8.61386170102686
C   33   6    -1.01100794811226    -1.06331657314144     3.11929490449947
C   34   6     0.37686231036534    -0.33275864505552     1.09165013605873
H   35   1    -3.01671213906703    -1.40297922279997     2.77827895090944
C   36   6    -0.64382707979370    -0.11591880174385    -1.42063131251064
H   37   1     2.35569259782137     0.17174499283897     1.33641070251401
H   38   1    -2.63317482980319    -0.60229203511219    -1.66119700387645
C   39   6     3.23483881481583     0.56109494848388   -12.01167590238676
C   40   6     4.17213386166354    -1.33546547775814   -13.78129708499957
H   41   1     3.62751071831436     2.52907164005278   -12.45960989181140
O   42   8     5.35190984410731    -0.86987395658954   -15.70799822813352
H   43   1     3.72751838268070    -3.32497850208065   -13.24806737881206
[GTO]
1 0
 s    6 1.00
             3047.5249  0.0018347001629433
             457.36951    0.01403730124668
             103.94869   0.068842606114048
             29.210155    0.23218442062076
              9.286663    0.46794134155879
              3.163927    0.36231203217765
 s    3 1.00
             7.8682724   -0.11933240861517
             1.8812885   -0.16085421161283
             0.5442493     1.1434564825515
 s    1 1.00
             0.1687144                   1
 p    3 1.00
             7.8682724   0.068999095584993
             1.8812885    0.31642397975315
             0.5442493    0.74430825237435
 p    1 1.00
             0.1687144                   1
 d    1 1.00
                   0.8                   1

2 0
 s    3 1.00
             18.731137    0.03349459952309
             2.8253937    0.23472694665786
             0.6401217    0.81375731841339
 s    1 1.00
             0.1612778                   1

3 0
 s    6 1.00
             3047.5249  0.0018347001629433
             457.36951    0.01403730124668
             103.94869   0.068842606114048
             29.210155    0.23218442062076
              9.286663    0.46794134155879
              3.163927    0.36231203217765
 s    3 1.00
             7.8682724   -0.11933240861517
             1.8812885   -0.16085421161283
             0.5442493     1.1434564825515
 s    1 1.00
             0.1687144                   1
 p    3 1.00
             7.8682724   0.068999095584993
             1.8812885    0.31642397975315
             0.5442493    0.74430825237435
 p    1 1.00
             0.1687144                   1
 d    1 1.00
                   0.8                   1

4 0
 s    3 1.00
             18.731137    0.03349459952309
             2.8253937    0.23472694665786
             0.6401217    0.81375731841339
 s    1 1.00
             0.1612778                   1

5 0
 s    6 1.00
             3047.5249  0.0018347001629433
             457.36951    0.01403730124668
             103.94869   0.068842606114048
             29.210155    0.23218442062076
              9.286663    0.46794134155879
              3.163927    0.36231203217765
 s    3 1.00
             7.8682724   -0.11933240861517
             1.8812885   -0.16085421161283
             0.5442493     1.1434564825515
 s    1 1.00
             0.1687144                   1
 p    3 1.00
             7.8682724   0.068999095584993
             1.8812885    0.31642397975315
             0.5442493    0.74430825237435
 p    1 1.00
             0.1687144                   1
 d    1 1.00
                   0.8                   1

6 0
 s    3 1.00
             18.731137    0.03349459952309
             2.8253937    0.23472694665786
             0.6401217    0.81375731841339
 s    1 1.00
             0.1612778                   1

7 0
 s    6 1.00
             3047.5249  0.0018347001629433
             457.36951    0.01403730124668
             103.94869   0.068842606114048
             29.210155    0.23218442062076
              9.286663    0.46794134155879
              3.163927    0.36231203217765
 s    3 1.00
             7.8682724   -0.11933240861517
             1.8812885   -0.16085421161283
             0.5442493     1.1434564825515
 s    1 1.00
             0.1687144                   1
 p    3 1.00
             7.8682724   0.068999095584993
             1.8812885    0.31642397975315
             0.5442493    0.74430825237435
 p    1 1.00
             0.1687144                   1
 d    1 1.00
                   0.8                   1

8 0
 s    3 1.00
             18.731137    0.03349459952309
             2.8253937    0.23472694665786
             0.6401217    0.81375731841339
 s    1 1.00
             0.1612778                   1

9 0
 s    3 1.00
             18.731137    0.03349459952309
             2.8253937    0.23472694665786
             0.6401217    0.81375731841339
 s    1 1.00
             0.1612778                   1

10 0
 s    6 1.00
             3047.5249  0.0018347001629433
             457.36951    0.01403730124668
             103.94869   0.068842606114048
             29.210155    0.23218442062076
              9.286663    0.46794134155879
              3.163927    0.36231203217765
 s    3 1.00
             7.8682724   -0.11933240861517
             1.8812885   -0.16085421161283
             0.5442493     1.1434564825515
 s    1 1.00
             0.1687144                   1
 p    3 1.00
             7.8682724   0.068999095584993
             1.8812885    0.31642397975315
             0.5442493    0.74430825237435
 p    1 1.00
             0.1687144                   1
 d    1 1.00
                   0.8                   1

11 0
 s    3 1.00
             18.731137    0.03349459952309
             2.8253937    0.23472694665786
             0.6401217    0.81375731841339
 s    1 1.00
             0.1612778                   1

12 0
 s    6 1.00
             3047.5249  0.0018347001629433
             457.36951    0.01403730124668
             103.94869   0.068842606114048
             29.210155    0.23218442062076
              9.286663    0.46794134155879
              3.163927    0.36231203217765
 s    3 1.00
             7.8682724   -0.11933240861517
             1.8812885   -0.16085421161283
             0.5442493     1.1434564825515
 s    1 1.00
             0.1687144                   1
 p    3 1.00
             7.8682724   0.068999095584993
             1.8812885    0.31642397975315
             0.5442493    0.74430825237435
 p    1 1.00
             0.1687144                   1
 d    1 1.00
                   0.8                   1

13 0
 s    3 1.00
             18.731137    0.03349459952309
             2.8253937    0.23472694665786
             0.6401217    0.81375731841339
 s    1 1.00
             0.1612778                   1

14 0
 s    3 1.00
             18.731137    0.03349459952309
             2.8253937    0.23472694665786
             0.6401217    0.81375731841339
 s    1 1.00
             0.1612778                   1

15 0
 s    6 1.00
             3047.5249  0.0018347001629433
             457.36951    0.01403730124668
             103.94869   0.068842606114048
             29.210155    0.23218442062076
              9.286663    0.46794134155879
              3.163927    0.36231203217765
 s    3 1.00
             7.8682724   -0.11933240861517
             1.8812885   -0.16085421161283
             0.5442493     1.1434564825515
 s    1 1.00
             0.1687144                   1
 p    3 1.00
             7.8682724   0.068999095584993
             1.8812885    0.31642397975315
             0.5442493    0.74430825237435
 p    1 1.00
             0.1687144                   1
 d    1 1.00
                   0.8                   1

16 0
 s    6 1.00
             3047.5249  0.0018347001629433
             457.36951    0.01403730124668
             103.94869   0.068842606114048
             29.210155    0.23218442062076
              9.286663    0.46794134155879
              3.163927    0.36231203217765
 s    3 1.00
             7.8682724   -0.11933240861517
             1.8812885   -0.16085421161283
             0.5442493     1.1434564825515
 s    1 1.00
             0.1687144                   1
 p    3 1.00
             7.8682724   0.068999095584993
             1.8812885    0.31642397975315
             0.5442493    0.74430825237435
 p    1 1.00
             0.1687144                   1
 d    1 1.00
                   0.8                   1

17 0
 s    6 1.00
             3047.5249  0.0018347001629433
             457.36951    0.01403730124668
             103.94869   0.068842606114048
             29.210155    0.23218442062076
              9.286663    0.46794134155879
              3.163927    0.36231203217765
 s    3 1.00
             7.8682724   -0.11933240861517
             1.8812885   -0.16085421161283
             0.5442493     1.1434564825515
 s    1 1.00
             0.1687144                   1
 p    3 1.00
             7.8682724   0.068999095584993
             1.8812885    0.31642397975315
             0.5442493    0.74430825237435
 p    1 1.00
             0.1687144                   1
 d    1 1.00
                   0.8                   1

18 0
 s    6 1.00
             3047.5249  0.0018347001629433
             457.36951    0.01403730124668
             103.94869   0.068842606114048
             29.210155    0.23218442062076
              9.286663    0.46794134155879
              3.163927    0.36231203217765
 s    3 1.00
             7.8682724   -0.11933240861517
             1.8812885   -0.16085421161283
             0.5442493     1.1434564825515
 s    1 1.00
             0.1687144                   1
 p    3 1.00
             7.8682724   0.068999095584993
             1.8812885    0.31642397975315
             0.5442493    0.74430825237435
 p    1 1.00
             0.1687144                   1
 d    1 1.00
                   0.8                   1

19 0
 s    6 1.00
             3047.5249  0.0018347001629433
             457.36951    0.01403730124668
             103.94869   0.068842606114048
             29.210155    0.23218442062076
              9.286663    0.46794134155879
              3.163927    0.36231203217765
 s    3 1.00
             7.8682724   -0.11933240861517
             1.8812885   -0.16085421161283
             0.5442493     1.1434564825515
 s    1 1.00
             0.1687144                   1
 p    3 1.00
             7.8682724   0.068999095584993
             1.8812885    0.31642397975315
             0.5442493    0.74430825237435
 p    1 1.00
             0.1687144                   1
 d    1 1.00
                   0.8                   1

20 0
 s    6 1.00
             3047.5249  0.0018347001629433
             457.36951    0.01403730124668
             103.94869   0.068842606114048
             29.210155    0.23218442062076
              9.286663    0.46794134155879
              3.163927    0.36231203217765
 s    3 1.00
             7.8682724   -0.11933240861517
             1.8812885   -0.16085421161283
             0.5442493     1.1434564825515
 s    1 1.00
             0.1687144                   1
 p    3 1.00
             7.8682724   0.068999095584993
             1.8812885    0.31642397975315
             0.5442493    0.74430825237435
 p    1 1.00
             0.1687144                   1
 d    1 1.00
                   0.8                   1

21 0
 s    6 1.00
             3047.5249  0.0018347001629433
             457.36951    0.01403730124668
             103.94869   0.068842606114048
             29.210155    0.23218442062076
              9.286663    0.46794134155879
              3.163927    0.36231203217765
 s    3 1.00
             7.8682724   -0.11933240861517
             1.8812885   -0.16085421161283
             0.5442493     1.1434564825515
 s    1 1.00
             0.1687144                   1
 p    3 1.00
             7.8682724   0.068999095584993
             1.8812885    0.31642397975315
             0.5442493    0.74430825237435
 p    1 1.00
             0.1687144                   1
 d    1 1.00
                   0.8                   1

22 0
 s    3 1.00
             18.731137    0.03349459952309
             2.8253937    0.23472694665786
             0.6401217    0.81375731841339
 s    1 1.00
             0.1612778                   1

23 0
 s    3 1.00
             18.731137    0.03349459952309
             2.8253937    0.23472694665786
             0.6401217    0.81375731841339
 s    1 1.00
             0.1612778                   1

24 0
 s    3 1.00
             18.731137    0.03349459952309
             2.8253937    0.23472694665786
             0.6401217    0.81375731841339
 s    1 1.00
             0.1612778                   1

25 0
 s    3 1.00
             18.731137    0.03349459952309
             2.8253937    0.23472694665786
             0.6401217    0.81375731841339
 s    1 1.00
             0.1612778                   1

26 0
 s    3 1.00
             18.731137    0.03349459952309
             2.8253937    0.23472694665786
             0.6401217    0.81375731841339
 s    1 1.00
             0.1612778                   1

27 0
 s    3 1.00
             18.731137    0.03349459952309
             2.8253937    0.23472694665786
             0.6401217    0.81375731841339
 s    1 1.00
             0.1612778                   1

28 0
 s    3 1.00
             18.731137    0.03349459952309
             2.8253937    0.23472694665786
             0.6401217    0.81375731841339
 s    1 1.00
             0.1612778                   1

29 0
 s    3 1.00
             18.731137    0.03349459952309
             2.8253937    0.23472694665786
             0.6401217    0.81375731841339
 s    1 1.00
             0.1612778                   1

30 0
 s    3 1.00
             18.731137    0.03349459952309
             2.8253937    0.23472694665786
             0.6401217    0.81375731841339
 s    1 1.00
             0.1612778                   1

31 0
 s    3 1.00
             18.731137    0.03349459952309
             2.8253937    0.23472694665786
             0.6401217    0.81375731841339
 s    1 1.00
             0.1612778                   1

32 0
 s    3 1.00
             18.731137    0.03349459952309
             2.8253937    0.23472694665786
             0.6401217    0.81375731841339
 s    1 1.00
             0.1612778                   1

33 0
 s    6 1.00
             3047.5249  0.0018347001629433
             457.36951    0.01403730124668
             103.94869   0.068842606114048
             29.210155    0.23218442062076
              9.286663    0.46794134155879
              3.163927    0.36231203217765
 s    3 1.00
             7.8682724   -0.11933240861517
             1.8812885   -0.16085421161283
             0.5442493     1.1434564825515
 s    1 1.00
             0.1687144                   1
 p    3 1.00
             7.8682724   0.068999095584993
             1.8812885    0.31642397975315
             0.5442493    0.74430825237435
 p    1 1.00
             0.1687144                   1
 d    1 1.00
                   0.8                   1

34 0
 s    6 1.00
             3047.5249  0.0018347001629433
             457.36951    0.01403730124668
             103.94869   0.068842606114048
             29.210155    0.23218442062076
              9.286663    0.46794134155879
              3.163927    0.36231203217765
 s    3 1.00
             7.8682724   -0.11933240861517
             1.8812885   -0.16085421161283
             0.5442493     1.1434564825515
 s    1 1.00
             0.1687144                   1
 p    3 1.00
             7.8682724   0.068999095584993
             1.8812885    0.31642397975315
             0.5442493    0.74430825237435
 p    1 1.00
             0.1687144                   1
 d    1 1.00
                   0.8                   1

35 0
 s    3 1.00
             18.731137    0.03349459952309
             2.8253937    0.23472694665786
             0.6401217    0.81375731841339
 s    1 1.00
             0.1612778                   1

36 0
 s    6 1.00
             3047.5249  0.0018347001629433
             457.36951    0.01403730124668
             103.94869   0.068842606114048
             29.210155    0.23218442062076
              9.286663    0.46794134155879
              3.163927    0.36231203217765
 s    3 1.00
             7.8682724   -0.11933240861517
             1.8812885   -0.16085421161283
             0.5442493     1.1434564825515
 s    1 1.00
             0.1687144                   1
 p    3 1.00
             7.8682724   0.068999095584993
             1.8812885    0.31642397975315
             0.5442493    0.74430825237435
 p    1 1.00
             0.1687144                   1
 d    1 1.00
                   0.8                   1

37 0
 s    3 1.00
             18.731137    0.03349459952309
             2.8253937    0.23472694665786
             0.6401217    0.81375731841339
 s    1 1.00
             0.1612778                   1

38 0
 s    3 1.00
             18.731137    0.03349459952309
             2.8253937    0.23472694665786
             0.6401217    0.81375731841339
 s    1 1.00
             0.1612778                   1

39 0
 s    6 1.00
             3047.5249  0.0018347001629433
             457.36951    0.01403730124668
             103.94869   0.068842606114048
             29.210155    0.23218442062076
              9.286663    0.46794134155879
              3.163927    0.36231203217765
 s    3 1.00
             7.8682724   -0.11933240861517
             1.8812885   -0.16085421161283
             0.5442493     1.1434564825515
 s    1 1.00
             0.1687144                   1
 p    3 1.00
             7.8682724   0.068999095584993
             1.8812885    0.31642397975315
             0.5442493    0.74430825237435
 p    1 1.00
             0.1687144                   1
 d    1 1.00
                   0.8                   1

40 0
 s    6 1.00
             3047.5249  0.0018347001629433
             457.36951    0.01403730124668
             103.94869   0.068842606114048
             29.210155    0.23218442062076
              9.286663    0.46794134155879
              3.163927    0.36231203217765
 s    3 1.00
             7.8682724   -0.11933240861517
             1.8812885   -0.16085421161283
             0.5442493     1.1434564825515
 s    1 1.00
             0.1687144                   1
 p    3 1.00
             7.8682724   0.068999095584993
             1.8812885    0.31642397975315
             0.5442493    0.74430825237435
 p    1 1.00
             0.1687144                   1
 d    1 1.00
                   0.8                   1

41 0
 s    3 1.00
             18.731137    0.03349459952309
             2.8253937    0.23472694665786
             0.6401217    0.81375731841339
 s    1 1.00
             0.1612778                   1

42 0
 s    6 1.00
             5484.6717   0.001831099805527
             825.23495   0.013950098518422
             188.04696    0.06844509273075
               52.9645    0.23271427528445
              16.89757    0.47019295006289
             5.7996353    0.35852086192309
 s    3 1.00
             15.539616   -0.11077750382508
             3.5999336   -0.14802630511126
             1.0137618     1.1307670390447
 s    1 1.00
             0.2700058                   1
 p    3 1.00
             15.539616   0.070874299543311
             3.5999336    0.33975279781076
             1.0137618    0.72715859531445
 p    1 1.00
             0.2700058                   1
 d    1 1.00
                   0.8                   1

43 0
 s    3 1.00
             18.731137    0.03349459952309
             2.8253937    0.23472694665786
             0.6401217    0.81375731841339
 s    1 1.00
             0.1612778                   1

[5d]
[7f]
[9g]

[MO]
 Sym= A
 Ene=               0
 Spin= Alpha
 Occup=    1.00000
   1    0.0030574227544885
   2       0.2978358002947
   3      0.19603382105062
   4    -0.076085727614437
   5    -0.050141593707005
   6      0.14663803700831
   7     0.011071365982453
   8    -0.0068997435437432
   9     0.048507122137402
  10    0.0046532256049552
  11    -0.0063064825629056
  12    -0.0053489280885947
  13    0.0075440167187189
  14    0.0063197892559866
  15     0.066340129193631
  16    -0.0022534065171247
  17    -0.0086859888082562
  18     0.046454766973416
  19     0.021796111591778
  20    -0.0059490369741661
  21     -0.01202772108496
  22     0.052560572570665
  23    -0.011423741266173
  24    -0.0075470898992794
  25     0.025577979108305
  26    0.0064340728370584
  27    0.0028101419124312
  28    -0.0017284897950662
  29    0.0008623193862904
  30    0.00012434729222202
  31     0.012862262561855
  32    -6.161990375106e-05
  33    0.00095350427723993
  34    -0.00035364172906869
  35     0.018194233207543
  36     0.002079893546114
  37    0.0010939388251907
  38    -0.0074164642881886
  39    -0.0056876567049089
  40    -0.0058265414540189
  41    4.4731586633485e-05
  42    0.00017150464052159
  43    -0.0007871113971492
  44    0.00033414572570131
  45    -7.8370812598106e-05
  46    -4.8528628091322e-05
  47    0.0014731065276652
  48    0.0031617867964414
  49    -0.0003233845781346
  50     0.024586889918091
  51      0.01248353078487
  52    0.0072585003852153
  53    0.0012182875928025
  54    -0.012363004233993
  55    0.0047292964890749
  56    -0.0030835753348009
  57    -0.0063596561044322
  58    0.00013979165047734
  59    -0.00071294957242095
  60    -0.00049719352519217
  61    -0.00041543199193558
  62    0.00042021974240717
  63    0.0062807134408543
  64    0.0012702395147175
  65    2.6165846736871e-05
  66    -2.7474019625696e-05
  67    1.0282839548235e-05
  68    4.987603963168e-05
  69    -0.00040350825834458
  70    -7.1549827360134e-06
  71    -1.8377599071731e-05
  72    -6.1723382282451e-06
  73    0.00026284961206848
  74    0.00035147746985438
  75    0.0002737291907196
  76    2.7093346150792e-05
  77    1.146006033448e-05
  78    -1.0128860686447e-05
  79    -8.4964623929154e-06
  80    9.6008823921497e-06
  81    8.3601366111969e-06
  82    0.00031801180207526
  83    -2.8684206461595e-05
  84    0.00015348577175363
  85    0.0013024284808206
  86    -0.00018738099494562
  87    7.741761181145e-05
  88    -0.00030682080889306
  89    -0.0004545438330271
  90    -0.0004067918325179
  91    -0.00054738399197467
  92    -3.4133074606356e-06
  93    2.4020419919372e-05
  94    -1.3637684608691e-05
  95    -6.4139945260428e-06
  96    -9.6067353081225e-06
  97    -6.7608270871598e-05
  98    4.2677563167842e-05
  99    -5.5079788833142e-05
 100    -0.00012929058412821
 101    8.9409224633182e-05
 102    -7.6348866095546e-05
 103    -0.0011428511049456
 104    7.0604056640588e-05
 105    0.00022767283833226
 106    0.0003843426970952
 107    0.0026586447511704
 108    -0.00065132176984127
 109    -0.0032421141801711
 110    3.8940682011978e-05
 111    9.1411160555424e-05
 112    -3.3314666410661e-05
 113    -6.4525754915302e-05
 114    2.9399183829365e-05
 115    9.5349354272412e-05
 116    -0.00021872745097432
 117    -0.0023115333633422
 118    0.00012813753914038
 119    -0.00040178332556764
 120    7.1273037933605e-05
 121    0.0004827029656846
 122    -0.00016133710634293
 123    -0.001451895064923
 124    1.5093733277088e-05
 125     4.96595583344e-05
 126    -5.2440109884265e-05
 127    -1.1447191946316e-05
 128    9.6209491039713e-06
 129    -1.0416291190779e-05
 130    0.00077215519208191
 131    -0.011450494695934
 132    -0.00022748281273945
 133    -8.1533952491661e-05
 134    -0.00072697281821564
 135    0.0015273621087985
 136    -0.0011851439727876
 137     0.012529003200609
 138    -0.00038746390659734
 139    7.6622959830764e-05
 140    0.0001435627658467
 141    6.2597891603211e-05
 142    9.2931351050775e-05
 143    6.0327250033002e-05
 144    -1.1296231040968e-05
 145    -0.0022531244333309
 146    6.9835350092938e-05
 147    0.00012418648404216
 148    0.00036444226321368
 149    -0.0027319194062929
 150    0.0017251325536312
 151    -0.0020356536867096
 152    9.1746442081675e-05
 153    -2.8230673067098e-05
 154    -3.9071708587295e-05
 155    -5.8832788188868e-05
 156    5.7661005115938e-05
 157    1.3429825924258e-05
 158    0.00018346325812823
 159    -0.0015581090363609
 160    3.6803131068614e-05
 161    1.0044732212709e-05
 162    -9.6789832099583e-05
 163    7.9770102684551e-06
 164    0.00098046550051486
 165    0.0002226614972352
 166    2.0701826589125e-05
 167    2.6703903868157e-06
 168    -6.3703663639579e-07
 169    5.4302219194607e-05
 170    -7.4299818437181e-06
 171    1.2277581743575e-05
 172    -0.0002364543176607
 173    0.00037238670118601
 174    -2.0760186909688e-05
 175    6.984407021921e-06
 176    0.00029607499278837
 177    0.00040516209735902
 178    -0.00074580228055973
 179    -7.779773557135e-05
 180    3.6868920898722e-06
 181    5.1858201297101e-05
 182    1.9076944614942e-05
 183    3.4805529604917e-05
 184    -8.1590111252333e-06
 185    -1.3439844455819e-05
 186    3.3189786489879e-05
 187    0.0017416908039406
 188    2.7910667929476e-06
 189    -5.1203040616767e-05
 190    -0.0002521549437653
 191    -0.00092838199147389
 192    -0.0004581652771463
 193    -0.00049959793261142
 194    2.1487043804272e-05
 195    3.8490974047297e-05
 196    2.5833528500462e-05
 197    -6.0252593529617e-06
 198    2.1863572531594e-05
 199    -1.570016928277e-05
 200    0.00031474908107272
 201    -9.0190475344313e-05
 202    -0.00041913440467454
 203    0.00024249552030471
 204    0.00083602624332501
 205    -0.00023020779728048
 206    -0.0001805271170267
 207    0.00014649065260479
 208    -0.00074063702466699
 209    0.00013087284970191
 210    0.00021623060400126
 211    4.3957543992029e-05
 212    -9.9893918136952e-05
 213    -1.871779100409e-05
 214    -0.00027215829871019
 215    -5.2234709137232e-05
 216    -0.00064644717878914
 217    6.4460226502426e-05
 218     0.000425512472614
 219    -1.0349773480736e-05
 220    -0.00048057783075521
 221    0.0012630516350383
 222    -0.0029251087091262
 223     0.023011556942071
 224    -0.0014743262366474
 225    -0.0016623077460955
 226    0.0029500736738333
 227     0.016544612918219
 228    0.0013643294594115
 229    0.0088686370884439
 230    0.00024499922428486
 231    -0.00016480924463561
 232    -0.00017273496072508
 233    0.0001209453299577
 234    0.00013965515732136
 235    -0.0082249317837279
 236     0.043594241808901
 237     0.019779805750059
 238    0.0064262911364283
 239     0.011374615032324
 240    -0.048670974492748
 241     0.007546963231887
 242    0.0077724123596503
 243    -0.028699382604716
 244    0.0064907804241137
 245    0.0024681112046219
 246    -0.0018889982241999
 247    0.00095310019332934
 248    0.00012439938528934
 249    0.00076750773688708
 250    0.0082305632572624
 251    0.0015537483551331
 252       0.2964441992063
 253      0.18581178256266
 254     0.079093002953818
 255     0.051506666029166
 256     -0.14894969759851
 257    -0.012774143315551
 258    0.0066172012786034
 259    -0.045748050296168
 260    0.0044501165631733
 261    -0.0064439542499521
 262    -0.0050190918134119
 263    0.0076869331765001
 264    0.0059082873480455
 265     0.012146679664887
 266    0.0018933608979716
 267     0.064247864742436
 268    -0.0037814701659717
 269     0.001136911572608
 270     0.025723823954984
 271      0.01407595918183
 272    -0.0066445693472417
 273    -0.0040049674457199
 274    0.0098191272020685
 275      -0.0018435438491
 276    0.0037808946810106
 277    0.0027861722685254
 278    0.00030430171949003
 279    -0.00089226641652583
 280    -0.00041410815513288
 281    -0.00041281695438657
 282    0.00034709441055097
 283    -0.0012390615744679
 284     0.005872314456515