[Molden Format]
made by pyscf v[2.0.1]
[Atoms] (AU)
C   1   6     0.69100024066471     0.64692934207205    -3.48223131169301
H   2   1     2.68052439830868     1.13355088658700    -3.25784032593313
C   3   6    -0.36286361513219     0.85440132524594    -5.97030179418974
H   4   1    -2.35448549047279     0.36322488579172    -6.17995817793143
C   5   6     0.93697958957450     1.61209284601821    -8.05828437677121
H   6   1     2.04771873455416     3.34419409619576    -7.97445952172335
C   7   6     0.93181860145248     0.24539724069794   -10.40101785795171
H   8   1    -0.18866463604211    -1.48700602985521   -10.45595821195799
H   9   1     1.55630230933075    -1.92953025305990    12.99630010416247
C   10   6     0.75233899775814    -2.21270439606481    11.10705728102219
H   11   1    -0.43433408177274    -3.90944857546550    11.22216085340412
C   12   6     2.86362581178706    -2.63237380607947     9.17926416456045
H   13   1     4.39038949912609    -1.24955421540245     9.49899813497433
H   14   1     3.74629220191363    -4.48798724300892     9.47414880959024
C   15   6     2.02478325613682    -2.42177285709634     6.44560829588644
C   16   6     3.88048732735477    -3.58795445234514     4.61402886975252
C   17   6    -0.18412382258602    -1.30464291234259     5.76021113872346
C   18   6    -2.10044360464350    -0.26837831858460     7.71610340967100
C   19   6    -3.08956938670431     2.35282328359417     6.88693925039594
C   20   6    -4.37372924086464    -2.09766595989678     7.93610724222001
C   21   6    -0.83850430601230     0.06372213486173    10.33002307638377
H   22   1     0.38411922151109     1.74281358582432    10.27380136542181
H   23   1    -2.30980003007874     0.45460143924521    11.73986301809809
H   24   1     4.58527064644668    -5.38706904487420     5.36778158031719
H   25   1     5.54944938085014    -2.37631462192748     4.35398898413318
H   26   1     3.06633019150423    -3.94118377050688     2.75255466040884
H   27   1    -4.17727778763735     2.26573369139522     5.12914900961283
H   28   1    -1.52662344944051     3.68001877445626     6.59540397144508
H   29   1    -4.32916174397830     3.13643051467482     8.35225460090378
H   30   1    -5.32329548508442    -2.36691813602939     6.11583672749896
H   31   1    -5.77989366602257    -1.33896741843465     9.25748940450990
H   32   1    -3.79310905208926    -3.96389819310853     8.61386170102686
C   33   6    -1.01100794811226    -1.06331657314144     3.11929490449947
C   34   6     0.37686231036534    -0.33275864505552     1.09165013605873
H   35   1    -3.01671213906703    -1.40297922279997     2.77827895090944
C   36   6    -0.64382707979370    -0.11591880174385    -1.42063131251064
H   37   1     2.35569259782137     0.17174499283897     1.33641070251401
H   38   1    -2.63317482980319    -0.60229203511219    -1.66119700387645
C   39   6     2.19331151370285     0.92821726401642   -12.52684146370420
C   40   6     2.06658501336205    -0.59430170292716   -14.82312084011087
H   41   1     3.34297492540252     2.63137484242591   -12.59961951178576
O   42   8     3.14891962090165    -0.09254461622574   -16.79735885819125
H   43   1     0.86886987612456    -2.32059369084518   -14.66320417409860
[GTO]
1 0
 s    6 1.00
             3047.5249  0.0018347001629433
             457.36951    0.01403730124668
             103.94869   0.068842606114048
             29.210155    0.23218442062076
              9.286663    0.46794134155879
              3.163927    0.36231203217765
 s    3 1.00
             7.8682724   -0.11933240861517
             1.8812885   -0.16085421161283
             0.5442493     1.1434564825515
 s    1 1.00
             0.1687144                   1
 p    3 1.00
             7.8682724   0.068999095584993
             1.8812885    0.31642397975315
             0.5442493    0.74430825237435
 p    1 1.00
             0.1687144                   1
 d    1 1.00
                   0.8                   1

2 0
 s    3 1.00
             18.731137    0.03349459952309
             2.8253937    0.23472694665786
             0.6401217    0.81375731841339
 s    1 1.00
             0.1612778                   1

3 0
 s    6 1.00
             3047.5249  0.0018347001629433
             457.36951    0.01403730124668
             103.94869   0.068842606114048
             29.210155    0.23218442062076
              9.286663    0.46794134155879
              3.163927    0.36231203217765
 s    3 1.00
             7.8682724   -0.11933240861517
             1.8812885   -0.16085421161283
             0.5442493     1.1434564825515
 s    1 1.00
             0.1687144                   1
 p    3 1.00
             7.8682724   0.068999095584993
             1.8812885    0.31642397975315
             0.5442493    0.74430825237435
 p    1 1.00
             0.1687144                   1
 d    1 1.00
                   0.8                   1

4 0
 s    3 1.00
             18.731137    0.03349459952309
             2.8253937    0.23472694665786
             0.6401217    0.81375731841339
 s    1 1.00
             0.1612778                   1

5 0
 s    6 1.00
             3047.5249  0.0018347001629433
             457.36951    0.01403730124668
             103.94869   0.068842606114048
             29.210155    0.23218442062076
              9.286663    0.46794134155879
              3.163927    0.36231203217765
 s    3 1.00
             7.8682724   -0.11933240861517
             1.8812885   -0.16085421161283
             0.5442493     1.1434564825515
 s    1 1.00
             0.1687144                   1
 p    3 1.00
             7.8682724   0.068999095584993
             1.8812885    0.31642397975315
             0.5442493    0.74430825237435
 p    1 1.00
             0.1687144                   1
 d    1 1.00
                   0.8                   1

6 0
 s    3 1.00
             18.731137    0.03349459952309
             2.8253937    0.23472694665786
             0.6401217    0.81375731841339
 s    1 1.00
             0.1612778                   1

7 0
 s    6 1.00
             3047.5249  0.0018347001629433
             457.36951    0.01403730124668
             103.94869   0.068842606114048
             29.210155    0.23218442062076
              9.286663    0.46794134155879
              3.163927    0.36231203217765
 s    3 1.00
             7.8682724   -0.11933240861517
             1.8812885   -0.16085421161283
             0.5442493     1.1434564825515
 s    1 1.00
             0.1687144                   1
 p    3 1.00
             7.8682724   0.068999095584993
             1.8812885    0.31642397975315
             0.5442493    0.74430825237435
 p    1 1.00
             0.1687144                   1
 d    1 1.00
                   0.8                   1

8 0
 s    3 1.00
             18.731137    0.03349459952309
             2.8253937    0.23472694665786
             0.6401217    0.81375731841339
 s    1 1.00
             0.1612778                   1

9 0
 s    3 1.00
             18.731137    0.03349459952309
             2.8253937    0.23472694665786
             0.6401217    0.81375731841339
 s    1 1.00
             0.1612778                   1

10 0
 s    6 1.00
             3047.5249  0.0018347001629433
             457.36951    0.01403730124668
             103.94869   0.068842606114048
             29.210155    0.23218442062076
              9.286663    0.46794134155879
              3.163927    0.36231203217765
 s    3 1.00
             7.8682724   -0.11933240861517
             1.8812885   -0.16085421161283
             0.5442493     1.1434564825515
 s    1 1.00
             0.1687144                   1
 p    3 1.00
             7.8682724   0.068999095584993
             1.8812885    0.31642397975315
             0.5442493    0.74430825237435
 p    1 1.00
             0.1687144                   1
 d    1 1.00
                   0.8                   1

11 0
 s    3 1.00
             18.731137    0.03349459952309
             2.8253937    0.23472694665786
             0.6401217    0.81375731841339
 s    1 1.00
             0.1612778                   1

12 0
 s    6 1.00
             3047.5249  0.0018347001629433
             457.36951    0.01403730124668
             103.94869   0.068842606114048
             29.210155    0.23218442062076
              9.286663    0.46794134155879
              3.163927    0.36231203217765
 s    3 1.00
             7.8682724   -0.11933240861517
             1.8812885   -0.16085421161283
             0.5442493     1.1434564825515
 s    1 1.00
             0.1687144                   1
 p    3 1.00
             7.8682724   0.068999095584993
             1.8812885    0.31642397975315
             0.5442493    0.74430825237435
 p    1 1.00
             0.1687144                   1
 d    1 1.00
                   0.8                   1

13 0
 s    3 1.00
             18.731137    0.03349459952309
             2.8253937    0.23472694665786
             0.6401217    0.81375731841339
 s    1 1.00
             0.1612778                   1

14 0
 s    3 1.00
             18.731137    0.03349459952309
             2.8253937    0.23472694665786
             0.6401217    0.81375731841339
 s    1 1.00
             0.1612778                   1

15 0
 s    6 1.00
             3047.5249  0.0018347001629433
             457.36951    0.01403730124668
             103.94869   0.068842606114048
             29.210155    0.23218442062076
              9.286663    0.46794134155879
              3.163927    0.36231203217765
 s    3 1.00
             7.8682724   -0.11933240861517
             1.8812885   -0.16085421161283
             0.5442493     1.1434564825515
 s    1 1.00
             0.1687144                   1
 p    3 1.00
             7.8682724   0.068999095584993
             1.8812885    0.31642397975315
             0.5442493    0.74430825237435
 p    1 1.00
             0.1687144                   1
 d    1 1.00
                   0.8                   1

16 0
 s    6 1.00
             3047.5249  0.0018347001629433
             457.36951    0.01403730124668
             103.94869   0.068842606114048
             29.210155    0.23218442062076
              9.286663    0.46794134155879
              3.163927    0.36231203217765
 s    3 1.00
             7.8682724   -0.11933240861517
             1.8812885   -0.16085421161283
             0.5442493     1.1434564825515
 s    1 1.00
             0.1687144                   1
 p    3 1.00
             7.8682724   0.068999095584993
             1.8812885    0.31642397975315
             0.5442493    0.74430825237435
 p    1 1.00
             0.1687144                   1
 d    1 1.00
                   0.8                   1

17 0
 s    6 1.00
             3047.5249  0.0018347001629433
             457.36951    0.01403730124668
             103.94869   0.068842606114048
             29.210155    0.23218442062076
              9.286663    0.46794134155879
              3.163927    0.36231203217765
 s    3 1.00
             7.8682724   -0.11933240861517
             1.8812885   -0.16085421161283
             0.5442493     1.1434564825515
 s    1 1.00
             0.1687144                   1
 p    3 1.00
             7.8682724   0.068999095584993
             1.8812885    0.31642397975315
             0.5442493    0.74430825237435
 p    1 1.00
             0.1687144                   1
 d    1 1.00
                   0.8                   1

18 0
 s    6 1.00
             3047.5249  0.0018347001629433
             457.36951    0.01403730124668
             103.94869   0.068842606114048
             29.210155    0.23218442062076
              9.286663    0.46794134155879
              3.163927    0.36231203217765
 s    3 1.00
             7.8682724   -0.11933240861517
             1.8812885   -0.16085421161283
             0.5442493     1.1434564825515
 s    1 1.00
             0.1687144                   1
 p    3 1.00
             7.8682724   0.068999095584993
             1.8812885    0.31642397975315
             0.5442493    0.74430825237435
 p    1 1.00
             0.1687144                   1
 d    1 1.00
                   0.8                   1

19 0
 s    6 1.00
             3047.5249  0.0018347001629433
             457.36951    0.01403730124668
             103.94869   0.068842606114048
             29.210155    0.23218442062076
              9.286663    0.46794134155879
              3.163927    0.36231203217765
 s    3 1.00
             7.8682724   -0.11933240861517
             1.8812885   -0.16085421161283
             0.5442493     1.1434564825515
 s    1 1.00
             0.1687144                   1
 p    3 1.00
             7.8682724   0.068999095584993
             1.8812885    0.31642397975315
             0.5442493    0.74430825237435
 p    1 1.00
             0.1687144                   1
 d    1 1.00
                   0.8                   1

20 0
 s    6 1.00
             3047.5249  0.0018347001629433
             457.36951    0.01403730124668
             103.94869   0.068842606114048
             29.210155    0.23218442062076
              9.286663    0.46794134155879
              3.163927    0.36231203217765
 s    3 1.00
             7.8682724   -0.11933240861517
             1.8812885   -0.16085421161283
             0.5442493     1.1434564825515
 s    1 1.00
             0.1687144                   1
 p    3 1.00
             7.8682724   0.068999095584993
             1.8812885    0.31642397975315
             0.5442493    0.74430825237435
 p    1 1.00
             0.1687144                   1
 d    1 1.00
                   0.8                   1

21 0
 s    6 1.00
             3047.5249  0.0018347001629433
             457.36951    0.01403730124668
             103.94869   0.068842606114048
             29.210155    0.23218442062076
              9.286663    0.46794134155879
              3.163927    0.36231203217765
 s    3 1.00
             7.8682724   -0.11933240861517
             1.8812885   -0.16085421161283
             0.5442493     1.1434564825515
 s    1 1.00
             0.1687144                   1
 p    3 1.00
             7.8682724   0.068999095584993
             1.8812885    0.31642397975315
             0.5442493    0.74430825237435
 p    1 1.00
             0.1687144                   1
 d    1 1.00
                   0.8                   1

22 0
 s    3 1.00
             18.731137    0.03349459952309
             2.8253937    0.23472694665786
             0.6401217    0.81375731841339
 s    1 1.00
             0.1612778                   1

23 0
 s    3 1.00
             18.731137    0.03349459952309
             2.8253937    0.23472694665786
             0.6401217    0.81375731841339
 s    1 1.00
             0.1612778                   1

24 0
 s    3 1.00
             18.731137    0.03349459952309
             2.8253937    0.23472694665786
             0.6401217    0.81375731841339
 s    1 1.00
             0.1612778                   1

25 0
 s    3 1.00
             18.731137    0.03349459952309
             2.8253937    0.23472694665786
             0.6401217    0.81375731841339
 s    1 1.00
             0.1612778                   1

26 0
 s    3 1.00
             18.731137    0.03349459952309
             2.8253937    0.23472694665786
             0.6401217    0.81375731841339
 s    1 1.00
             0.1612778                   1

27 0
 s    3 1.00
             18.731137    0.03349459952309
             2.8253937    0.23472694665786
             0.6401217    0.81375731841339
 s    1 1.00
             0.1612778                   1

28 0
 s    3 1.00
             18.731137    0.03349459952309
             2.8253937    0.23472694665786
             0.6401217    0.81375731841339
 s    1 1.00
             0.1612778                   1

29 0
 s    3 1.00
             18.731137    0.03349459952309
             2.8253937    0.23472694665786
             0.6401217    0.81375731841339
 s    1 1.00
             0.1612778                   1

30 0
 s    3 1.00
             18.731137    0.03349459952309
             2.8253937    0.23472694665786
             0.6401217    0.81375731841339
 s    1 1.00
             0.1612778                   1

31 0
 s    3 1.00
             18.731137    0.03349459952309
             2.8253937    0.23472694665786
             0.6401217    0.81375731841339
 s    1 1.00
             0.1612778                   1

32 0
 s    3 1.00
             18.731137    0.03349459952309
             2.8253937    0.23472694665786
             0.6401217    0.81375731841339
 s    1 1.00
             0.1612778                   1

33 0
 s    6 1.00
             3047.5249  0.0018347001629433
             457.36951    0.01403730124668
             103.94869   0.068842606114048
             29.210155    0.23218442062076
              9.286663    0.46794134155879
              3.163927    0.36231203217765
 s    3 1.00
             7.8682724   -0.11933240861517
             1.8812885   -0.16085421161283
             0.5442493     1.1434564825515
 s    1 1.00
             0.1687144                   1
 p    3 1.00
             7.8682724   0.068999095584993
             1.8812885    0.31642397975315
             0.5442493    0.74430825237435
 p    1 1.00
             0.1687144                   1
 d    1 1.00
                   0.8                   1

34 0
 s    6 1.00
             3047.5249  0.0018347001629433
             457.36951    0.01403730124668
             103.94869   0.068842606114048
             29.210155    0.23218442062076
              9.286663    0.46794134155879
              3.163927    0.36231203217765
 s    3 1.00
             7.8682724   -0.11933240861517
             1.8812885   -0.16085421161283
             0.5442493     1.1434564825515
 s    1 1.00
             0.1687144                   1
 p    3 1.00
             7.8682724   0.068999095584993
             1.8812885    0.31642397975315
             0.5442493    0.74430825237435
 p    1 1.00
             0.1687144                   1
 d    1 1.00
                   0.8                   1

35 0
 s    3 1.00
             18.731137    0.03349459952309
             2.8253937    0.23472694665786
             0.6401217    0.81375731841339
 s    1 1.00
             0.1612778                   1

36 0
 s    6 1.00
             3047.5249  0.0018347001629433
             457.36951    0.01403730124668
             103.94869   0.068842606114048
             29.210155    0.23218442062076
              9.286663    0.46794134155879
              3.163927    0.36231203217765
 s    3 1.00
             7.8682724   -0.11933240861517
             1.8812885   -0.16085421161283
             0.5442493     1.1434564825515
 s    1 1.00
             0.1687144                   1
 p    3 1.00
             7.8682724   0.068999095584993
             1.8812885    0.31642397975315
             0.5442493    0.74430825237435
 p    1 1.00
             0.1687144                   1
 d    1 1.00
                   0.8                   1

37 0
 s    3 1.00
             18.731137    0.03349459952309
             2.8253937    0.23472694665786
             0.6401217    0.81375731841339
 s    1 1.00
             0.1612778                   1

38 0
 s    3 1.00
             18.731137    0.03349459952309
             2.8253937    0.23472694665786
             0.6401217    0.81375731841339
 s    1 1.00
             0.1612778                   1

39 0
 s    6 1.00
             3047.5249  0.0018347001629433
             457.36951    0.01403730124668
             103.94869   0.068842606114048
             29.210155    0.23218442062076
              9.286663    0.46794134155879
              3.163927    0.36231203217765
 s    3 1.00
             7.8682724   -0.11933240861517
             1.8812885   -0.16085421161283
             0.5442493     1.1434564825515
 s    1 1.00
             0.1687144                   1
 p    3 1.00
             7.8682724   0.068999095584993
             1.8812885    0.31642397975315
             0.5442493    0.74430825237435
 p    1 1.00
             0.1687144                   1
 d    1 1.00
                   0.8                   1

40 0
 s    6 1.00
             3047.5249  0.0018347001629433
             457.36951    0.01403730124668
             103.94869   0.068842606114048
             29.210155    0.23218442062076
              9.286663    0.46794134155879
              3.163927    0.36231203217765
 s    3 1.00
             7.8682724   -0.11933240861517
             1.8812885   -0.16085421161283
             0.5442493     1.1434564825515
 s    1 1.00
             0.1687144                   1
 p    3 1.00
             7.8682724   0.068999095584993
             1.8812885    0.31642397975315
             0.5442493    0.74430825237435
 p    1 1.00
             0.1687144                   1
 d    1 1.00
                   0.8                   1

41 0
 s    3 1.00
             18.731137    0.03349459952309
             2.8253937    0.23472694665786
             0.6401217    0.81375731841339
 s    1 1.00
             0.1612778                   1

42 0
 s    6 1.00
             5484.6717   0.001831099805527
             825.23495   0.013950098518422
             188.04696    0.06844509273075
               52.9645    0.23271427528445
              16.89757    0.47019295006289
             5.7996353    0.35852086192309
 s    3 1.00
             15.539616   -0.11077750382508
             3.5999336   -0.14802630511126
             1.0137618     1.1307670390447
 s    1 1.00
             0.2700058                   1
 p    3 1.00
             15.539616   0.070874299543311
             3.5999336    0.33975279781076
             1.0137618    0.72715859531445
 p    1 1.00
             0.2700058                   1
 d    1 1.00
                   0.8                   1

43 0
 s    3 1.00
             18.731137    0.03349459952309
             2.8253937    0.23472694665786
             0.6401217    0.81375731841339
 s    1 1.00
             0.1612778                   1

[5d]
[7f]
[9g]

[MO]
 Sym= A
 Ene=               0
 Spin= Alpha
 Occup=    1.00000
   1    0.0028902405880795
   2      0.28629790361994
   3      0.18419659737508
   4    -0.074339823695429
   5    -0.048142302273602
   6      0.14110346081466
   7     0.011869066808023
   8    -0.0065210511746484
   9      0.04709654683442
  10    0.0041820083542153
  11    -0.0059412829085174
  12    -0.0049445539460984
  13    0.0073141263995467
  14    0.0060098750382713
  15     0.063424758697159
  16    -0.002372675324192
  17    -0.0079886997284765
  18     0.044159371136501
  19      0.02421291671385
  20    -0.0061571240005636
  21    -0.011583553923909
  22     0.050950903074907
  23    -0.0081282194940199
  24    -0.0055798390353088
  25     0.026935941373799
  26    0.0063563220092317
  27    0.0026279608914741
  28    -0.0018291189856668
  29    0.00089806274231171
  30    0.00025205181447738
  31     0.012524233521705
  32    0.0015883274543029
  33    -0.00095804275462052
  34    0.0092574595385673
  35     0.023433953852344
  36    0.0049770817874596
  37    0.0002496494631133
  38    -0.017284110967898
  39    -0.0053368858026845
  40    -0.0056851268651223
  41    -0.0084808983732097
  42    0.0017139181481934
  43    -0.00080428334376123
  44    0.0012996130465629
  45    -0.00019890192899425
  46    0.00024214173160316
  47    0.0038256133968865
  48    0.0045925361686362
  49    0.00034007128342711
  50     0.085012086972971
  51     0.045062455836666
  52     0.023078023581022
  53     0.010456772957382
  54    -0.043121500360174
  55    0.0018055429612989
  56    -0.007561997941381
  57    -0.015651045655532
  58    0.0010027093789188
  59    -0.0022699712019607
  60    -0.00078293607370416
  61    -0.00028936616251862
  62    0.0024561242786628
  63      0.01837039995909
  64    -0.00034963107847429
  65    2.8303844751168e-05
  66    -8.9670660781433e-06
  67    1.3064336513106e-05
  68    3.6813325845786e-05
  69    -0.00037578271408795
  70    -2.157696274066e-05
  71    -1.152243952025e-05
  72    5.7634230923414e-06
  73    0.00023114832320198
  74    0.00036127980114678
  75    0.00024576766838725
  76    2.5563887909542e-05
  77    1.1795452734698e-05
  78    -9.8564249506231e-06
  79    -7.7384876573673e-06
  80    9.8672174275046e-06
  81    1.0444283161077e-05
  82    0.00032018825591562
  83    -2.4428123951059e-05
  84    0.00014087294859772
  85     0.001147540226106
  86    -0.00015314558623702
  87    8.8016501226747e-05
  88    -0.00028027169519681
  89    -0.00040532610846015
  90    -0.00039976667781946
  91    -0.00047757147034346
  92    -5.3715162964612e-06
  93    2.6689927219219e-05
  94    -6.926697707289e-06
  95    -3.8119312601595e-06
  96    -4.4393957829466e-06
  97    -2.378700227947e-05
  98    0.0001157319622401
  99    -6.9685381065512e-05
 100    -0.00016392415075787
 101    7.6807393837272e-05
 102    -5.4440682958446e-05
 103    -0.0010598563612915
 104    -3.6854476485004e-05
 105    6.7467282186975e-05
 106    0.00036020799049128
 107     0.002409088815224
 108    -0.00073043380063931
 109    -0.0029299464999142
 110    3.4464169847323e-05
 111    8.3426357885774e-05
 112    -2.9030971215305e-05
 113    -5.7922885258163e-05
 114    3.0328202620284e-05
 115    8.0883561664431e-05
 116    -0.00019958166035638
 117    -0.0020491256582752
 118    0.0001147741294796
 119    -0.00035895212767914
 120    3.9825009218611e-05
 121    0.00042810413793522
 122    -0.00012152558967706
 123    -0.0014030980834189
 124    1.3787414238724e-05
 125    4.2204993850686e-05
 126    -4.9400070524909e-05
 127    -3.3135264270711e-06
 128    1.483201624498e-05
 129    -8.92286599102e-06
 130    0.00069621558267359
 131    -0.010850581988143
 132    -0.00020555902175172
 133    -0.00011404406905706
 134    -0.00067604739059072
 135    0.0014943477647252
 136    -0.0011573391370641
 137     0.011666400690124
 138    -0.00036289886892914
 139    7.8025314261884e-05
 140    0.00011953708199196
 141    5.1944605632388e-05
 142    7.8967664434915e-05
 143    6.1369424302841e-05
 144    -3.6546424267053e-05
 145    -0.002038627330657
 146    4.5831300165606e-05
 147    0.00012298128322066
 148    0.0003820196357133
 149    -0.0025396899429878
 150    0.0015348545371225
 151    -0.0018956014241858
 152    8.5489973401559e-05
 153    -2.665783845342e-05
 154    -3.5781995124723e-05
 155    -5.4677122476215e-05
 156    5.2987386217434e-05
 157    1.5776295651282e-05
 158    0.00015787987168682
 159    -0.0014319532672226
 160    4.1238785777412e-05
 161    8.2049926286988e-06
 162    -6.6077527330959e-05
 163    3.0756297738946e-05
 164    0.00089096821587093
 165    0.00021961211251777
 166    2.1252250356042e-05
 167    3.3419908460416e-07
 168    -4.2923908637609e-07
 169    5.0314844684885e-05
 170    -6.8463422490586e-06
 171    1.0725295732652e-05
 172    -0.00022338455777173
 173    0.00034128176862978
 174    -1.9358080673274e-05
 175    9.9276613667944e-06
 176    0.00026676119997097
 177    0.00034421970360968
 178    -0.00069932994009768
 179    -0.00010272324253074
 180    4.4256357271069e-06
 181    5.1026523817554e-05
 182    1.8870241948697e-05
 183    3.136120117708e-05
 184    -8.1371655952765e-06
 185    -1.4104828817947e-05
 186    3.5742364485117e-05
 187    0.0016032700162873
 188    5.5895031270906e-06
 189    -4.8052896413885e-05
 190    -0.00025304503615687
 191    -0.00088707883007829
 192    -0.00040250060730707
 193    -0.00047321750237083
 194    1.9573694226334e-05
 195    3.7895130704736e-05
 196    2.3242599380371e-05
 197    -5.8464550423558e-06
 198    2.1203866471847e-05
 199    -9.2372311809425e-06
 200    0.00029978133222692
 201    -9.8606987337636e-05
 202    -0.00041415330286015
 203    0.00019351305759069
 204      0.00073903023433
 205    -0.00018205297271944
 206    -0.00013225025291897
 207    0.00013525090698834
 208    -0.00075413212646951
 209    0.00011062494991793
 210    0.00019774430978311
 211    3.8618362466657e-05
 212    -9.3292304606347e-05
 213    -1.0003564985825e-05
 214    -0.00023420710290052
 215    -3.5861571654815e-05
 216    -0.00065270206421687
 217    5.2854387111662e-05
 218    0.00039170409160646
 219    -1.1766792331144e-05
 220    -0.00043668527664481
 221    0.0011726664154093
 222    -0.002677218736548
 223     0.021567072961592
 224     -0.00136317917879
 225    -0.0012330834664553
 226    0.0028124862610611
 227     0.015783723204098
 228    0.0015700548568206
 229    0.0084631453145297
 230    0.00021545944124494
 231    -0.00015504332664446
 232    -0.0001647535387455
 233    0.00011133430407441
 234    0.00013501913937615
 235    -0.0078168688275575
 236     0.041328203079512
 237     0.019585704161105
 238    0.0058546235016013
 239     0.010912648756426
 240    -0.046415511445501
 241    0.0065342403630541
 242    0.0073945122124337
 243    -0.027590887171313
 244    0.0063089491125441
 245    0.0023500543538315
 246    -0.0018219499003354
 247    0.00090869941491538
 248    0.00011607500436965
 249    0.00069751591716531
 250    0.0079416834893892
 251    0.0016983441584787
 252      0.28491586315216
 253      0.18120700605648
 254     0.075574213727833
 255     0.049392712766653
 256      -0.1436665148751
 257    -0.012231066829346
 258     0.006682483476626
 259    -0.046599256490393
 260    0.0042292612598153
 261    -0.0060846430348719
 262    -0.0048549661626848
 263    0.0073588764645393
 264    0.0057068760418685
 265     0.011276930806527
 266    0.0017326380304382
 267      0.06212846325356
 268    -0.0037778864178371
 269    0.0014940424567571
 270     0.083517849671782
 271     0.056521620219011
 272    -0.022582107008452
 273    -0.0083184695057829
 274     0.041719088749626
 275    -0.0020681080423376
 276    0.0066575156530073
 277     0.014545313698177
 278    0.0013595867247378
 279    -0.0025994467466546
 280    -0.00095956761293974
 281    -0.00030356390577488
 282     0.002529068286587
 283    -0.0025664291965584
 284     0.012961600280828
 285      0.00848428717099