[Molden Format]
made by pyscf v[2.0.1]
[Atoms] (AU)
C   1   6     0.69100024066471     0.64692934207205    -3.48223131169301
H   2   1     2.68052439830868     1.13355088658700    -3.25784032593313
C   3   6    -0.36286361513219     0.85440132524594    -5.97030179418974
H   4   1    -2.35448549047279     0.36322488579172    -6.17995817793143
C   5   6     0.93697958957450     1.61209284601821    -8.05828437677121
H   6   1     2.50035468987728     2.93484935641869    -7.84122146962088
C   7   6     0.36255105159660     0.76050131278393   -10.56848504450332
H   8   1    -1.20802221204617    -0.56532983436663   -10.75608465244450
H   9   1     1.55630230933075    -1.92953025305990    12.99630010416247
C   10   6     0.75233899775814    -2.21270439606481    11.10705728102219
H   11   1    -0.43433408177274    -3.90944857546550    11.22216085340412
C   12   6     2.86362581178706    -2.63237380607947     9.17926416456045
H   13   1     4.39038949912609    -1.24955421540245     9.49899813497433
H   14   1     3.74629220191363    -4.48798724300892     9.47414880959024
C   15   6     2.02478325613682    -2.42177285709634     6.44560829588644
C   16   6     3.88048732735477    -3.58795445234514     4.61402886975252
C   17   6    -0.18412382258602    -1.30464291234259     5.76021113872346
C   18   6    -2.10044360464350    -0.26837831858460     7.71610340967100
C   19   6    -3.08956938670431     2.35282328359417     6.88693925039594
C   20   6    -4.37372924086464    -2.09766595989678     7.93610724222001
C   21   6    -0.83850430601230     0.06372213486173    10.33002307638377
H   22   1     0.38411922151109     1.74281358582432    10.27380136542181
H   23   1    -2.30980003007874     0.45460143924521    11.73986301809809
H   24   1     4.58527064644668    -5.38706904487420     5.36778158031719
H   25   1     5.54944938085014    -2.37631462192748     4.35398898413318
H   26   1     3.06633019150423    -3.94118377050688     2.75255466040884
H   27   1    -4.17727778763735     2.26573369139522     5.12914900961283
H   28   1    -1.52662344944051     3.68001877445626     6.59540397144508
H   29   1    -4.32916174397830     3.13643051467482     8.35225460090378
H   30   1    -5.32329548508442    -2.36691813602939     6.11583672749896
H   31   1    -5.77989366602257    -1.33896741843465     9.25748940450990
H   32   1    -3.79310905208926    -3.96389819310853     8.61386170102686
C   33   6    -1.01100794811226    -1.06331657314144     3.11929490449947
C   34   6     0.37686231036534    -0.33275864505552     1.09165013605873
H   35   1    -3.01671213906703    -1.40297922279997     2.77827895090944
C   36   6    -0.64382707979370    -0.11591880174385    -1.42063131251064
H   37   1     2.35569259782137     0.17174499283897     1.33641070251401
H   38   1    -2.63317482980319    -0.60229203511219    -1.66119700387645
C   39   6     1.60144441070444     1.46482489722556   -12.70057441592292
C   40   6     0.86980516734608     0.48994136718256   -15.17470632539007
H   41   1     3.18180515535191     2.77908821383906   -12.64635086980665
O   42   8     1.89724046327418     1.04291297454121   -17.16453627851552
H   43   1    -0.75645459108880    -0.84958730954869   -15.14122439828819
[GTO]
1 0
 s    6 1.00
             3047.5249  0.0018347001629433
             457.36951    0.01403730124668
             103.94869   0.068842606114048
             29.210155    0.23218442062076
              9.286663    0.46794134155879
              3.163927    0.36231203217765
 s    3 1.00
             7.8682724   -0.11933240861517
             1.8812885   -0.16085421161283
             0.5442493     1.1434564825515
 s    1 1.00
             0.1687144                   1
 p    3 1.00
             7.8682724   0.068999095584993
             1.8812885    0.31642397975315
             0.5442493    0.74430825237435
 p    1 1.00
             0.1687144                   1
 d    1 1.00
                   0.8                   1

2 0
 s    3 1.00
             18.731137    0.03349459952309
             2.8253937    0.23472694665786
             0.6401217    0.81375731841339
 s    1 1.00
             0.1612778                   1

3 0
 s    6 1.00
             3047.5249  0.0018347001629433
             457.36951    0.01403730124668
             103.94869   0.068842606114048
             29.210155    0.23218442062076
              9.286663    0.46794134155879
              3.163927    0.36231203217765
 s    3 1.00
             7.8682724   -0.11933240861517
             1.8812885   -0.16085421161283
             0.5442493     1.1434564825515
 s    1 1.00
             0.1687144                   1
 p    3 1.00
             7.8682724   0.068999095584993
             1.8812885    0.31642397975315
             0.5442493    0.74430825237435
 p    1 1.00
             0.1687144                   1
 d    1 1.00
                   0.8                   1

4 0
 s    3 1.00
             18.731137    0.03349459952309
             2.8253937    0.23472694665786
             0.6401217    0.81375731841339
 s    1 1.00
             0.1612778                   1

5 0
 s    6 1.00
             3047.5249  0.0018347001629433
             457.36951    0.01403730124668
             103.94869   0.068842606114048
             29.210155    0.23218442062076
              9.286663    0.46794134155879
              3.163927    0.36231203217765
 s    3 1.00
             7.8682724   -0.11933240861517
             1.8812885   -0.16085421161283
             0.5442493     1.1434564825515
 s    1 1.00
             0.1687144                   1
 p    3 1.00
             7.8682724   0.068999095584993
             1.8812885    0.31642397975315
             0.5442493    0.74430825237435
 p    1 1.00
             0.1687144                   1
 d    1 1.00
                   0.8                   1

6 0
 s    3 1.00
             18.731137    0.03349459952309
             2.8253937    0.23472694665786
             0.6401217    0.81375731841339
 s    1 1.00
             0.1612778                   1

7 0
 s    6 1.00
             3047.5249  0.0018347001629433
             457.36951    0.01403730124668
             103.94869   0.068842606114048
             29.210155    0.23218442062076
              9.286663    0.46794134155879
              3.163927    0.36231203217765
 s    3 1.00
             7.8682724   -0.11933240861517
             1.8812885   -0.16085421161283
             0.5442493     1.1434564825515
 s    1 1.00
             0.1687144                   1
 p    3 1.00
             7.8682724   0.068999095584993
             1.8812885    0.31642397975315
             0.5442493    0.74430825237435
 p    1 1.00
             0.1687144                   1
 d    1 1.00
                   0.8                   1

8 0
 s    3 1.00
             18.731137    0.03349459952309
             2.8253937    0.23472694665786
             0.6401217    0.81375731841339
 s    1 1.00
             0.1612778                   1

9 0
 s    3 1.00
             18.731137    0.03349459952309
             2.8253937    0.23472694665786
             0.6401217    0.81375731841339
 s    1 1.00
             0.1612778                   1

10 0
 s    6 1.00
             3047.5249  0.0018347001629433
             457.36951    0.01403730124668
             103.94869   0.068842606114048
             29.210155    0.23218442062076
              9.286663    0.46794134155879
              3.163927    0.36231203217765
 s    3 1.00
             7.8682724   -0.11933240861517
             1.8812885   -0.16085421161283
             0.5442493     1.1434564825515
 s    1 1.00
             0.1687144                   1
 p    3 1.00
             7.8682724   0.068999095584993
             1.8812885    0.31642397975315
             0.5442493    0.74430825237435
 p    1 1.00
             0.1687144                   1
 d    1 1.00
                   0.8                   1

11 0
 s    3 1.00
             18.731137    0.03349459952309
             2.8253937    0.23472694665786
             0.6401217    0.81375731841339
 s    1 1.00
             0.1612778                   1

12 0
 s    6 1.00
             3047.5249  0.0018347001629433
             457.36951    0.01403730124668
             103.94869   0.068842606114048
             29.210155    0.23218442062076
              9.286663    0.46794134155879
              3.163927    0.36231203217765
 s    3 1.00
             7.8682724   -0.11933240861517
             1.8812885   -0.16085421161283
             0.5442493     1.1434564825515
 s    1 1.00
             0.1687144                   1
 p    3 1.00
             7.8682724   0.068999095584993
             1.8812885    0.31642397975315
             0.5442493    0.74430825237435
 p    1 1.00
             0.1687144                   1
 d    1 1.00
                   0.8                   1

13 0
 s    3 1.00
             18.731137    0.03349459952309
             2.8253937    0.23472694665786
             0.6401217    0.81375731841339
 s    1 1.00
             0.1612778                   1

14 0
 s    3 1.00
             18.731137    0.03349459952309
             2.8253937    0.23472694665786
             0.6401217    0.81375731841339
 s    1 1.00
             0.1612778                   1

15 0
 s    6 1.00
             3047.5249  0.0018347001629433
             457.36951    0.01403730124668
             103.94869   0.068842606114048
             29.210155    0.23218442062076
              9.286663    0.46794134155879
              3.163927    0.36231203217765
 s    3 1.00
             7.8682724   -0.11933240861517
             1.8812885   -0.16085421161283
             0.5442493     1.1434564825515
 s    1 1.00
             0.1687144                   1
 p    3 1.00
             7.8682724   0.068999095584993
             1.8812885    0.31642397975315
             0.5442493    0.74430825237435
 p    1 1.00
             0.1687144                   1
 d    1 1.00
                   0.8                   1

16 0
 s    6 1.00
             3047.5249  0.0018347001629433
             457.36951    0.01403730124668
             103.94869   0.068842606114048
             29.210155    0.23218442062076
              9.286663    0.46794134155879
              3.163927    0.36231203217765
 s    3 1.00
             7.8682724   -0.11933240861517
             1.8812885   -0.16085421161283
             0.5442493     1.1434564825515
 s    1 1.00
             0.1687144                   1
 p    3 1.00
             7.8682724   0.068999095584993
             1.8812885    0.31642397975315
             0.5442493    0.74430825237435
 p    1 1.00
             0.1687144                   1
 d    1 1.00
                   0.8                   1

17 0
 s    6 1.00
             3047.5249  0.0018347001629433
             457.36951    0.01403730124668
             103.94869   0.068842606114048
             29.210155    0.23218442062076
              9.286663    0.46794134155879
              3.163927    0.36231203217765
 s    3 1.00
             7.8682724   -0.11933240861517
             1.8812885   -0.16085421161283
             0.5442493     1.1434564825515
 s    1 1.00
             0.1687144                   1
 p    3 1.00
             7.8682724   0.068999095584993
             1.8812885    0.31642397975315
             0.5442493    0.74430825237435
 p    1 1.00
             0.1687144                   1
 d    1 1.00
                   0.8                   1

18 0
 s    6 1.00
             3047.5249  0.0018347001629433
             457.36951    0.01403730124668
             103.94869   0.068842606114048
             29.210155    0.23218442062076
              9.286663    0.46794134155879
              3.163927    0.36231203217765
 s    3 1.00
             7.8682724   -0.11933240861517
             1.8812885   -0.16085421161283
             0.5442493     1.1434564825515
 s    1 1.00
             0.1687144                   1
 p    3 1.00
             7.8682724   0.068999095584993
             1.8812885    0.31642397975315
             0.5442493    0.74430825237435
 p    1 1.00
             0.1687144                   1
 d    1 1.00
                   0.8                   1

19 0
 s    6 1.00
             3047.5249  0.0018347001629433
             457.36951    0.01403730124668
             103.94869   0.068842606114048
             29.210155    0.23218442062076
              9.286663    0.46794134155879
              3.163927    0.36231203217765
 s    3 1.00
             7.8682724   -0.11933240861517
             1.8812885   -0.16085421161283
             0.5442493     1.1434564825515
 s    1 1.00
             0.1687144                   1
 p    3 1.00
             7.8682724   0.068999095584993
             1.8812885    0.31642397975315
             0.5442493    0.74430825237435
 p    1 1.00
             0.1687144                   1
 d    1 1.00
                   0.8                   1

20 0
 s    6 1.00
             3047.5249  0.0018347001629433
             457.36951    0.01403730124668
             103.94869   0.068842606114048
             29.210155    0.23218442062076
              9.286663    0.46794134155879
              3.163927    0.36231203217765
 s    3 1.00
             7.8682724   -0.11933240861517
             1.8812885   -0.16085421161283
             0.5442493     1.1434564825515
 s    1 1.00
             0.1687144                   1
 p    3 1.00
             7.8682724   0.068999095584993
             1.8812885    0.31642397975315
             0.5442493    0.74430825237435
 p    1 1.00
             0.1687144                   1
 d    1 1.00
                   0.8                   1

21 0
 s    6 1.00
             3047.5249  0.0018347001629433
             457.36951    0.01403730124668
             103.94869   0.068842606114048
             29.210155    0.23218442062076
              9.286663    0.46794134155879
              3.163927    0.36231203217765
 s    3 1.00
             7.8682724   -0.11933240861517
             1.8812885   -0.16085421161283
             0.5442493     1.1434564825515
 s    1 1.00
             0.1687144                   1
 p    3 1.00
             7.8682724   0.068999095584993
             1.8812885    0.31642397975315
             0.5442493    0.74430825237435
 p    1 1.00
             0.1687144                   1
 d    1 1.00
                   0.8                   1

22 0
 s    3 1.00
             18.731137    0.03349459952309
             2.8253937    0.23472694665786
             0.6401217    0.81375731841339
 s    1 1.00
             0.1612778                   1

23 0
 s    3 1.00
             18.731137    0.03349459952309
             2.8253937    0.23472694665786
             0.6401217    0.81375731841339
 s    1 1.00
             0.1612778                   1

24 0
 s    3 1.00
             18.731137    0.03349459952309
             2.8253937    0.23472694665786
             0.6401217    0.81375731841339
 s    1 1.00
             0.1612778                   1

25 0
 s    3 1.00
             18.731137    0.03349459952309
             2.8253937    0.23472694665786
             0.6401217    0.81375731841339
 s    1 1.00
             0.1612778                   1

26 0
 s    3 1.00
             18.731137    0.03349459952309
             2.8253937    0.23472694665786
             0.6401217    0.81375731841339
 s    1 1.00
             0.1612778                   1

27 0
 s    3 1.00
             18.731137    0.03349459952309
             2.8253937    0.23472694665786
             0.6401217    0.81375731841339
 s    1 1.00
             0.1612778                   1

28 0
 s    3 1.00
             18.731137    0.03349459952309
             2.8253937    0.23472694665786
             0.6401217    0.81375731841339
 s    1 1.00
             0.1612778                   1

29 0
 s    3 1.00
             18.731137    0.03349459952309
             2.8253937    0.23472694665786
             0.6401217    0.81375731841339
 s    1 1.00
             0.1612778                   1

30 0
 s    3 1.00
             18.731137    0.03349459952309
             2.8253937    0.23472694665786
             0.6401217    0.81375731841339
 s    1 1.00
             0.1612778                   1

31 0
 s    3 1.00
             18.731137    0.03349459952309
             2.8253937    0.23472694665786
             0.6401217    0.81375731841339
 s    1 1.00
             0.1612778                   1

32 0
 s    3 1.00
             18.731137    0.03349459952309
             2.8253937    0.23472694665786
             0.6401217    0.81375731841339
 s    1 1.00
             0.1612778                   1

33 0
 s    6 1.00
             3047.5249  0.0018347001629433
             457.36951    0.01403730124668
             103.94869   0.068842606114048
             29.210155    0.23218442062076
              9.286663    0.46794134155879
              3.163927    0.36231203217765
 s    3 1.00
             7.8682724   -0.11933240861517
             1.8812885   -0.16085421161283
             0.5442493     1.1434564825515
 s    1 1.00
             0.1687144                   1
 p    3 1.00
             7.8682724   0.068999095584993
             1.8812885    0.31642397975315
             0.5442493    0.74430825237435
 p    1 1.00
             0.1687144                   1
 d    1 1.00
                   0.8                   1

34 0
 s    6 1.00
             3047.5249  0.0018347001629433
             457.36951    0.01403730124668
             103.94869   0.068842606114048
             29.210155    0.23218442062076
              9.286663    0.46794134155879
              3.163927    0.36231203217765
 s    3 1.00
             7.8682724   -0.11933240861517
             1.8812885   -0.16085421161283
             0.5442493     1.1434564825515
 s    1 1.00
             0.1687144                   1
 p    3 1.00
             7.8682724   0.068999095584993
             1.8812885    0.31642397975315
             0.5442493    0.74430825237435
 p    1 1.00
             0.1687144                   1
 d    1 1.00
                   0.8                   1

35 0
 s    3 1.00
             18.731137    0.03349459952309
             2.8253937    0.23472694665786
             0.6401217    0.81375731841339
 s    1 1.00
             0.1612778                   1

36 0
 s    6 1.00
             3047.5249  0.0018347001629433
             457.36951    0.01403730124668
             103.94869   0.068842606114048
             29.210155    0.23218442062076
              9.286663    0.46794134155879
              3.163927    0.36231203217765
 s    3 1.00
             7.8682724   -0.11933240861517
             1.8812885   -0.16085421161283
             0.5442493     1.1434564825515
 s    1 1.00
             0.1687144                   1
 p    3 1.00
             7.8682724   0.068999095584993
             1.8812885    0.31642397975315
             0.5442493    0.74430825237435
 p    1 1.00
             0.1687144                   1
 d    1 1.00
                   0.8                   1

37 0
 s    3 1.00
             18.731137    0.03349459952309
             2.8253937    0.23472694665786
             0.6401217    0.81375731841339
 s    1 1.00
             0.1612778                   1

38 0
 s    3 1.00
             18.731137    0.03349459952309
             2.8253937    0.23472694665786
             0.6401217    0.81375731841339
 s    1 1.00
             0.1612778                   1

39 0
 s    6 1.00
             3047.5249  0.0018347001629433
             457.36951    0.01403730124668
             103.94869   0.068842606114048
             29.210155    0.23218442062076
              9.286663    0.46794134155879
              3.163927    0.36231203217765
 s    3 1.00
             7.8682724   -0.11933240861517
             1.8812885   -0.16085421161283
             0.5442493     1.1434564825515
 s    1 1.00
             0.1687144                   1
 p    3 1.00
             7.8682724   0.068999095584993
             1.8812885    0.31642397975315
             0.5442493    0.74430825237435
 p    1 1.00
             0.1687144                   1
 d    1 1.00
                   0.8                   1

40 0
 s    6 1.00
             3047.5249  0.0018347001629433
             457.36951    0.01403730124668
             103.94869   0.068842606114048
             29.210155    0.23218442062076
              9.286663    0.46794134155879
              3.163927    0.36231203217765
 s    3 1.00
             7.8682724   -0.11933240861517
             1.8812885   -0.16085421161283
             0.5442493     1.1434564825515
 s    1 1.00
             0.1687144                   1
 p    3 1.00
             7.8682724   0.068999095584993
             1.8812885    0.31642397975315
             0.5442493    0.74430825237435
 p    1 1.00
             0.1687144                   1
 d    1 1.00
                   0.8                   1

41 0
 s    3 1.00
             18.731137    0.03349459952309
             2.8253937    0.23472694665786
             0.6401217    0.81375731841339
 s    1 1.00
             0.1612778                   1

42 0
 s    6 1.00
             5484.6717   0.001831099805527
             825.23495   0.013950098518422
             188.04696    0.06844509273075
               52.9645    0.23271427528445
              16.89757    0.47019295006289
             5.7996353    0.35852086192309
 s    3 1.00
             15.539616   -0.11077750382508
             3.5999336   -0.14802630511126
             1.0137618     1.1307670390447
 s    1 1.00
             0.2700058                   1
 p    3 1.00
             15.539616   0.070874299543311
             3.5999336    0.33975279781076
             1.0137618    0.72715859531445
 p    1 1.00
             0.2700058                   1
 d    1 1.00
                   0.8                   1

43 0
 s    3 1.00
             18.731137    0.03349459952309
             2.8253937    0.23472694665786
             0.6401217    0.81375731841339
 s    1 1.00
             0.1612778                   1

[5d]
[7f]
[9g]

[MO]
 Sym= A
 Ene=               0
 Spin= Alpha
 Occup=    1.00000
   1     0.001773316926172
   2       0.1801403027613
   3      0.10339173962767
   4    -0.048652244616869
   5     -0.03024543654863
   6     0.088261773650741
   7     0.010070379824308
   8    -0.0043180098328897
   9     0.032726094492884
  10    0.0022951738057008
  11    -0.003693846956306
  12    -0.0029766215062762
  13    0.0046104123875262
  14    0.0037218952513018
  15     0.038857011914441
  16    -0.0020892285142184
  17    -0.0042762673374873
  18     0.026086752015524
  19      0.02882875897069
  20    -0.0048731206645913
  21    -0.0071952606377187
  22     0.034288525267131
  23    0.0045712803059439
  24    6.0012787262251e-05
  25     0.021864888655865
  26    0.0042010815665645
  27    0.0015194518061563
  28    -0.0013683173333527
  29    0.00064064659701307
  30    0.00025158941309115
  31    0.0082607021372657
  32    0.0056142992354212
  33    -0.0057600241676328
  34     0.033222076387662
  35      0.02723486021297
  36    0.0083076179172159
  37    0.0010005105432756
  38    -0.042088357322754
  39    0.00053512042950531
  40    -0.00023532118729183
  41    -0.024845928190912
  42    0.0055856740146085
  43    0.00041022664855852
  44    0.0021396711058481
  45    0.00010296210957542
  46    0.00088908466685708
  47    0.0095683088234945
  48     0.004108021891388
  49    0.0015102873593749
  50      0.24001883167608
  51      0.14420011049193
  52     0.061716757074459
  53     0.031797487605133
  54     -0.12314262030069
  55    -0.0046875648989696
  56    -0.010727177031464
  57    -0.039709709215284
  58    0.0038398600453834
  59    -0.0054472781380741
  60    -0.0023322841246656
  61    0.0022453056511915
  62     0.007290822951947
  63      0.05219857580021
  64    -0.0024505365395994
  65    2.1595754291388e-05
  66    7.4593407085321e-06
  67    1.0500342703765e-05
  68    1.3134711329745e-05
  69    -0.00019253695409098
  70    -2.5840167519484e-05
  71    -1.5210540043585e-06
  72    1.3554241420713e-05
  73    0.00011285119865932
  74    0.00023401565022812
  75    0.00013052308125421
  76    1.4703449737011e-05
  77    7.3170427463916e-06
  78    -6.1122111497286e-06
  79    -4.4718765040654e-06
  80    5.9716442749899e-06
  81    7.5454459687944e-06
  82    0.00019874740178714
  83    -1.5291313769676e-05
  84    8.3252128351831e-05
  85    0.00052993108884913
  86    -7.1909579510704e-05
  87    6.401114851352e-05
  88    -0.00016719029073566
  89    -0.00020273835512897
  90    -0.00023272623719347
  91    -0.00022353457892352
  92    -4.5134307055597e-06
  93    1.7645868572499e-05
  94    1.1275255402708e-06
  95    -2.2419984081305e-07
  96    1.4733003569784e-06
  97    1.9221183747247e-05
  98    0.00012279028974808
  99    -5.6129990687361e-05
 100    -0.00013270617053515
 101    4.5330183718873e-05
 102    -2.4742069355637e-05
 103    -0.00076015593934258
 104    -8.6281298394509e-05
 105    -9.895173741725e-05
 106    0.00021694920430313
 107    0.0012975862465329
 108    -0.00053375238205331
 109    -0.0013625272941129
 110    1.7696034888962e-05
 111    4.393422852874e-05
 112    -1.3706105173589e-05
 113    -3.0085960879609e-05
 114     2.17339122905e-05
 115    3.3859489991545e-05
 116    -0.00012210062366358
 117    -0.00090128385314609
 118    5.731046243207e-05
 119    -0.00018957779965814
 120    -1.2144301273197e-05
 121    0.00015925831115536
 122    1.6778068590687e-05
 123    -0.00085408244900874
 124    7.016460194105e-06
 125    2.0266234139849e-05
 126    -2.5342628018843e-05
 127    6.3349423481686e-06
 128    1.3162843228495e-05
 129    -2.0479423865751e-05
 130    0.00036421903337034
 131    -0.0061632907801596
 132    -0.00013307060911362
 133    -9.5060543611983e-05
 134    -0.00043705455874607
 135    0.0010761065492555
 136    -0.00072852119924417
 137    0.0062166666861904
 138    -0.00019354779294172
 139    5.2105546446863e-05
 140    5.1298729640637e-05
 141    2.3231006290963e-05
 142    3.573278471283e-05
 143    3.5556448911588e-05
 144    -5.5482816227887e-05
 145    -0.00085914118488549
 146    6.7213845053645e-06
 147    7.5712294205887e-05
 148    0.00024956180771879
 149    -0.0012947725420168
 150    0.00066988296409387
 151    -0.0010043297318598
 152    4.7030050474554e-05
 153    -1.6318291222193e-05
 154    -1.5994693839362e-05
 155    -2.8587896387166e-05
 156    2.8352938039429e-05
 157    9.0232881743151e-06
 158    6.859851988099e-05
 159    -0.00068590292414298
 160    2.6007215721657e-05
 161    2.3920202009612e-06
 162    -1.7079898128441e-05
 163    4.1245144119081e-05
 164     0.000441231745908
 165    0.00011834095836513
 166    1.285417912292e-05
 167    -7.8719485824694e-07
 168    -1.2417197851308e-06
 169    2.6841226449493e-05
 170    -3.7316495929047e-06
 171    3.0257008132151e-06
 172    -0.00013054860846417
 173    0.00023064988766667
 174    -7.7730017005072e-06
 175    8.9475708402893e-06
 176    0.00012943329846738
 177    9.3040321166975e-05
 178    -0.00039793491477261
 179    -0.00012807468675639
 180    5.0471630167885e-06
 181    3.0316889516328e-05
 182    1.1856351005683e-05
 183    1.4766339939442e-05
 184    -6.2541727151431e-06
 185    -9.0492869437336e-06
 186    3.0570362046537e-05
 187    0.00078110325541329
 188    7.7452580046721e-06
 189    -2.5789756595056e-05
 190    -0.0001590440177448
 191    -0.00049951140838442
 192    -0.00017351053464517
 193    -0.00024031733470708
 194    9.351069828675e-06
 195    2.1675344301722e-05
 196    1.0445457786902e-05
 197    -2.7997743185145e-06
 198    1.2032413453143e-05
 199    8.8678187528862e-07
 200    0.00016647180811777
 201    -6.8961970312623e-05
 202    -0.00023929714081777
 203    7.4762922663582e-05
 204    0.00039684364791286
 205    -7.8134483428825e-05
 206    -5.3109989097692e-05
 207    7.9372459719924e-05
 208    -0.00051583401272117
 209    5.1266480387353e-05
 210    8.8392186846983e-05
 211    1.7769790060042e-05
 212    -5.7487903881021e-05
 213    -2.6170423653432e-06
 214    -0.00011084225570861
 215    5.683338218132e-06
 216    -0.00052671030960436
 217     1.72868538245e-05
 218    0.00020201477088588
 219    -1.0843823598769e-05
 220    -0.00022311781169352
 221    0.00068937441936233
 222    -0.0014241104459914
 223     0.010917696821142
 224    -0.00063465362642916
 225    -0.00042943734249453
 226    0.0017533733126958
 227    0.0092089738267888
 228    0.0010323534420186
 229    0.0053870189400012
 230    9.2513949075718e-05
 231    -7.6331616868004e-05
 232    -8.7489880923423e-05
 233    4.9861883215517e-05
 234    7.5979287765206e-05
 235    -0.0046833351858026
 236     0.024468358139932
 237     0.014032592183115
 238     0.002846764933293
 239     0.006697074751651
 240    -0.028181781129386
 241    0.0021194299779839
 242    0.0041077199751342
 243    -0.016362144351108
 244    0.0040045458631396
 245    0.0014491725341407
 246    -0.0011440636916007
 247    0.00053777221503004
 248    5.2070380937899e-05
 249    0.00029323927529029
 250    0.0049568083655599
 251     0.001560695267693
 252      0.17906435352403
 253      0.11707140862332
 254     0.045722630535815
 255     0.030856867717512
 256    -0.091415573337354
 257    -0.0082820624937536
 258    0.0048879482836175
 259    -0.033556245636248
 260     0.002676759110038
 261    -0.0038849309528017
 262    -0.0031279197000641
 263    0.0046511889144698
 264    0.0036572398352066
 265    0.0062069435743008
 266    0.00093566714320179
 267     0.040148303634489
 268    -0.0021477778303269
 269    0.0028773809946095
 270      0.23473464863874
 271      0.15905502406378
 272    -0.058343060891389
 273     -0.02923766861701
 274      0.12148972760178
 275    0.0024837337796921
 276    0.0084954284993449
 277      0.03846422657372
 278    0.0041157982666218
 279    -0.0060188733354952
 280    -0.0028357083190917
 281    0.0021833750240358
 282    0.0075403050786464
 283    -0.0070622977184941
 284     0.036439336883481
 285     0.018481370672443