[Molden Format]
made by pyscf v[2.0.1]
[Atoms] (AU)
C   1   6     0.69100024066471     0.64692934207205    -3.48223131169301
H   2   1     2.68052439830868     1.13355088658700    -3.25784032593313
C   3   6    -0.36286361513219     0.85440132524594    -5.97030179418974
H   4   1    -2.35448549047279     0.36322488579172    -6.17995817793143
C   5   6     0.93697958957450     1.61209284601821    -8.05828437677121
H   6   1    -0.06960811584452     2.58702669474359    -9.56733307637730
C   7   6     3.59571274713804     1.19684402678434    -8.39738626626495
H   8   1     4.57899779978681     0.21871567749258    -6.86894337963000
H   9   1     1.55630230933075    -1.92953025305990    12.99630010416247
C   10   6     0.75233899775814    -2.21270439606481    11.10705728102219
H   11   1    -0.43433408177274    -3.90944857546550    11.22216085340412
C   12   6     2.86362581178706    -2.63237380607947     9.17926416456045
H   13   1     4.39038949912609    -1.24955421540245     9.49899813497433
H   14   1     3.74629220191363    -4.48798724300892     9.47414880959024
C   15   6     2.02478325613682    -2.42177285709634     6.44560829588644
C   16   6     3.88048732735477    -3.58795445234514     4.61402886975252
C   17   6    -0.18412382258602    -1.30464291234259     5.76021113872346
C   18   6    -2.10044360464350    -0.26837831858460     7.71610340967100
C   19   6    -3.08956938670431     2.35282328359417     6.88693925039594
C   20   6    -4.37372924086464    -2.09766595989678     7.93610724222001
C   21   6    -0.83850430601230     0.06372213486173    10.33002307638377
H   22   1     0.38411922151109     1.74281358582432    10.27380136542181
H   23   1    -2.30980003007874     0.45460143924521    11.73986301809809
H   24   1     4.58527064644668    -5.38706904487420     5.36778158031719
H   25   1     5.54944938085014    -2.37631462192748     4.35398898413318
H   26   1     3.06633019150423    -3.94118377050688     2.75255466040884
H   27   1    -4.17727778763735     2.26573369139522     5.12914900961283
H   28   1    -1.52662344944051     3.68001877445626     6.59540397144508
H   29   1    -4.32916174397830     3.13643051467482     8.35225460090378
H   30   1    -5.32329548508442    -2.36691813602939     6.11583672749896
H   31   1    -5.77989366602257    -1.33896741843465     9.25748940450990
H   32   1    -3.79310905208926    -3.96389819310853     8.61386170102686
C   33   6    -1.01100794811226    -1.06331657314144     3.11929490449947
C   34   6     0.37686231036534    -0.33275864505552     1.09165013605873
H   35   1    -3.01671213906703    -1.40297922279997     2.77827895090944
C   36   6    -0.64382707979370    -0.11591880174385    -1.42063131251064
H   37   1     2.35569259782137     0.17174499283897     1.33641070251401
H   38   1    -2.63317482980319    -0.60229203511219    -1.66119700387645
C   39   6     4.96665860975130     1.91437223239220   -10.44247655051683
C   40   6     7.67160233174465     1.40206885234173   -10.60935163126053
H   41   1     4.10375913642339     2.89528826049847   -12.03023490303406
O   42   8     9.01623610133373     1.99111078946158   -12.38862500825095
H   43   1     8.47573431044455     0.39495244048141    -8.94223819440966
[GTO]
1 0
 s    6 1.00
             3047.5249  0.0018347001629433
             457.36951    0.01403730124668
             103.94869   0.068842606114048
             29.210155    0.23218442062076
              9.286663    0.46794134155879
              3.163927    0.36231203217765
 s    3 1.00
             7.8682724   -0.11933240861517
             1.8812885   -0.16085421161283
             0.5442493     1.1434564825515
 s    1 1.00
             0.1687144                   1
 p    3 1.00
             7.8682724   0.068999095584993
             1.8812885    0.31642397975315
             0.5442493    0.74430825237435
 p    1 1.00
             0.1687144                   1
 d    1 1.00
                   0.8                   1

2 0
 s    3 1.00
             18.731137    0.03349459952309
             2.8253937    0.23472694665786
             0.6401217    0.81375731841339
 s    1 1.00
             0.1612778                   1

3 0
 s    6 1.00
             3047.5249  0.0018347001629433
             457.36951    0.01403730124668
             103.94869   0.068842606114048
             29.210155    0.23218442062076
              9.286663    0.46794134155879
              3.163927    0.36231203217765
 s    3 1.00
             7.8682724   -0.11933240861517
             1.8812885   -0.16085421161283
             0.5442493     1.1434564825515
 s    1 1.00
             0.1687144                   1
 p    3 1.00
             7.8682724   0.068999095584993
             1.8812885    0.31642397975315
             0.5442493    0.74430825237435
 p    1 1.00
             0.1687144                   1
 d    1 1.00
                   0.8                   1

4 0
 s    3 1.00
             18.731137    0.03349459952309
             2.8253937    0.23472694665786
             0.6401217    0.81375731841339
 s    1 1.00
             0.1612778                   1

5 0
 s    6 1.00
             3047.5249  0.0018347001629433
             457.36951    0.01403730124668
             103.94869   0.068842606114048
             29.210155    0.23218442062076
              9.286663    0.46794134155879
              3.163927    0.36231203217765
 s    3 1.00
             7.8682724   -0.11933240861517
             1.8812885   -0.16085421161283
             0.5442493     1.1434564825515
 s    1 1.00
             0.1687144                   1
 p    3 1.00
             7.8682724   0.068999095584993
             1.8812885    0.31642397975315
             0.5442493    0.74430825237435
 p    1 1.00
             0.1687144                   1
 d    1 1.00
                   0.8                   1

6 0
 s    3 1.00
             18.731137    0.03349459952309
             2.8253937    0.23472694665786
             0.6401217    0.81375731841339
 s    1 1.00
             0.1612778                   1

7 0
 s    6 1.00
             3047.5249  0.0018347001629433
             457.36951    0.01403730124668
             103.94869   0.068842606114048
             29.210155    0.23218442062076
              9.286663    0.46794134155879
              3.163927    0.36231203217765
 s    3 1.00
             7.8682724   -0.11933240861517
             1.8812885   -0.16085421161283
             0.5442493     1.1434564825515
 s    1 1.00
             0.1687144                   1
 p    3 1.00
             7.8682724   0.068999095584993
             1.8812885    0.31642397975315
             0.5442493    0.74430825237435
 p    1 1.00
             0.1687144                   1
 d    1 1.00
                   0.8                   1

8 0
 s    3 1.00
             18.731137    0.03349459952309
             2.8253937    0.23472694665786
             0.6401217    0.81375731841339
 s    1 1.00
             0.1612778                   1

9 0
 s    3 1.00
             18.731137    0.03349459952309
             2.8253937    0.23472694665786
             0.6401217    0.81375731841339
 s    1 1.00
             0.1612778                   1

10 0
 s    6 1.00
             3047.5249  0.0018347001629433
             457.36951    0.01403730124668
             103.94869   0.068842606114048
             29.210155    0.23218442062076
              9.286663    0.46794134155879
              3.163927    0.36231203217765
 s    3 1.00
             7.8682724   -0.11933240861517
             1.8812885   -0.16085421161283
             0.5442493     1.1434564825515
 s    1 1.00
             0.1687144                   1
 p    3 1.00
             7.8682724   0.068999095584993
             1.8812885    0.31642397975315
             0.5442493    0.74430825237435
 p    1 1.00
             0.1687144                   1
 d    1 1.00
                   0.8                   1

11 0
 s    3 1.00
             18.731137    0.03349459952309
             2.8253937    0.23472694665786
             0.6401217    0.81375731841339
 s    1 1.00
             0.1612778                   1

12 0
 s    6 1.00
             3047.5249  0.0018347001629433
             457.36951    0.01403730124668
             103.94869   0.068842606114048
             29.210155    0.23218442062076
              9.286663    0.46794134155879
              3.163927    0.36231203217765
 s    3 1.00
             7.8682724   -0.11933240861517
             1.8812885   -0.16085421161283
             0.5442493     1.1434564825515
 s    1 1.00
             0.1687144                   1
 p    3 1.00
             7.8682724   0.068999095584993
             1.8812885    0.31642397975315
             0.5442493    0.74430825237435
 p    1 1.00
             0.1687144                   1
 d    1 1.00
                   0.8                   1

13 0
 s    3 1.00
             18.731137    0.03349459952309
             2.8253937    0.23472694665786
             0.6401217    0.81375731841339
 s    1 1.00
             0.1612778                   1

14 0
 s    3 1.00
             18.731137    0.03349459952309
             2.8253937    0.23472694665786
             0.6401217    0.81375731841339
 s    1 1.00
             0.1612778                   1

15 0
 s    6 1.00
             3047.5249  0.0018347001629433
             457.36951    0.01403730124668
             103.94869   0.068842606114048
             29.210155    0.23218442062076
              9.286663    0.46794134155879
              3.163927    0.36231203217765
 s    3 1.00
             7.8682724   -0.11933240861517
             1.8812885   -0.16085421161283
             0.5442493     1.1434564825515
 s    1 1.00
             0.1687144                   1
 p    3 1.00
             7.8682724   0.068999095584993
             1.8812885    0.31642397975315
             0.5442493    0.74430825237435
 p    1 1.00
             0.1687144                   1
 d    1 1.00
                   0.8                   1

16 0
 s    6 1.00
             3047.5249  0.0018347001629433
             457.36951    0.01403730124668
             103.94869   0.068842606114048
             29.210155    0.23218442062076
              9.286663    0.46794134155879
              3.163927    0.36231203217765
 s    3 1.00
             7.8682724   -0.11933240861517
             1.8812885   -0.16085421161283
             0.5442493     1.1434564825515
 s    1 1.00
             0.1687144                   1
 p    3 1.00
             7.8682724   0.068999095584993
             1.8812885    0.31642397975315
             0.5442493    0.74430825237435
 p    1 1.00
             0.1687144                   1
 d    1 1.00
                   0.8                   1

17 0
 s    6 1.00
             3047.5249  0.0018347001629433
             457.36951    0.01403730124668
             103.94869   0.068842606114048
             29.210155    0.23218442062076
              9.286663    0.46794134155879
              3.163927    0.36231203217765
 s    3 1.00
             7.8682724   -0.11933240861517
             1.8812885   -0.16085421161283
             0.5442493     1.1434564825515
 s    1 1.00
             0.1687144                   1
 p    3 1.00
             7.8682724   0.068999095584993
             1.8812885    0.31642397975315
             0.5442493    0.74430825237435
 p    1 1.00
             0.1687144                   1
 d    1 1.00
                   0.8                   1

18 0
 s    6 1.00
             3047.5249  0.0018347001629433
             457.36951    0.01403730124668
             103.94869   0.068842606114048
             29.210155    0.23218442062076
              9.286663    0.46794134155879
              3.163927    0.36231203217765
 s    3 1.00
             7.8682724   -0.11933240861517
             1.8812885   -0.16085421161283
             0.5442493     1.1434564825515
 s    1 1.00
             0.1687144                   1
 p    3 1.00
             7.8682724   0.068999095584993
             1.8812885    0.31642397975315
             0.5442493    0.74430825237435
 p    1 1.00
             0.1687144                   1
 d    1 1.00
                   0.8                   1

19 0
 s    6 1.00
             3047.5249  0.0018347001629433
             457.36951    0.01403730124668
             103.94869   0.068842606114048
             29.210155    0.23218442062076
              9.286663    0.46794134155879
              3.163927    0.36231203217765
 s    3 1.00
             7.8682724   -0.11933240861517
             1.8812885   -0.16085421161283
             0.5442493     1.1434564825515
 s    1 1.00
             0.1687144                   1
 p    3 1.00
             7.8682724   0.068999095584993
             1.8812885    0.31642397975315
             0.5442493    0.74430825237435
 p    1 1.00
             0.1687144                   1
 d    1 1.00
                   0.8                   1

20 0
 s    6 1.00
             3047.5249  0.0018347001629433
             457.36951    0.01403730124668
             103.94869   0.068842606114048
             29.210155    0.23218442062076
              9.286663    0.46794134155879
              3.163927    0.36231203217765
 s    3 1.00
             7.8682724   -0.11933240861517
             1.8812885   -0.16085421161283
             0.5442493     1.1434564825515
 s    1 1.00
             0.1687144                   1
 p    3 1.00
             7.8682724   0.068999095584993
             1.8812885    0.31642397975315
             0.5442493    0.74430825237435
 p    1 1.00
             0.1687144                   1
 d    1 1.00
                   0.8                   1

21 0
 s    6 1.00
             3047.5249  0.0018347001629433
             457.36951    0.01403730124668
             103.94869   0.068842606114048
             29.210155    0.23218442062076
              9.286663    0.46794134155879
              3.163927    0.36231203217765
 s    3 1.00
             7.8682724   -0.11933240861517
             1.8812885   -0.16085421161283
             0.5442493     1.1434564825515
 s    1 1.00
             0.1687144                   1
 p    3 1.00
             7.8682724   0.068999095584993
             1.8812885    0.31642397975315
             0.5442493    0.74430825237435
 p    1 1.00
             0.1687144                   1
 d    1 1.00
                   0.8                   1

22 0
 s    3 1.00
             18.731137    0.03349459952309
             2.8253937    0.23472694665786
             0.6401217    0.81375731841339
 s    1 1.00
             0.1612778                   1

23 0
 s    3 1.00
             18.731137    0.03349459952309
             2.8253937    0.23472694665786
             0.6401217    0.81375731841339
 s    1 1.00
             0.1612778                   1

24 0
 s    3 1.00
             18.731137    0.03349459952309
             2.8253937    0.23472694665786
             0.6401217    0.81375731841339
 s    1 1.00
             0.1612778                   1

25 0
 s    3 1.00
             18.731137    0.03349459952309
             2.8253937    0.23472694665786
             0.6401217    0.81375731841339
 s    1 1.00
             0.1612778                   1

26 0
 s    3 1.00
             18.731137    0.03349459952309
             2.8253937    0.23472694665786
             0.6401217    0.81375731841339
 s    1 1.00
             0.1612778                   1

27 0
 s    3 1.00
             18.731137    0.03349459952309
             2.8253937    0.23472694665786
             0.6401217    0.81375731841339
 s    1 1.00
             0.1612778                   1

28 0
 s    3 1.00
             18.731137    0.03349459952309
             2.8253937    0.23472694665786
             0.6401217    0.81375731841339
 s    1 1.00
             0.1612778                   1

29 0
 s    3 1.00
             18.731137    0.03349459952309
             2.8253937    0.23472694665786
             0.6401217    0.81375731841339
 s    1 1.00
             0.1612778                   1

30 0
 s    3 1.00
             18.731137    0.03349459952309
             2.8253937    0.23472694665786
             0.6401217    0.81375731841339
 s    1 1.00
             0.1612778                   1

31 0
 s    3 1.00
             18.731137    0.03349459952309
             2.8253937    0.23472694665786
             0.6401217    0.81375731841339
 s    1 1.00
             0.1612778                   1

32 0
 s    3 1.00
             18.731137    0.03349459952309
             2.8253937    0.23472694665786
             0.6401217    0.81375731841339
 s    1 1.00
             0.1612778                   1

33 0
 s    6 1.00
             3047.5249  0.0018347001629433
             457.36951    0.01403730124668
             103.94869   0.068842606114048
             29.210155    0.23218442062076
              9.286663    0.46794134155879
              3.163927    0.36231203217765
 s    3 1.00
             7.8682724   -0.11933240861517
             1.8812885   -0.16085421161283
             0.5442493     1.1434564825515
 s    1 1.00
             0.1687144                   1
 p    3 1.00
             7.8682724   0.068999095584993
             1.8812885    0.31642397975315
             0.5442493    0.74430825237435
 p    1 1.00
             0.1687144                   1
 d    1 1.00
                   0.8                   1

34 0
 s    6 1.00
             3047.5249  0.0018347001629433
             457.36951    0.01403730124668
             103.94869   0.068842606114048
             29.210155    0.23218442062076
              9.286663    0.46794134155879
              3.163927    0.36231203217765
 s    3 1.00
             7.8682724   -0.11933240861517
             1.8812885   -0.16085421161283
             0.5442493     1.1434564825515
 s    1 1.00
             0.1687144                   1
 p    3 1.00
             7.8682724   0.068999095584993
             1.8812885    0.31642397975315
             0.5442493    0.74430825237435
 p    1 1.00
             0.1687144                   1
 d    1 1.00
                   0.8                   1

35 0
 s    3 1.00
             18.731137    0.03349459952309
             2.8253937    0.23472694665786
             0.6401217    0.81375731841339
 s    1 1.00
             0.1612778                   1

36 0
 s    6 1.00
             3047.5249  0.0018347001629433
             457.36951    0.01403730124668
             103.94869   0.068842606114048
             29.210155    0.23218442062076
              9.286663    0.46794134155879
              3.163927    0.36231203217765
 s    3 1.00
             7.8682724   -0.11933240861517
             1.8812885   -0.16085421161283
             0.5442493     1.1434564825515
 s    1 1.00
             0.1687144                   1
 p    3 1.00
             7.8682724   0.068999095584993
             1.8812885    0.31642397975315
             0.5442493    0.74430825237435
 p    1 1.00
             0.1687144                   1
 d    1 1.00
                   0.8                   1

37 0
 s    3 1.00
             18.731137    0.03349459952309
             2.8253937    0.23472694665786
             0.6401217    0.81375731841339
 s    1 1.00
             0.1612778                   1

38 0
 s    3 1.00
             18.731137    0.03349459952309
             2.8253937    0.23472694665786
             0.6401217    0.81375731841339
 s    1 1.00
             0.1612778                   1

39 0
 s    6 1.00
             3047.5249  0.0018347001629433
             457.36951    0.01403730124668
             103.94869   0.068842606114048
             29.210155    0.23218442062076
              9.286663    0.46794134155879
              3.163927    0.36231203217765
 s    3 1.00
             7.8682724   -0.11933240861517
             1.8812885   -0.16085421161283
             0.5442493     1.1434564825515
 s    1 1.00
             0.1687144                   1
 p    3 1.00
             7.8682724   0.068999095584993
             1.8812885    0.31642397975315
             0.5442493    0.74430825237435
 p    1 1.00
             0.1687144                   1
 d    1 1.00
                   0.8                   1

40 0
 s    6 1.00
             3047.5249  0.0018347001629433
             457.36951    0.01403730124668
             103.94869   0.068842606114048
             29.210155    0.23218442062076
              9.286663    0.46794134155879
              3.163927    0.36231203217765
 s    3 1.00
             7.8682724   -0.11933240861517
             1.8812885   -0.16085421161283
             0.5442493     1.1434564825515
 s    1 1.00
             0.1687144                   1
 p    3 1.00
             7.8682724   0.068999095584993
             1.8812885    0.31642397975315
             0.5442493    0.74430825237435
 p    1 1.00
             0.1687144                   1
 d    1 1.00
                   0.8                   1

41 0
 s    3 1.00
             18.731137    0.03349459952309
             2.8253937    0.23472694665786
             0.6401217    0.81375731841339
 s    1 1.00
             0.1612778                   1

42 0
 s    6 1.00
             5484.6717   0.001831099805527
             825.23495   0.013950098518422
             188.04696    0.06844509273075
               52.9645    0.23271427528445
              16.89757    0.47019295006289
             5.7996353    0.35852086192309
 s    3 1.00
             15.539616   -0.11077750382508
             3.5999336   -0.14802630511126
             1.0137618     1.1307670390447
 s    1 1.00
             0.2700058                   1
 p    3 1.00
             15.539616   0.070874299543311
             3.5999336    0.33975279781076
             1.0137618    0.72715859531445
 p    1 1.00
             0.2700058                   1
 d    1 1.00
                   0.8                   1

43 0
 s    3 1.00
             18.731137    0.03349459952309
             2.8253937    0.23472694665786
             0.6401217    0.81375731841339
 s    1 1.00
             0.1612778                   1

[5d]
[7f]
[9g]

[MO]
 Sym= A
 Ene=               0
 Spin= Alpha
 Occup=    1.00000
   1    -0.00049079906795658
   2    -0.098628277114399
   3     -0.05089970531614
   4     0.025894152898069
   5     0.015227785868531
   6    -0.051310497476574
   7    -0.010450049006298
   8    -0.0018966805243005
   9    -0.016604073464874
  10    -0.0013969243550359
  11    0.0020907316343177
  12    0.0016701096505815
  13    -0.0025397566536839
  14    -0.0018721070617975
  15      -0.0214352632363
  16      0.00355561958366
  17    0.0038880804174676
  18     -0.01604239012885
  19    0.0061293226679272
  20    -0.00042120793736293
  21    0.0033907080184339
  22     -0.01355204290547
  23    0.00075440801286825
  24    0.0082193681623807
  25    -0.023074305982412
  26    -0.0021087382567222
  27    -0.0010151494884246
  28    0.0003824417336775
  29    -0.00042166902246354
  30    0.00016276151280422
  31    -0.0039366290104585
  32    -0.0026473441854714
  33    -0.0079380666803395
  34     0.040879733747223
  35    0.0098595800087482
  36     0.038451375986904
  37    0.0042636085338015
  38    -0.024805784087347
  39     0.024576838257427
  40    0.0076610548028627
  41    -0.021835436545107
  42    -0.0022416500414379
  43    -0.0030431235265586
  44    -0.00024528369873852
  45    0.0057388569230587
  46    -0.0011116042032757
  47     0.010666836981937
  48    0.00090775255051067
  49    0.0017114945199279
  50      0.28262135728916
  51      0.17654029162343
  52      0.10197321245368
  53     0.038896604962034
  54     -0.12665356354493
  55     0.045211740028415
  56    -0.0064738661282546
  57    -0.0095401580003194
  58    0.0065034240066511
  59    -0.0049445600190687
  60    -0.0083558610526963
  61    0.0040853281701263
  62    -0.00016702896725726
  63     0.062748551380015
  64    -0.0034383067906016
  65    -1.5292910599434e-05
  66    -1.8427637567377e-05
  67    -2.9358351072922e-06
  68    -6.0383918781504e-06
  69    0.00011148683883284
  70     1.00494280474e-05
  71    1.8834986383588e-06
  72    -1.0101346543945e-05
  73    -7.2077043815115e-05
  74    -0.00011094031818289
  75    -5.7856044868025e-05
  76    -9.1266471377263e-06
  77    -3.3377115178464e-06
  78    3.2362197563166e-06
  79    2.152572686182e-06
  80    -4.1377139234554e-06
  81    -3.1312852141307e-06
  82    -9.8114936021143e-05
  83    1.1385420393469e-05
  84    -6.275953922466e-05
  85    -0.00029377189669625
  86    4.2785250387457e-05
  87    -3.9215698128494e-05
  88    0.00011194479794504
  89    9.4386162305412e-05
  90    0.00014970394808756
  91    0.00015228379599205
  92    3.0428985178131e-06
  93    -6.4584428920687e-06
  94    -2.4952760972416e-06
  95    1.6887843728373e-06
  96    -6.4475188466393e-07
  97    -6.854686544121e-06
  98    -4.1492703400051e-05
  99    3.1386574228767e-05
 100    6.2725724923211e-05
 101    -2.4067198608449e-05
 102    4.2899692290938e-05
 103    -0.00011405696438032
 104    2.4352035539586e-05
 105    2.2524409251533e-05
 106    -0.00011012302347955
 107    -0.0005601750856375
 108    4.5982392935852e-05
 109    0.00086023676725748
 110    -1.7921963068785e-05
 111    -3.2665055213211e-05
 112    1.2741765277893e-05
 113    1.6735931921073e-05
 114    -6.8396692848473e-06
 115    -2.8522758729241e-05
 116    5.2731215220256e-05
 117    0.0005779261896601
 118    -2.7083960566294e-05
 119    9.8589736991796e-05
 120    3.1224711021301e-05
 121    -0.00015395462009767
 122    0.00018821048592985
 123    0.00036144296690669
 124    -6.4776404988565e-06
 125    -1.3299185260695e-05
 126    1.8836415904956e-05
 127    1.853477320457e-06
 128    -4.5068935375806e-06
 129    3.6879337456176e-05
 130    -0.00027829287771419
 131    0.0028109906627371
 132    0.00010747407585431
 133    0.00010284611182756
 134    0.00039430921203263
 135    0.0001882599243683
 136    0.00037758946135707
 137    -0.0031048268352609
 138    0.00010255312093479
 139    -3.851643965144e-05
 140    -4.6438585414693e-05
 141    -1.4280815178445e-05
 142    -2.7102386327956e-05
 143    -2.7741059969325e-05
 144    3.5873486784254e-05
 145    0.00079599323441283
 146    1.9053891510211e-05
 147    -5.9934871236154e-05
 148    -0.00018286790382246
 149    0.00076704404093817
 150    -0.00064064732953862
 151    0.00051540688237552
 152    -2.4148263628651e-05
 153    2.5819311948807e-06
 154    1.5290763935762e-05
 155    1.8133458770862e-05
 156    -1.378051659929e-05
 157    -4.762578012117e-06
 158    -6.0851551494367e-05
 159    0.00050321297543077
 160    -1.6250127617097e-05
 161    1.3637225471283e-07
 162    1.8858015386085e-05
 163    3.3261205736776e-05
 164    -0.00029422268199109
 165    -4.9895420919802e-05
 166    -9.056563873847e-06
 167    -1.1418021695427e-06
 168    3.2532307069755e-07
 169    -1.5312262370063e-05
 170    -1.6731322205925e-06
 171    -6.6489098976175e-06
 172    7.0538489231939e-05
 173    -0.00015478029519637
 174    1.0916840615424e-05
 175    2.0807988748553e-06
 176    -8.1660254337859e-05
 177    -0.00011233119549211
 178    0.0001834805175122
 179    1.468137989071e-05
 180    -3.4655729844159e-07
 181    -1.8210478320853e-05
 182    -6.7858840187468e-06
 183    -1.0402946946287e-05
 184    1.1830341232246e-06
 185    1.2775795163508e-05
 186    -5.6924953054898e-06
 187    -0.00054576174933276
 188    7.4822293458552e-06
 189    1.6328717496845e-05
 190    0.00011050983522342
 191    0.00025264932001202
 192    0.00017119340937722
 193    0.00020628259777322
 194    -6.0925132481501e-06
 195    -1.5293267045436e-05
 196    -9.1981516972801e-06
 197    2.7063662797109e-06
 198    -7.319433371644e-06
 199    4.5480408483314e-06
 200    -9.8273281564393e-05
 201    4.4440529899043e-05
 202    0.0001272172435393
 203    -4.0902254366317e-05
 204    -0.00011547587386193
 205    4.2737277373243e-05
 206    2.5962288053948e-05
 207    -6.4142504853307e-05
 208    0.00022461405830595
 209    -3.7469652450863e-05
 210    -5.5331715361911e-05
 211    -1.6136291356278e-05
 212    1.5105636061254e-05
 213    8.5359697466364e-06
 214    9.5415887045697e-05
 215    8.2976895752892e-06
 216    0.00017066265473601
 217    -1.4219969307054e-05
 218    -9.4339310557538e-05
 219    2.4025740495405e-06
 220    0.00012910931980069
 221    -0.00047896213121077
 222    0.0010737457541211
 223    -0.0061944347088833
 224    0.00049060114511436
 225    0.0004210213748959
 226    -0.0012483401674078
 227    -0.0048493615054697
 228    -0.00062498145141044
 229    -0.0016883608362576
 230    -9.6459132640152e-05
 231    7.1241854639729e-05
 232    9.6724645429276e-05
 233    -1.9149135288387e-05
 234    -5.0793297745297e-05
 235     0.002913601232285
 236    -0.016034814829375
 237    -0.0051107177114823
 238    -0.001769720876104
 239    -0.004637019985551
 240     0.017603416133873
 241    -0.0022680927603301
 242    -0.0024754937557824
 243    0.0080511584963421
 244    -0.0021616102144964
 245    -0.00087080907279363
 246    0.00067590773483196
 247    -0.00033236957443173
 248    -2.4390883860385e-05
 249    -7.8924379023367e-05
 250    -0.0025025310851649
 251    -0.0012339069034552
 252     -0.10095570496779
 253    -0.073681817621787
 254    -0.026048189553849
 255    -0.018709191364939
 256     0.048585393450524
 257    0.0017423803580593
 258    -0.0042051401768989
 259     0.017574888189428
 260    -0.001577808217271
 261     0.002044573685795
 262    0.0018202712468992
 263    -0.0025816697357786
 264    -0.0020767626784144
 265    -0.0042573989230862
 266    -0.001037025996485
 267    -0.022407119020157
 268    0.0011140099060953
 269    0.0032267901825328
 270      0.27778134838761
 271      0.18869776964509
 272     -0.09732861629744
 273    -0.041109607771952
 274      0.12347701383427
 275    -0.041018177955662
 276    0.0018955670453777
 277     0.013190607664488
 278    0.0067688625478362
 279    -0.0053121188277277
 280    -0.0089060944754576
 281    0.0038439410743072
 282    8.065028322412e-05
 283    -0.008793721346687