[Molden Format]
made by pyscf v[2.0.1]
[Atoms] (AU)
C   1   6     0.69100024066471     0.64692934207205    -3.48223131169301
H   2   1     2.68052439830868     1.13355088658700    -3.25784032593313
C   3   6    -0.36286361513219     0.85440132524594    -5.97030179418974
H   4   1    -2.35448549047279     0.36322488579172    -6.17995817793143
C   5   6     0.93697958957450     1.61209284601821    -8.05828437677121
H   6   1     1.11826626333964     3.62551264984471    -8.45099117670825
C   7   6     2.10097243920823    -0.10888483292738    -9.80174075747215
H   8   1     1.90436861547379    -2.12023320363586    -9.38275759847606
H   9   1     1.55630230933075    -1.92953025305990    12.99630010416247
C   10   6     0.75233899775814    -2.21270439606481    11.10705728102219
H   11   1    -0.43433408177274    -3.90944857546550    11.22216085340412
C   12   6     2.86362581178706    -2.63237380607947     9.17926416456045
H   13   1     4.39038949912609    -1.24955421540245     9.49899813497433
H   14   1     3.74629220191363    -4.48798724300892     9.47414880959024
C   15   6     2.02478325613682    -2.42177285709634     6.44560829588644
C   16   6     3.88048732735477    -3.58795445234514     4.61402886975252
C   17   6    -0.18412382258602    -1.30464291234259     5.76021113872346
C   18   6    -2.10044360464350    -0.26837831858460     7.71610340967100
C   19   6    -3.08956938670431     2.35282328359417     6.88693925039594
C   20   6    -4.37372924086464    -2.09766595989678     7.93610724222001
C   21   6    -0.83850430601230     0.06372213486173    10.33002307638377
H   22   1     0.38411922151109     1.74281358582432    10.27380136542181
H   23   1    -2.30980003007874     0.45460143924521    11.73986301809809
H   24   1     4.58527064644668    -5.38706904487420     5.36778158031719
H   25   1     5.54944938085014    -2.37631462192748     4.35398898413318
H   26   1     3.06633019150423    -3.94118377050688     2.75255466040884
H   27   1    -4.17727778763735     2.26573369139522     5.12914900961283
H   28   1    -1.52662344944051     3.68001877445626     6.59540397144508
H   29   1    -4.32916174397830     3.13643051467482     8.35225460090378
H   30   1    -5.32329548508442    -2.36691813602939     6.11583672749896
H   31   1    -5.77989366602257    -1.33896741843465     9.25748940450990
H   32   1    -3.79310905208926    -3.96389819310853     8.61386170102686
C   33   6    -1.01100794811226    -1.06331657314144     3.11929490449947
C   34   6     0.37686231036534    -0.33275864505552     1.09165013605873
H   35   1    -3.01671213906703    -1.40297922279997     2.77827895090944
C   36   6    -0.64382707979370    -0.11591880174385    -1.42063131251064
H   37   1     2.35569259782137     0.17174499283897     1.33641070251401
H   38   1    -2.63317482980319    -0.60229203511219    -1.66119700387645
C   39   6     3.40965399787931     0.55809653308114   -11.90393532262733
C   40   6     4.52549279160481    -1.34135539088305   -13.56345596406470
H   41   1     3.67536210453709     2.52791097593625   -12.43024189111277
O   42   8     5.72170846290986    -0.87635365493868   -15.48013684009233
H   43   1     4.20717735374393    -3.33265649371778   -12.95224886476863
[GTO]
1 0
 s    6 1.00
             3047.5249  0.0018347001629433
             457.36951    0.01403730124668
             103.94869   0.068842606114048
             29.210155    0.23218442062076
              9.286663    0.46794134155879
              3.163927    0.36231203217765
 s    3 1.00
             7.8682724   -0.11933240861517
             1.8812885   -0.16085421161283
             0.5442493     1.1434564825515
 s    1 1.00
             0.1687144                   1
 p    3 1.00
             7.8682724   0.068999095584993
             1.8812885    0.31642397975315
             0.5442493    0.74430825237435
 p    1 1.00
             0.1687144                   1
 d    1 1.00
                   0.8                   1

2 0
 s    3 1.00
             18.731137    0.03349459952309
             2.8253937    0.23472694665786
             0.6401217    0.81375731841339
 s    1 1.00
             0.1612778                   1

3 0
 s    6 1.00
             3047.5249  0.0018347001629433
             457.36951    0.01403730124668
             103.94869   0.068842606114048
             29.210155    0.23218442062076
              9.286663    0.46794134155879
              3.163927    0.36231203217765
 s    3 1.00
             7.8682724   -0.11933240861517
             1.8812885   -0.16085421161283
             0.5442493     1.1434564825515
 s    1 1.00
             0.1687144                   1
 p    3 1.00
             7.8682724   0.068999095584993
             1.8812885    0.31642397975315
             0.5442493    0.74430825237435
 p    1 1.00
             0.1687144                   1
 d    1 1.00
                   0.8                   1

4 0
 s    3 1.00
             18.731137    0.03349459952309
             2.8253937    0.23472694665786
             0.6401217    0.81375731841339
 s    1 1.00
             0.1612778                   1

5 0
 s    6 1.00
             3047.5249  0.0018347001629433
             457.36951    0.01403730124668
             103.94869   0.068842606114048
             29.210155    0.23218442062076
              9.286663    0.46794134155879
              3.163927    0.36231203217765
 s    3 1.00
             7.8682724   -0.11933240861517
             1.8812885   -0.16085421161283
             0.5442493     1.1434564825515
 s    1 1.00
             0.1687144                   1
 p    3 1.00
             7.8682724   0.068999095584993
             1.8812885    0.31642397975315
             0.5442493    0.74430825237435
 p    1 1.00
             0.1687144                   1
 d    1 1.00
                   0.8                   1

6 0
 s    3 1.00
             18.731137    0.03349459952309
             2.8253937    0.23472694665786
             0.6401217    0.81375731841339
 s    1 1.00
             0.1612778                   1

7 0
 s    6 1.00
             3047.5249  0.0018347001629433
             457.36951    0.01403730124668
             103.94869   0.068842606114048
             29.210155    0.23218442062076
              9.286663    0.46794134155879
              3.163927    0.36231203217765
 s    3 1.00
             7.8682724   -0.11933240861517
             1.8812885   -0.16085421161283
             0.5442493     1.1434564825515
 s    1 1.00
             0.1687144                   1
 p    3 1.00
             7.8682724   0.068999095584993
             1.8812885    0.31642397975315
             0.5442493    0.74430825237435
 p    1 1.00
             0.1687144                   1
 d    1 1.00
                   0.8                   1

8 0
 s    3 1.00
             18.731137    0.03349459952309
             2.8253937    0.23472694665786
             0.6401217    0.81375731841339
 s    1 1.00
             0.1612778                   1

9 0
 s    3 1.00
             18.731137    0.03349459952309
             2.8253937    0.23472694665786
             0.6401217    0.81375731841339
 s    1 1.00
             0.1612778                   1

10 0
 s    6 1.00
             3047.5249  0.0018347001629433
             457.36951    0.01403730124668
             103.94869   0.068842606114048
             29.210155    0.23218442062076
              9.286663    0.46794134155879
              3.163927    0.36231203217765
 s    3 1.00
             7.8682724   -0.11933240861517
             1.8812885   -0.16085421161283
             0.5442493     1.1434564825515
 s    1 1.00
             0.1687144                   1
 p    3 1.00
             7.8682724   0.068999095584993
             1.8812885    0.31642397975315
             0.5442493    0.74430825237435
 p    1 1.00
             0.1687144                   1
 d    1 1.00
                   0.8                   1

11 0
 s    3 1.00
             18.731137    0.03349459952309
             2.8253937    0.23472694665786
             0.6401217    0.81375731841339
 s    1 1.00
             0.1612778                   1

12 0
 s    6 1.00
             3047.5249  0.0018347001629433
             457.36951    0.01403730124668
             103.94869   0.068842606114048
             29.210155    0.23218442062076
              9.286663    0.46794134155879
              3.163927    0.36231203217765
 s    3 1.00
             7.8682724   -0.11933240861517
             1.8812885   -0.16085421161283
             0.5442493     1.1434564825515
 s    1 1.00
             0.1687144                   1
 p    3 1.00
             7.8682724   0.068999095584993
             1.8812885    0.31642397975315
             0.5442493    0.74430825237435
 p    1 1.00
             0.1687144                   1
 d    1 1.00
                   0.8                   1

13 0
 s    3 1.00
             18.731137    0.03349459952309
             2.8253937    0.23472694665786
             0.6401217    0.81375731841339
 s    1 1.00
             0.1612778                   1

14 0
 s    3 1.00
             18.731137    0.03349459952309
             2.8253937    0.23472694665786
             0.6401217    0.81375731841339
 s    1 1.00
             0.1612778                   1

15 0
 s    6 1.00
             3047.5249  0.0018347001629433
             457.36951    0.01403730124668
             103.94869   0.068842606114048
             29.210155    0.23218442062076
              9.286663    0.46794134155879
              3.163927    0.36231203217765
 s    3 1.00
             7.8682724   -0.11933240861517
             1.8812885   -0.16085421161283
             0.5442493     1.1434564825515
 s    1 1.00
             0.1687144                   1
 p    3 1.00
             7.8682724   0.068999095584993
             1.8812885    0.31642397975315
             0.5442493    0.74430825237435
 p    1 1.00
             0.1687144                   1
 d    1 1.00
                   0.8                   1

16 0
 s    6 1.00
             3047.5249  0.0018347001629433
             457.36951    0.01403730124668
             103.94869   0.068842606114048
             29.210155    0.23218442062076
              9.286663    0.46794134155879
              3.163927    0.36231203217765
 s    3 1.00
             7.8682724   -0.11933240861517
             1.8812885   -0.16085421161283
             0.5442493     1.1434564825515
 s    1 1.00
             0.1687144                   1
 p    3 1.00
             7.8682724   0.068999095584993
             1.8812885    0.31642397975315
             0.5442493    0.74430825237435
 p    1 1.00
             0.1687144                   1
 d    1 1.00
                   0.8                   1

17 0
 s    6 1.00
             3047.5249  0.0018347001629433
             457.36951    0.01403730124668
             103.94869   0.068842606114048
             29.210155    0.23218442062076
              9.286663    0.46794134155879
              3.163927    0.36231203217765
 s    3 1.00
             7.8682724   -0.11933240861517
             1.8812885   -0.16085421161283
             0.5442493     1.1434564825515
 s    1 1.00
             0.1687144                   1
 p    3 1.00
             7.8682724   0.068999095584993
             1.8812885    0.31642397975315
             0.5442493    0.74430825237435
 p    1 1.00
             0.1687144                   1
 d    1 1.00
                   0.8                   1

18 0
 s    6 1.00
             3047.5249  0.0018347001629433
             457.36951    0.01403730124668
             103.94869   0.068842606114048
             29.210155    0.23218442062076
              9.286663    0.46794134155879
              3.163927    0.36231203217765
 s    3 1.00
             7.8682724   -0.11933240861517
             1.8812885   -0.16085421161283
             0.5442493     1.1434564825515
 s    1 1.00
             0.1687144                   1
 p    3 1.00
             7.8682724   0.068999095584993
             1.8812885    0.31642397975315
             0.5442493    0.74430825237435
 p    1 1.00
             0.1687144                   1
 d    1 1.00
                   0.8                   1

19 0
 s    6 1.00
             3047.5249  0.0018347001629433
             457.36951    0.01403730124668
             103.94869   0.068842606114048
             29.210155    0.23218442062076
              9.286663    0.46794134155879
              3.163927    0.36231203217765
 s    3 1.00
             7.8682724   -0.11933240861517
             1.8812885   -0.16085421161283
             0.5442493     1.1434564825515
 s    1 1.00
             0.1687144                   1
 p    3 1.00
             7.8682724   0.068999095584993
             1.8812885    0.31642397975315
             0.5442493    0.74430825237435
 p    1 1.00
             0.1687144                   1
 d    1 1.00
                   0.8                   1

20 0
 s    6 1.00
             3047.5249  0.0018347001629433
             457.36951    0.01403730124668
             103.94869   0.068842606114048
             29.210155    0.23218442062076
              9.286663    0.46794134155879
              3.163927    0.36231203217765
 s    3 1.00
             7.8682724   -0.11933240861517
             1.8812885   -0.16085421161283
             0.5442493     1.1434564825515
 s    1 1.00
             0.1687144                   1
 p    3 1.00
             7.8682724   0.068999095584993
             1.8812885    0.31642397975315
             0.5442493    0.74430825237435
 p    1 1.00
             0.1687144                   1
 d    1 1.00
                   0.8                   1

21 0
 s    6 1.00
             3047.5249  0.0018347001629433
             457.36951    0.01403730124668
             103.94869   0.068842606114048
             29.210155    0.23218442062076
              9.286663    0.46794134155879
              3.163927    0.36231203217765
 s    3 1.00
             7.8682724   -0.11933240861517
             1.8812885   -0.16085421161283
             0.5442493     1.1434564825515
 s    1 1.00
             0.1687144                   1
 p    3 1.00
             7.8682724   0.068999095584993
             1.8812885    0.31642397975315
             0.5442493    0.74430825237435
 p    1 1.00
             0.1687144                   1
 d    1 1.00
                   0.8                   1

22 0
 s    3 1.00
             18.731137    0.03349459952309
             2.8253937    0.23472694665786
             0.6401217    0.81375731841339
 s    1 1.00
             0.1612778                   1

23 0
 s    3 1.00
             18.731137    0.03349459952309
             2.8253937    0.23472694665786
             0.6401217    0.81375731841339
 s    1 1.00
             0.1612778                   1

24 0
 s    3 1.00
             18.731137    0.03349459952309
             2.8253937    0.23472694665786
             0.6401217    0.81375731841339
 s    1 1.00
             0.1612778                   1

25 0
 s    3 1.00
             18.731137    0.03349459952309
             2.8253937    0.23472694665786
             0.6401217    0.81375731841339
 s    1 1.00
             0.1612778                   1

26 0
 s    3 1.00
             18.731137    0.03349459952309
             2.8253937    0.23472694665786
             0.6401217    0.81375731841339
 s    1 1.00
             0.1612778                   1

27 0
 s    3 1.00
             18.731137    0.03349459952309
             2.8253937    0.23472694665786
             0.6401217    0.81375731841339
 s    1 1.00
             0.1612778                   1

28 0
 s    3 1.00
             18.731137    0.03349459952309
             2.8253937    0.23472694665786
             0.6401217    0.81375731841339
 s    1 1.00
             0.1612778                   1

29 0
 s    3 1.00
             18.731137    0.03349459952309
             2.8253937    0.23472694665786
             0.6401217    0.81375731841339
 s    1 1.00
             0.1612778                   1

30 0
 s    3 1.00
             18.731137    0.03349459952309
             2.8253937    0.23472694665786
             0.6401217    0.81375731841339
 s    1 1.00
             0.1612778                   1

31 0
 s    3 1.00
             18.731137    0.03349459952309
             2.8253937    0.23472694665786
             0.6401217    0.81375731841339
 s    1 1.00
             0.1612778                   1

32 0
 s    3 1.00
             18.731137    0.03349459952309
             2.8253937    0.23472694665786
             0.6401217    0.81375731841339
 s    1 1.00
             0.1612778                   1

33 0
 s    6 1.00
             3047.5249  0.0018347001629433
             457.36951    0.01403730124668
             103.94869   0.068842606114048
             29.210155    0.23218442062076
              9.286663    0.46794134155879
              3.163927    0.36231203217765
 s    3 1.00
             7.8682724   -0.11933240861517
             1.8812885   -0.16085421161283
             0.5442493     1.1434564825515
 s    1 1.00
             0.1687144                   1
 p    3 1.00
             7.8682724   0.068999095584993
             1.8812885    0.31642397975315
             0.5442493    0.74430825237435
 p    1 1.00
             0.1687144                   1
 d    1 1.00
                   0.8                   1

34 0
 s    6 1.00
             3047.5249  0.0018347001629433
             457.36951    0.01403730124668
             103.94869   0.068842606114048
             29.210155    0.23218442062076
              9.286663    0.46794134155879
              3.163927    0.36231203217765
 s    3 1.00
             7.8682724   -0.11933240861517
             1.8812885   -0.16085421161283
             0.5442493     1.1434564825515
 s    1 1.00
             0.1687144                   1
 p    3 1.00
             7.8682724   0.068999095584993
             1.8812885    0.31642397975315
             0.5442493    0.74430825237435
 p    1 1.00
             0.1687144                   1
 d    1 1.00
                   0.8                   1

35 0
 s    3 1.00
             18.731137    0.03349459952309
             2.8253937    0.23472694665786
             0.6401217    0.81375731841339
 s    1 1.00
             0.1612778                   1

36 0
 s    6 1.00
             3047.5249  0.0018347001629433
             457.36951    0.01403730124668
             103.94869   0.068842606114048
             29.210155    0.23218442062076
              9.286663    0.46794134155879
              3.163927    0.36231203217765
 s    3 1.00
             7.8682724   -0.11933240861517
             1.8812885   -0.16085421161283
             0.5442493     1.1434564825515
 s    1 1.00
             0.1687144                   1
 p    3 1.00
             7.8682724   0.068999095584993
             1.8812885    0.31642397975315
             0.5442493    0.74430825237435
 p    1 1.00
             0.1687144                   1
 d    1 1.00
                   0.8                   1

37 0
 s    3 1.00
             18.731137    0.03349459952309
             2.8253937    0.23472694665786
             0.6401217    0.81375731841339
 s    1 1.00
             0.1612778                   1

38 0
 s    3 1.00
             18.731137    0.03349459952309
             2.8253937    0.23472694665786
             0.6401217    0.81375731841339
 s    1 1.00
             0.1612778                   1

39 0
 s    6 1.00
             3047.5249  0.0018347001629433
             457.36951    0.01403730124668
             103.94869   0.068842606114048
             29.210155    0.23218442062076
              9.286663    0.46794134155879
              3.163927    0.36231203217765
 s    3 1.00
             7.8682724   -0.11933240861517
             1.8812885   -0.16085421161283
             0.5442493     1.1434564825515
 s    1 1.00
             0.1687144                   1
 p    3 1.00
             7.8682724   0.068999095584993
             1.8812885    0.31642397975315
             0.5442493    0.74430825237435
 p    1 1.00
             0.1687144                   1
 d    1 1.00
                   0.8                   1

40 0
 s    6 1.00
             3047.5249  0.0018347001629433
             457.36951    0.01403730124668
             103.94869   0.068842606114048
             29.210155    0.23218442062076
              9.286663    0.46794134155879
              3.163927    0.36231203217765
 s    3 1.00
             7.8682724   -0.11933240861517
             1.8812885   -0.16085421161283
             0.5442493     1.1434564825515
 s    1 1.00
             0.1687144                   1
 p    3 1.00
             7.8682724   0.068999095584993
             1.8812885    0.31642397975315
             0.5442493    0.74430825237435
 p    1 1.00
             0.1687144                   1
 d    1 1.00
                   0.8                   1

41 0
 s    3 1.00
             18.731137    0.03349459952309
             2.8253937    0.23472694665786
             0.6401217    0.81375731841339
 s    1 1.00
             0.1612778                   1

42 0
 s    6 1.00
             5484.6717   0.001831099805527
             825.23495   0.013950098518422
             188.04696    0.06844509273075
               52.9645    0.23271427528445
              16.89757    0.47019295006289
             5.7996353    0.35852086192309
 s    3 1.00
             15.539616   -0.11077750382508
             3.5999336   -0.14802630511126
             1.0137618     1.1307670390447
 s    1 1.00
             0.2700058                   1
 p    3 1.00
             15.539616   0.070874299543311
             3.5999336    0.33975279781076
             1.0137618    0.72715859531445
 p    1 1.00
             0.2700058                   1
 d    1 1.00
                   0.8                   1

43 0
 s    3 1.00
             18.731137    0.03349459952309
             2.8253937    0.23472694665786
             0.6401217    0.81375731841339
 s    1 1.00
             0.1612778                   1

[5d]
[7f]
[9g]

[MO]
 Sym= A
 Ene=               0
 Spin= Alpha
 Occup=    1.00000
   1    -0.020661481163203
   2    0.00083574963587087
   3    -0.0068113470614206
   4    -0.00036723143578623
   5    0.00011617395133448
   6    -0.0011708914042296
   7    -0.00083750488471705
   8    -0.0011962578628666
   9     0.005417043021696
  10    0.00089406186070102
  11    0.00085563902864422
  12    -0.00014318081289865
  13    0.00020558639801539
  14    -3.9353663735157e-05
  15    0.00049254202160272
  16    0.00088201698240326
  17     -0.99484249146064
  18    -0.036831580908449
  19     0.028380425725167
  20    -0.00090746238176808
  21    -0.00015559946930849
  22    0.00056377478779977
  23    0.0035109440043137
  24     0.001037865723219
  25    0.00076152218016772
  26    -0.00077326203841459
  27    0.00029694664300884
  28    0.00034501667004576
  29    -0.00029966013750273
  30    -0.00019359028260608
  31    0.0011042478293891
  32    -0.0038836648052892
  33    -0.013310982583459
  34    0.00025336320074274
  35    -0.00095481981411272
  36    -0.00083179683248591
  37    -0.00031393754998611
  38    0.0011195480085328
  39    0.0021259249807266
  40    -0.003526142013565
  41    -0.0042221084785089
  42    0.00061430498165986
  43    -0.0011663880915636
  44    -0.00044407014014818
  45    0.00033144074373264
  46    0.00038961700187238
  47    0.00054936469928393
  48    0.00061040180964945
  49    0.00029170707828369
  50    0.00055104885518838
  51    -0.00037103288464136
  52    -0.00022645885300745
  53    -2.1555908871538e-05
  54    0.00041440991859236
  55    0.0045191114308474
  56    -0.0011537305448492
  57    -0.0071147314786273
  58    0.00013524265775228
  59    1.2977435261135e-05
  60    -0.00018115179580048
  61    0.00024698176960897
  62    0.00015306107031524
  63    0.00047430017375601
  64    -0.00024385940776434
  65    2.6749374364275e-06
  66    4.1393788832914e-06
  67    9.5719031568818e-08
  68    1.4508387767953e-06
  69    -7.3778112495185e-06
  70    -2.2048524674614e-06
  71    4.481650264013e-06
  72    1.9630140728912e-07
  73    -1.2525991145586e-05
  74    -2.4318014161035e-05
  75    -9.0078787399831e-06
  76    1.4146117840508e-07
  77    3.6074262906045e-07
  78    -3.4920757422345e-07
  79    -5.8206787459181e-07
  80    5.7372577226426e-08
  81    -2.3315624321914e-06
  82    -1.2171350957542e-05
  83    -2.1897423821964e-07
  84    -1.2832344717425e-06
  85     6.57109430002e-05
  86    -3.6176514142271e-06
  87    -3.013635260477e-06
  88    -5.2470724853564e-06
  89    -2.4151935580825e-05
  90    6.2274570333788e-05
  91    -7.4267697841178e-06
  92    -1.5863207428812e-06
  93    2.7290012915045e-06
  94    -3.6755625757723e-06
  95    7.2890768274698e-07
  96    1.0507531057606e-06
  97    -6.7514819226755e-06
  98    -1.158539058831e-05
  99    3.218565585824e-06
 100    1.8412220307961e-05
 101    1.1571852275268e-06
 102    1.1956569070317e-05
 103    -0.00023271315132118
 104    1.5477155038735e-06
 105    7.4452345956636e-06
 106    3.4199328688137e-06
 107    0.00018951546886106
 108    -0.00018048483518219
 109    -0.00013444353164405
 110    5.7803213163842e-06
 111    1.9046498828471e-07
 112    -7.01021200895e-08
 113    -1.5871672310299e-06
 114    5.3608748505263e-06
 115    3.3122827371397e-06
 116    3.1890958662005e-05
 117    -0.00023319831357334
 118    2.5096576338895e-06
 119    -3.3164649270532e-06
 120    -5.0022814720871e-06
 121    4.7615777329953e-05
 122    -9.8912484605279e-06
 123    -2.8271767027122e-05
 124    -1.5455886727155e-06
 125    2.7185688099099e-06
 126    2.3846255340074e-06
 127    -5.2421284653916e-07
 128    2.0785332203139e-06
 129    5.4114688818041e-06
 130    5.2081181154082e-05
 131    -0.00015072038665515
 132    -6.0369379705426e-06
 133    4.4709904285932e-06
 134    -2.172928050705e-05
 135    0.00034502392600662
 136    -4.4941843925261e-05
 137    0.00040277068290846
 138    -9.5707813578561e-06
 139    -1.2794532020969e-05
 140    -5.4603015504019e-06
 141    -4.2716699869912e-06
 142    -6.5160964411814e-06
 143    1.9372105407458e-06
 144    2.5170768363482e-05
 145    -2.4086460692409e-05
 146    -2.2747295916833e-06
 147    -5.7237712926512e-06
 148    -1.1794802523966e-05
 149    -1.454566931194e-05
 150    4.362747755561e-06
 151    5.572725495561e-05
 152    6.9477191732109e-06
 153    3.5897454312225e-06
 154    2.9256448051143e-06
 155    -4.2021383743072e-06
 156    3.8480577794169e-06
 157    -1.4600692312465e-06
 158    -1.1644391455801e-05
 159    3.0309690842759e-05
 160    -5.7163971769792e-06
 161    1.9290036756259e-07
 162    1.2286487641878e-06
 163    4.7137791573677e-05
 164    -2.1314985016748e-05
 165    -9.565282454091e-06
 166    -4.0967752133016e-06
 167    5.0796428250817e-07
 168    1.9545260163516e-07
 169    -6.8053021016452e-07
 170    -1.8285353066667e-06
 171    4.9242034950266e-07
 172    1.1554189007601e-05
 173    -2.1385700797622e-05
 174    3.7085120093769e-06
 175    1.5191773862455e-07
 176    -1.03181019351e-05
 177    3.0375023841567e-06
 178    1.5393998232076e-06
 179    2.6590722715378e-05
 180    -1.5824910619647e-06
 181    -4.5269768046929e-06
 182    -7.2148798785142e-07
 183    1.2913636245105e-06
 184    -1.504062711558e-06
 185    3.2307870224823e-06
 186    2.8443501520747e-05
 187    -8.0431880195219e-05
 188    2.3756900783794e-06
 189    -7.6407740155452e-07
 190    -5.2254722065357e-06
 191    9.7933981623266e-07
 192    1.2106660556338e-05
 193    6.9851753325027e-05
 194    -3.3126807883383e-06
 195    -1.5551344987048e-06
 196    -2.5176295429081e-06
 197    3.4324176186927e-07
 198    -3.5174251841288e-07
 199    7.5079341140177e-06
 200    4.7227224555521e-07
 201    1.9823697638606e-06
 202    -2.041695498492e-05
 203    1.1240568504882e-05
 204    6.6063913734217e-06
 205    6.3116087522064e-07
 206    2.6004258823047e-05
 207    -9.9503758580362e-06
 208    6.4557701704729e-05
 209    -1.0287630388788e-05
 210    2.6064262025041e-05
 211    -5.6819121770013e-06
 212    -1.6660661293024e-05
 213    5.9545717315093e-07
 214    2.001651545043e-05
 215    2.335992836922e-06
 216    2.9231378883256e-05
 217    -1.3920050978712e-06
 218    -8.0327839892031e-06
 219    -4.9602955531545e-07
 220    7.7020005528962e-07
 221    8.3142166644332e-06
 222    8.0919083344555e-05
 223    -0.00080189508916367
 224    1.0815109272699e-05
 225    8.8199028795512e-07
 226    -1.2251684939623e-05
 227    -0.00059841518677216
 228    -0.00028711080010204
 229    0.00087825231263502
 230    -1.3269436377973e-06
 231    4.0593848946966e-05
 232    2.0316984811843e-05
 233    -2.0294917146712e-05
 234    -2.1227227981268e-05
 235    1.4227199784562e-05
 236    6.5623464364362e-05
 237    0.00018202360097901
 238    2.8212927946768e-05
 239    8.5829832888702e-06
 240    -2.6480767445148e-05
 241    -0.00025831807317186
 242    -0.00031178554159689
 243    0.0014495380182301
 244    -1.0464209049449e-05
 245    -6.5437041805361e-05
 246    -1.3827596739414e-05
 247    -1.6893212871486e-05
 248    7.2863907495716e-07
 249    3.3495684288088e-05
 250    -0.00029355900077826
 251    -4.5354298232311e-06
 252    0.00039967088074699
 253    -0.0020289430786023
 254    -5.859719261804e-05
 255    4.0033627173987e-05
 256    -0.00019731453559134
 257    4.850050811763e-05
 258    -0.00040581384734276
 259    0.0017391199448686
 260    5.9374633074981e-05
 261    1.5707774135598e-05
 262    1.7212886425638e-05
 263    -0.00013015064625549
 264    -8.2912410883394e-05
 265    0.00010024199934123
 266    -0.00018644706283111
 267    0.00012904188136565
 268    0.00050347442081819
 269    5.3772998878017e-05
 270    0.00049706717278846
 271    -0.0065746344569741
 272    5.6030770738343e-05
 273    -9.7572055499537e-05
 274    -0.00012906562951568
 275    0.0016156226648471
 276     0.002726365463479
 277    -0.0025313168014367
 278    -7.5957189747819e-05
 279    0.0001734567297127
 280    8.4525312064714e-05