[Molden Format]
made by pyscf v[2.0.1]
[Atoms] (AU)
C   1   6     0.69100024069495     0.64692934212497    -3.48223131168734
H   2   1     2.68052439835215     1.13355088667581    -3.25784032595959
C   3   6    -0.36286361514353     0.85440132525350    -5.97030179416329
H   4   1    -2.35448549056350     0.36322488588432    -6.17995817799568
C   5   6     0.93697958950647     1.61209284601065    -8.05828437675987
H   6   1     2.92721069186250     2.10853558287052    -7.87534295441726
C   7   6    -0.17413039189613     1.80008207487984   -10.52534301739428
H   8   1    -2.16943049770440     1.29533627648343   -10.67939296478009
H   9   1     1.55630230933264    -1.92953025311848    12.99630010417381
C   10   6     0.75233899783373    -2.21270439606859    11.10705728099195
H   11   1    -0.43433408176896    -3.90944857543337    11.22216085348160
C   12   6     2.86362581169447    -2.63237380608325     9.17926416459635
H   13   1     4.39038949906562    -1.24955421532309     9.49899813488174
H   14   1     3.74629220184371    -4.48798724298246     9.47414880962803
C   15   6     2.02478325622942    -2.42177285713224     6.44560829586187
C   16   6     3.88048732732831    -3.58795445236593     4.61402886975252
C   17   6    -0.18412382264649    -1.30464291231236     5.76021113881606
C   18   6    -2.10044360460382    -0.26837831862807     7.71610340970501
C   19   6    -3.08956938678556     2.35282328352614     6.88693925042618
C   20   6    -4.37372924094212    -2.09766595985142     7.93610724215954
C   21   6    -0.83850430593104     0.06372213486551    10.33002307643668
H   22   1     0.38411922142983     1.74281358590180    10.27380136539346
H   23   1    -2.30980003011276     0.45460143923765    11.73986301804329
H   24   1     4.58527064636731    -5.38706904479673     5.36778158023404
H   25   1     5.54944938091628    -2.37631462201630     4.35398898404058
H   26   1     3.06633019144754    -3.94118377051822     2.75255466032570
H   27   1    -4.17727778763546     2.26573369145191     5.12914900957504
H   28   1    -1.52662344935358     3.68001877441469     6.59540397151878
H   29   1    -4.32916174393862     3.13643051473529     8.35225460094913
H   30   1    -5.32329548507875    -2.36691813603695     6.11583672741581
H   31   1    -5.77989366598289    -1.33896741838552     9.25748940451935
H   32   1    -3.79310905209871    -3.96389819308585     8.61386170106276
C   33   6    -1.01100794815762    -1.06331657313199     3.11929490450892
C   34   6     0.37686231029920    -0.33275864510088     1.09165013596992
H   35   1    -3.01671213911428    -1.40297922289257     2.77827895090755
C   36   6    -0.64382707979748    -0.11591880174763    -1.42063131255788
H   37   1     2.35569259790262     0.17174499287298     1.33641070253857
H   38   1    -2.63317482972383    -0.60229203504227    -1.66119700396716
C   39   6     1.04406642127022     2.54697835791677   -12.65486785204246
C   40   6    -0.25769856063703     2.67711278008941   -15.08293200861523
H   41   1     3.03094671002655     3.07573165426063   -12.63261900496242
O   42   8     0.71886931482866     3.33224024015006   -17.06735820381613
H   43   1    -2.28855418566595     2.11893682007881   -15.01778643592878
[GTO]
1 0
 s    6 1.00
             3047.5249  0.0018347001629433
             457.36951    0.01403730124668
             103.94869   0.068842606114048
             29.210155    0.23218442062076
              9.286663    0.46794134155879
              3.163927    0.36231203217765
 s    3 1.00
             7.8682724   -0.11933240861517
             1.8812885   -0.16085421161283
             0.5442493     1.1434564825515
 s    1 1.00
             0.1687144                   1
 p    3 1.00
             7.8682724   0.068999095584993
             1.8812885    0.31642397975315
             0.5442493    0.74430825237435
 p    1 1.00
             0.1687144                   1
 d    1 1.00
                   0.8                   1

2 0
 s    3 1.00
             18.731137    0.03349459952309
             2.8253937    0.23472694665786
             0.6401217    0.81375731841339
 s    1 1.00
             0.1612778                   1

3 0
 s    6 1.00
             3047.5249  0.0018347001629433
             457.36951    0.01403730124668
             103.94869   0.068842606114048
             29.210155    0.23218442062076
              9.286663    0.46794134155879
              3.163927    0.36231203217765
 s    3 1.00
             7.8682724   -0.11933240861517
             1.8812885   -0.16085421161283
             0.5442493     1.1434564825515
 s    1 1.00
             0.1687144                   1
 p    3 1.00
             7.8682724   0.068999095584993
             1.8812885    0.31642397975315
             0.5442493    0.74430825237435
 p    1 1.00
             0.1687144                   1
 d    1 1.00
                   0.8                   1

4 0
 s    3 1.00
             18.731137    0.03349459952309
             2.8253937    0.23472694665786
             0.6401217    0.81375731841339
 s    1 1.00
             0.1612778                   1

5 0
 s    6 1.00
             3047.5249  0.0018347001629433
             457.36951    0.01403730124668
             103.94869   0.068842606114048
             29.210155    0.23218442062076
              9.286663    0.46794134155879
              3.163927    0.36231203217765
 s    3 1.00
             7.8682724   -0.11933240861517
             1.8812885   -0.16085421161283
             0.5442493     1.1434564825515
 s    1 1.00
             0.1687144                   1
 p    3 1.00
             7.8682724   0.068999095584993
             1.8812885    0.31642397975315
             0.5442493    0.74430825237435
 p    1 1.00
             0.1687144                   1
 d    1 1.00
                   0.8                   1

6 0
 s    3 1.00
             18.731137    0.03349459952309
             2.8253937    0.23472694665786
             0.6401217    0.81375731841339
 s    1 1.00
             0.1612778                   1

7 0
 s    6 1.00
             3047.5249  0.0018347001629433
             457.36951    0.01403730124668
             103.94869   0.068842606114048
             29.210155    0.23218442062076
              9.286663    0.46794134155879
              3.163927    0.36231203217765
 s    3 1.00
             7.8682724   -0.11933240861517
             1.8812885   -0.16085421161283
             0.5442493     1.1434564825515
 s    1 1.00
             0.1687144                   1
 p    3 1.00
             7.8682724   0.068999095584993
             1.8812885    0.31642397975315
             0.5442493    0.74430825237435
 p    1 1.00
             0.1687144                   1
 d    1 1.00
                   0.8                   1

8 0
 s    3 1.00
             18.731137    0.03349459952309
             2.8253937    0.23472694665786
             0.6401217    0.81375731841339
 s    1 1.00
             0.1612778                   1

9 0
 s    3 1.00
             18.731137    0.03349459952309
             2.8253937    0.23472694665786
             0.6401217    0.81375731841339
 s    1 1.00
             0.1612778                   1

10 0
 s    6 1.00
             3047.5249  0.0018347001629433
             457.36951    0.01403730124668
             103.94869   0.068842606114048
             29.210155    0.23218442062076
              9.286663    0.46794134155879
              3.163927    0.36231203217765
 s    3 1.00
             7.8682724   -0.11933240861517
             1.8812885   -0.16085421161283
             0.5442493     1.1434564825515
 s    1 1.00
             0.1687144                   1
 p    3 1.00
             7.8682724   0.068999095584993
             1.8812885    0.31642397975315
             0.5442493    0.74430825237435
 p    1 1.00
             0.1687144                   1
 d    1 1.00
                   0.8                   1

11 0
 s    3 1.00
             18.731137    0.03349459952309
             2.8253937    0.23472694665786
             0.6401217    0.81375731841339
 s    1 1.00
             0.1612778                   1

12 0
 s    6 1.00
             3047.5249  0.0018347001629433
             457.36951    0.01403730124668
             103.94869   0.068842606114048
             29.210155    0.23218442062076
              9.286663    0.46794134155879
              3.163927    0.36231203217765
 s    3 1.00
             7.8682724   -0.11933240861517
             1.8812885   -0.16085421161283
             0.5442493     1.1434564825515
 s    1 1.00
             0.1687144                   1
 p    3 1.00
             7.8682724   0.068999095584993
             1.8812885    0.31642397975315
             0.5442493    0.74430825237435
 p    1 1.00
             0.1687144                   1
 d    1 1.00
                   0.8                   1

13 0
 s    3 1.00
             18.731137    0.03349459952309
             2.8253937    0.23472694665786
             0.6401217    0.81375731841339
 s    1 1.00
             0.1612778                   1

14 0
 s    3 1.00
             18.731137    0.03349459952309
             2.8253937    0.23472694665786
             0.6401217    0.81375731841339
 s    1 1.00
             0.1612778                   1

15 0
 s    6 1.00
             3047.5249  0.0018347001629433
             457.36951    0.01403730124668
             103.94869   0.068842606114048
             29.210155    0.23218442062076
              9.286663    0.46794134155879
              3.163927    0.36231203217765
 s    3 1.00
             7.8682724   -0.11933240861517
             1.8812885   -0.16085421161283
             0.5442493     1.1434564825515
 s    1 1.00
             0.1687144                   1
 p    3 1.00
             7.8682724   0.068999095584993
             1.8812885    0.31642397975315
             0.5442493    0.74430825237435
 p    1 1.00
             0.1687144                   1
 d    1 1.00
                   0.8                   1

16 0
 s    6 1.00
             3047.5249  0.0018347001629433
             457.36951    0.01403730124668
             103.94869   0.068842606114048
             29.210155    0.23218442062076
              9.286663    0.46794134155879
              3.163927    0.36231203217765
 s    3 1.00
             7.8682724   -0.11933240861517
             1.8812885   -0.16085421161283
             0.5442493     1.1434564825515
 s    1 1.00
             0.1687144                   1
 p    3 1.00
             7.8682724   0.068999095584993
             1.8812885    0.31642397975315
             0.5442493    0.74430825237435
 p    1 1.00
             0.1687144                   1
 d    1 1.00
                   0.8                   1

17 0
 s    6 1.00
             3047.5249  0.0018347001629433
             457.36951    0.01403730124668
             103.94869   0.068842606114048
             29.210155    0.23218442062076
              9.286663    0.46794134155879
              3.163927    0.36231203217765
 s    3 1.00
             7.8682724   -0.11933240861517
             1.8812885   -0.16085421161283
             0.5442493     1.1434564825515
 s    1 1.00
             0.1687144                   1
 p    3 1.00
             7.8682724   0.068999095584993
             1.8812885    0.31642397975315
             0.5442493    0.74430825237435
 p    1 1.00
             0.1687144                   1
 d    1 1.00
                   0.8                   1

18 0
 s    6 1.00
             3047.5249  0.0018347001629433
             457.36951    0.01403730124668
             103.94869   0.068842606114048
             29.210155    0.23218442062076
              9.286663    0.46794134155879
              3.163927    0.36231203217765
 s    3 1.00
             7.8682724   -0.11933240861517
             1.8812885   -0.16085421161283
             0.5442493     1.1434564825515
 s    1 1.00
             0.1687144                   1
 p    3 1.00
             7.8682724   0.068999095584993
             1.8812885    0.31642397975315
             0.5442493    0.74430825237435
 p    1 1.00
             0.1687144                   1
 d    1 1.00
                   0.8                   1

19 0
 s    6 1.00
             3047.5249  0.0018347001629433
             457.36951    0.01403730124668
             103.94869   0.068842606114048
             29.210155    0.23218442062076
              9.286663    0.46794134155879
              3.163927    0.36231203217765
 s    3 1.00
             7.8682724   -0.11933240861517
             1.8812885   -0.16085421161283
             0.5442493     1.1434564825515
 s    1 1.00
             0.1687144                   1
 p    3 1.00
             7.8682724   0.068999095584993
             1.8812885    0.31642397975315
             0.5442493    0.74430825237435
 p    1 1.00
             0.1687144                   1
 d    1 1.00
                   0.8                   1

20 0
 s    6 1.00
             3047.5249  0.0018347001629433
             457.36951    0.01403730124668
             103.94869   0.068842606114048
             29.210155    0.23218442062076
              9.286663    0.46794134155879
              3.163927    0.36231203217765
 s    3 1.00
             7.8682724   -0.11933240861517
             1.8812885   -0.16085421161283
             0.5442493     1.1434564825515
 s    1 1.00
             0.1687144                   1
 p    3 1.00
             7.8682724   0.068999095584993
             1.8812885    0.31642397975315
             0.5442493    0.74430825237435
 p    1 1.00
             0.1687144                   1
 d    1 1.00
                   0.8                   1

21 0
 s    6 1.00
             3047.5249  0.0018347001629433
             457.36951    0.01403730124668
             103.94869   0.068842606114048
             29.210155    0.23218442062076
              9.286663    0.46794134155879
              3.163927    0.36231203217765
 s    3 1.00
             7.8682724   -0.11933240861517
             1.8812885   -0.16085421161283
             0.5442493     1.1434564825515
 s    1 1.00
             0.1687144                   1
 p    3 1.00
             7.8682724   0.068999095584993
             1.8812885    0.31642397975315
             0.5442493    0.74430825237435
 p    1 1.00
             0.1687144                   1
 d    1 1.00
                   0.8                   1

22 0
 s    3 1.00
             18.731137    0.03349459952309
             2.8253937    0.23472694665786
             0.6401217    0.81375731841339
 s    1 1.00
             0.1612778                   1

23 0
 s    3 1.00
             18.731137    0.03349459952309
             2.8253937    0.23472694665786
             0.6401217    0.81375731841339
 s    1 1.00
             0.1612778                   1

24 0
 s    3 1.00
             18.731137    0.03349459952309
             2.8253937    0.23472694665786
             0.6401217    0.81375731841339
 s    1 1.00
             0.1612778                   1

25 0
 s    3 1.00
             18.731137    0.03349459952309
             2.8253937    0.23472694665786
             0.6401217    0.81375731841339
 s    1 1.00
             0.1612778                   1

26 0
 s    3 1.00
             18.731137    0.03349459952309
             2.8253937    0.23472694665786
             0.6401217    0.81375731841339
 s    1 1.00
             0.1612778                   1

27 0
 s    3 1.00
             18.731137    0.03349459952309
             2.8253937    0.23472694665786
             0.6401217    0.81375731841339
 s    1 1.00
             0.1612778                   1

28 0
 s    3 1.00
             18.731137    0.03349459952309
             2.8253937    0.23472694665786
             0.6401217    0.81375731841339
 s    1 1.00
             0.1612778                   1

29 0
 s    3 1.00
             18.731137    0.03349459952309
             2.8253937    0.23472694665786
             0.6401217    0.81375731841339
 s    1 1.00
             0.1612778                   1

30 0
 s    3 1.00
             18.731137    0.03349459952309
             2.8253937    0.23472694665786
             0.6401217    0.81375731841339
 s    1 1.00
             0.1612778                   1

31 0
 s    3 1.00
             18.731137    0.03349459952309
             2.8253937    0.23472694665786
             0.6401217    0.81375731841339
 s    1 1.00
             0.1612778                   1

32 0
 s    3 1.00
             18.731137    0.03349459952309
             2.8253937    0.23472694665786
             0.6401217    0.81375731841339
 s    1 1.00
             0.1612778                   1

33 0
 s    6 1.00
             3047.5249  0.0018347001629433
             457.36951    0.01403730124668
             103.94869   0.068842606114048
             29.210155    0.23218442062076
              9.286663    0.46794134155879
              3.163927    0.36231203217765
 s    3 1.00
             7.8682724   -0.11933240861517
             1.8812885   -0.16085421161283
             0.5442493     1.1434564825515
 s    1 1.00
             0.1687144                   1
 p    3 1.00
             7.8682724   0.068999095584993
             1.8812885    0.31642397975315
             0.5442493    0.74430825237435
 p    1 1.00
             0.1687144                   1
 d    1 1.00
                   0.8                   1

34 0
 s    6 1.00
             3047.5249  0.0018347001629433
             457.36951    0.01403730124668
             103.94869   0.068842606114048
             29.210155    0.23218442062076
              9.286663    0.46794134155879
              3.163927    0.36231203217765
 s    3 1.00
             7.8682724   -0.11933240861517
             1.8812885   -0.16085421161283
             0.5442493     1.1434564825515
 s    1 1.00
             0.1687144                   1
 p    3 1.00
             7.8682724   0.068999095584993
             1.8812885    0.31642397975315
             0.5442493    0.74430825237435
 p    1 1.00
             0.1687144                   1
 d    1 1.00
                   0.8                   1

35 0
 s    3 1.00
             18.731137    0.03349459952309
             2.8253937    0.23472694665786
             0.6401217    0.81375731841339
 s    1 1.00
             0.1612778                   1

36 0
 s    6 1.00
             3047.5249  0.0018347001629433
             457.36951    0.01403730124668
             103.94869   0.068842606114048
             29.210155    0.23218442062076
              9.286663    0.46794134155879
              3.163927    0.36231203217765
 s    3 1.00
             7.8682724   -0.11933240861517
             1.8812885   -0.16085421161283
             0.5442493     1.1434564825515
 s    1 1.00
             0.1687144                   1
 p    3 1.00
             7.8682724   0.068999095584993
             1.8812885    0.31642397975315
             0.5442493    0.74430825237435
 p    1 1.00
             0.1687144                   1
 d    1 1.00
                   0.8                   1

37 0
 s    3 1.00
             18.731137    0.03349459952309
             2.8253937    0.23472694665786
             0.6401217    0.81375731841339
 s    1 1.00
             0.1612778                   1

38 0
 s    3 1.00
             18.731137    0.03349459952309
             2.8253937    0.23472694665786
             0.6401217    0.81375731841339
 s    1 1.00
             0.1612778                   1

39 0
 s    6 1.00
             3047.5249  0.0018347001629433
             457.36951    0.01403730124668
             103.94869   0.068842606114048
             29.210155    0.23218442062076
              9.286663    0.46794134155879
              3.163927    0.36231203217765
 s    3 1.00
             7.8682724   -0.11933240861517
             1.8812885   -0.16085421161283
             0.5442493     1.1434564825515
 s    1 1.00
             0.1687144                   1
 p    3 1.00
             7.8682724   0.068999095584993
             1.8812885    0.31642397975315
             0.5442493    0.74430825237435
 p    1 1.00
             0.1687144                   1
 d    1 1.00
                   0.8                   1

40 0
 s    6 1.00
             3047.5249  0.0018347001629433
             457.36951    0.01403730124668
             103.94869   0.068842606114048
             29.210155    0.23218442062076
              9.286663    0.46794134155879
              3.163927    0.36231203217765
 s    3 1.00
             7.8682724   -0.11933240861517
             1.8812885   -0.16085421161283
             0.5442493     1.1434564825515
 s    1 1.00
             0.1687144                   1
 p    3 1.00
             7.8682724   0.068999095584993
             1.8812885    0.31642397975315
             0.5442493    0.74430825237435
 p    1 1.00
             0.1687144                   1
 d    1 1.00
                   0.8                   1

41 0
 s    3 1.00
             18.731137    0.03349459952309
             2.8253937    0.23472694665786
             0.6401217    0.81375731841339
 s    1 1.00
             0.1612778                   1

42 0
 s    6 1.00
             5484.6717   0.001831099805527
             825.23495   0.013950098518422
             188.04696    0.06844509273075
               52.9645    0.23271427528445
              16.89757    0.47019295006289
             5.7996353    0.35852086192309
 s    3 1.00
             15.539616   -0.11077750382508
             3.5999336   -0.14802630511126
             1.0137618     1.1307670390447
 s    1 1.00
             0.2700058                   1
 p    3 1.00
             15.539616   0.070874299543311
             3.5999336    0.33975279781076
             1.0137618    0.72715859531445
 p    1 1.00
             0.2700058                   1
 d    1 1.00
                   0.8                   1

43 0
 s    3 1.00
             18.731137    0.03349459952309
             2.8253937    0.23472694665786
             0.6401217    0.81375731841339
 s    1 1.00
             0.1612778                   1

[5d]
[7f]
[9g]

[MO]
 Sym= A
 Ene=               0
 Spin= Alpha
 Occup=    1.00000
   1    1.2656459025689e-05
   2    -6.8146080855026e-05
   3    0.00045257383778623
   4    -1.4218761944248e-05
   5    -7.4922707171074e-06
   6    1.9099242023809e-05
   7    0.00010129333261473
   8    0.00031000272876145
   9    -0.0014409680280181
  10    2.2286619140536e-05
  11    5.2526473349439e-05
  12    3.9754689339092e-06
  13    1.4456842376264e-05
  14    -2.9793192977336e-06
  15    -6.7495449845284e-05
  16    0.00011114243303073
  17    0.00044299121911055
  18    -0.00027785362640114
  19    0.00036768886728262
  20    6.958740812338e-05
  21    -2.1724848099587e-05
  22    0.00020359008641203
  23    -0.00072330566362873
  24    6.3686960754022e-05
  25    -0.0013038742917526
  26    -7.6276881022663e-05
  27    1.4431125821747e-06
  28    -9.4142692287685e-07
  29    0.00012027970560182
  30    6.8949091191613e-05
  31    -0.00013980817878016
  32    -0.00061702887352659
  33      0.01360174015965
  34    -0.0010389496818609
  35    0.0073222454979556
  36    0.00045542455184578
  37    -9.7509226687695e-05
  38    0.0011160406455131
  39    0.00012591119016856
  40    0.00080295550262658
  41    -0.0039107374238668
  42    -0.00089011868197598
  43    -0.00094400845794668
  44    0.00010368764496692
  45    -0.000261310098142
  46    4.3196651682525e-05
  47    -0.00042053540831867
  48    -0.00071206407210775
  49      0.99500342132211
  50     0.036077320898982
  51     -0.02786360265419
  52    0.00068606599205691
  53    0.00020718907950336
  54    -0.0001152974873429
  55    -0.0032623806313486
  56    -0.00077393184485957
  57    -0.0005200452573473
  58    0.00082932418748492
  59    -0.00025809664893335
  60    -0.00042140521064952
  61    0.00021265502088544
  62    0.00020184083146121
  63    -0.001117535004935
  64    0.0038633338173166
  65    -5.7565090940783e-07
  66    -5.0468285197644e-07
  67    -9.0178470889318e-08
  68    -9.2573733882922e-07
  69    4.2862235652662e-06
  70    4.8444335751115e-07
  71    -8.3177823629464e-07
  72    1.0514792071677e-07
  73    2.1927098143646e-06
  74    3.2127510311098e-06
  75    8.3166632069573e-07
  76    -1.0053622501532e-08
  77    -1.5484432166253e-07
  78    1.5769304645338e-07
  79    1.7258089123264e-07
  80    -1.1416374643362e-07
  81    4.1829882078428e-07
  82    5.8219726837296e-07
  83    -7.7002573313698e-09
  84    -2.2561001670341e-07
  85    -2.2569030985786e-05
  86    1.0788820129301e-06
  87    2.389935317825e-07
  88    1.4698121218236e-06
  89    6.9674332935393e-06
  90    -1.0760227892421e-05
  91    3.7141465646437e-06
  92    4.1663844168975e-07
  93    -6.4337683232424e-07
  94    6.8951843302038e-07
  95    -5.7228097601635e-08
  96    -2.5302955722631e-07
  97    1.2073623046243e-06
  98    1.6779558056958e-06
  99    -1.6577338235404e-07
 100    -3.1945659954607e-06
 101    -1.0857485765882e-07
 102    -1.4406916837289e-06
 103    3.1263604811562e-05
 104    8.1641430985919e-07
 105    -1.4016331183743e-06
 106    -1.4139940658491e-06
 107    -4.4195768734604e-05
 108    3.7557699251327e-05
 109    5.3855093661991e-05
 110    -1.2233707146983e-06
 111    -3.638902287693e-07
 112    2.7708675152916e-07
 113    3.9359867371293e-07
 114    -1.1387187568302e-06
 115    -9.0697665106037e-07
 116    -8.1911105469305e-06
 117    6.4826884555086e-05
 118    -8.8968098550489e-07
 119    5.4050239190812e-07
 120    1.7665183595706e-06
 121    -1.5933187368503e-05
 122    8.6687439031529e-06
 123    8.3517738089342e-06
 124    2.790470074513e-08
 125    -7.4157151564974e-07
 126    7.823676351074e-08
 127    4.8062967084761e-07
 128    -6.1008439120293e-07
 129    -1.8057458811592e-06
 130    -1.234275374004e-05
 131    9.3944892583821e-05
 132    9.6717355527103e-07
 133    1.3784073299786e-07
 134    3.020124437007e-06
 135    -5.8414103355087e-05
 136    5.5468633762578e-06
 137    -0.00014692227861672
 138    3.9925149327231e-06
 139    2.7369967165392e-06
 140    5.4568938155774e-07
 141    5.3476762503413e-07
 142    7.0946481650229e-07
 143    -7.0879795712313e-07
 144    -8.4900315075584e-06
 145    2.8729091574045e-05
 146    6.5141504842133e-07
 147    1.1113775734447e-06
 148    3.2895983941228e-06
 149    1.3844564589726e-05
 150    -6.9394763012472e-06
 151    -1.9867635395063e-05
 152    -1.8745727578616e-06
 153    -1.0394510197941e-06
 154    -5.0058258180031e-07
 155    1.1733004710714e-06
 156    -1.4987267690569e-06
 157    3.4030224300699e-07
 158    2.4838367789714e-06
 159    -8.1006403772267e-06
 160    1.0791860339544e-06
 161    4.7603465176043e-07
 162    -6.1770223575037e-07
 163    -1.1201772215435e-05
 164    3.7944840240229e-06
 165    4.8262194049292e-06
 166    1.1608610511358e-06
 167    -4.1051483257564e-07
 168    -2.1325645142278e-07
 169    1.1089816104192e-07
 170    4.7785858163427e-07
 171    1.0378930434878e-07
 172    1.6445551963957e-07
 173    -1.0723385988214e-05
 174    -2.0971490084834e-06
 175    -5.335021721987e-07
 176    1.7802150410533e-06
 177    5.8480857770776e-06
 178    2.8899171327396e-06
 179    8.5366104831956e-07
 180    3.4245681515402e-08
 181    8.3425549167567e-07
 182    2.6091720742625e-07
 183    -4.8886797862291e-07
 184    5.729676762044e-07
 185    -7.7089139373443e-07
 186    -6.4844656257378e-06
 187    1.7672065261699e-05
 188    -8.0772889028128e-07
 189    4.4036973644478e-08
 190    1.2401627340844e-06
 191    1.7677297447897e-06
 192    -9.6872785695791e-07
 193    -1.5154989244988e-05
 194    7.5654404713503e-07
 195    2.7376515739413e-07
 196    5.8020105752192e-07
 197    9.1317094346135e-08
 198    -1.1228496060559e-07
 199    -1.6704971232619e-06
 200    -2.1047313184046e-06
 201    -2.5276477930274e-07
 202    5.1589538252129e-06
 203    -2.3957784461684e-06
 204    -1.3500083830409e-07
 205    -7.4158498587044e-07
 206    -6.6455497568626e-06
 207    8.0027013179202e-07
 208    -1.1159931503989e-05
 209    2.2070093749344e-06
 210    -2.9661469165256e-06
 211    1.5521100417375e-06
 212    4.4259270222654e-06
 213    -2.8015175940406e-07
 214    -4.759671642695e-06
 215    -2.2210497898515e-06
 216    1.3817457552343e-05
 217    1.0334599169733e-06
 218    3.210027444378e-06
 219    6.9103268100268e-07
 220    1.0237543738892e-06
 221    -2.0665558055617e-06
 222    -2.572788199593e-05
 223    8.8358735793687e-05
 224    3.6641999904929e-06
 225    -6.834357096384e-07
 226    9.5669118024832e-06
 227    2.6828232306378e-05
 228    5.0140917171456e-05
 229    -0.00023699161419402
 230    9.795153883388e-07
 231    -9.2446775328427e-06
 232    -4.3673243564393e-06
 233    4.9349104826299e-06
 234    4.5826280162479e-06
 235    -3.8663578744372e-06
 236    -2.5981959842921e-05
 237    -0.00016230327312144
 238    -9.2971307945027e-06
 239    -4.564741563499e-06
 240    1.1453539161415e-05
 241    8.2413633485294e-06
 242    2.6572496101676e-05
 243    -0.00014137976917748
 244    -8.6893700261772e-07
 245    1.524050002904e-05
 246    2.9050768777019e-06
 247    6.5861124049801e-06
 248    7.3351582486522e-07
 249    -8.2175651902127e-06
 250    -1.1572715830403e-05
 251    2.1176217336047e-06
 252    -4.3477907892428e-05
 253    0.00080108187103743
 254    -6.374599471133e-06
 255    -2.445984109887e-06
 256    3.8016880771574e-06
 257    0.00050249802894205
 258    0.00021666672996012
 259    -0.00041408486668064
 260    4.3069901208152e-06
 261    -2.7439247492291e-05
 262    -1.276226569415e-05
 263    1.3790330355089e-05
 264    1.465046670496e-05
 265    -1.6119683796076e-05
 266    4.0970120216787e-05
 267    -1.2438472334913e-05
 268    0.00023748017421264
 269    0.00011061409207257
 270    -0.0020364741494242
 271    0.0083434221337647
 272    0.00078578992887302
 273    0.00047354981672675
 274    -0.0013318092006045
 275    -0.00016899813878897
 276    -0.00077462239178373
 277    0.0036988715439247
 278    -0.00064195797333227
 279    0.00097077466699519
 280    0.00057489759689055