[Molden Format]
made by pyscf v[2.0.1]
[Atoms] (AU)
C   1   6     0.69100024066471     0.64692934207205    -3.48223131169301
H   2   1     2.68052439830868     1.13355088658700    -3.25784032593313
C   3   6    -0.36286361513219     0.85440132524594    -5.97030179418974
H   4   1    -2.35448549047279     0.36322488579172    -6.17995817793143
C   5   6     0.93697958957450     1.61209284601821    -8.05828437677121
H   6   1     0.14022243979667     3.08603065646166    -9.25562650474843
C   7   6     3.33155915073320     0.56926267114995    -8.78956929307971
H   8   1     4.10661901770469    -0.90506612570738    -7.57081623325171
H   9   1     1.55630230933075    -1.92953025305990    12.99630010416247
C   10   6     0.75233899775814    -2.21270439606481    11.10705728102219
H   11   1    -0.43433408177274    -3.90944857546550    11.22216085340412
C   12   6     2.86362581178706    -2.63237380607947     9.17926416456045
H   13   1     4.39038949912609    -1.24955421540245     9.49899813497433
H   14   1     3.74629220191363    -4.48798724300892     9.47414880959024
C   15   6     2.02478325613682    -2.42177285709634     6.44560829588644
C   16   6     3.88048732735477    -3.58795445234514     4.61402886975252
C   17   6    -0.18412382258602    -1.30464291234259     5.76021113872346
C   18   6    -2.10044360464350    -0.26837831858460     7.71610340967100
C   19   6    -3.08956938670431     2.35282328359417     6.88693925039594
C   20   6    -4.37372924086464    -2.09766595989678     7.93610724222001
C   21   6    -0.83850430601230     0.06372213486173    10.33002307638377
H   22   1     0.38411922151109     1.74281358582432    10.27380136542181
H   23   1    -2.30980003007874     0.45460143924521    11.73986301809809
H   24   1     4.58527064644668    -5.38706904487420     5.36778158031719
H   25   1     5.54944938085014    -2.37631462192748     4.35398898413318
H   26   1     3.06633019150423    -3.94118377050688     2.75255466040884
H   27   1    -4.17727778763735     2.26573369139522     5.12914900961283
H   28   1    -1.52662344944051     3.68001877445626     6.59540397144508
H   29   1    -4.32916174397830     3.13643051467482     8.35225460090378
H   30   1    -5.32329548508442    -2.36691813602939     6.11583672749896
H   31   1    -5.77989366602257    -1.33896741843465     9.25748940450990
H   32   1    -3.79310905208926    -3.96389819310853     8.61386170102686
C   33   6    -1.01100794811226    -1.06331657314144     3.11929490449947
C   34   6     0.37686231036534    -0.33275864505552     1.09165013605873
H   35   1    -3.01671213906703    -1.40297922279997     2.77827895090944
C   36   6    -0.64382707979370    -0.11591880174385    -1.42063131251064
H   37   1     2.35569259782137     0.17174499283897     1.33641070251401
H   38   1    -2.63317482980319    -0.60229203511219    -1.66119700387645
C   39   6     4.69106502259275     1.26188352336463   -10.85081981009206
C   40   6     7.11506387067225     0.08270412537969   -11.43459041306820
H   41   1     4.02727424636240     2.71762167762249   -12.14232148362751
O   42   8     8.43283181269616     0.61123359193353   -13.25254761350674
H   43   1     7.72125158488297    -1.39686243822724   -10.06214800755086
[GTO]
1 0
 s    6 1.00
             3047.5249  0.0018347001629433
             457.36951    0.01403730124668
             103.94869   0.068842606114048
             29.210155    0.23218442062076
              9.286663    0.46794134155879
              3.163927    0.36231203217765
 s    3 1.00
             7.8682724   -0.11933240861517
             1.8812885   -0.16085421161283
             0.5442493     1.1434564825515
 s    1 1.00
             0.1687144                   1
 p    3 1.00
             7.8682724   0.068999095584993
             1.8812885    0.31642397975315
             0.5442493    0.74430825237435
 p    1 1.00
             0.1687144                   1
 d    1 1.00
                   0.8                   1

2 0
 s    3 1.00
             18.731137    0.03349459952309
             2.8253937    0.23472694665786
             0.6401217    0.81375731841339
 s    1 1.00
             0.1612778                   1

3 0
 s    6 1.00
             3047.5249  0.0018347001629433
             457.36951    0.01403730124668
             103.94869   0.068842606114048
             29.210155    0.23218442062076
              9.286663    0.46794134155879
              3.163927    0.36231203217765
 s    3 1.00
             7.8682724   -0.11933240861517
             1.8812885   -0.16085421161283
             0.5442493     1.1434564825515
 s    1 1.00
             0.1687144                   1
 p    3 1.00
             7.8682724   0.068999095584993
             1.8812885    0.31642397975315
             0.5442493    0.74430825237435
 p    1 1.00
             0.1687144                   1
 d    1 1.00
                   0.8                   1

4 0
 s    3 1.00
             18.731137    0.03349459952309
             2.8253937    0.23472694665786
             0.6401217    0.81375731841339
 s    1 1.00
             0.1612778                   1

5 0
 s    6 1.00
             3047.5249  0.0018347001629433
             457.36951    0.01403730124668
             103.94869   0.068842606114048
             29.210155    0.23218442062076
              9.286663    0.46794134155879
              3.163927    0.36231203217765
 s    3 1.00
             7.8682724   -0.11933240861517
             1.8812885   -0.16085421161283
             0.5442493     1.1434564825515
 s    1 1.00
             0.1687144                   1
 p    3 1.00
             7.8682724   0.068999095584993
             1.8812885    0.31642397975315
             0.5442493    0.74430825237435
 p    1 1.00
             0.1687144                   1
 d    1 1.00
                   0.8                   1

6 0
 s    3 1.00
             18.731137    0.03349459952309
             2.8253937    0.23472694665786
             0.6401217    0.81375731841339
 s    1 1.00
             0.1612778                   1

7 0
 s    6 1.00
             3047.5249  0.0018347001629433
             457.36951    0.01403730124668
             103.94869   0.068842606114048
             29.210155    0.23218442062076
              9.286663    0.46794134155879
              3.163927    0.36231203217765
 s    3 1.00
             7.8682724   -0.11933240861517
             1.8812885   -0.16085421161283
             0.5442493     1.1434564825515
 s    1 1.00
             0.1687144                   1
 p    3 1.00
             7.8682724   0.068999095584993
             1.8812885    0.31642397975315
             0.5442493    0.74430825237435
 p    1 1.00
             0.1687144                   1
 d    1 1.00
                   0.8                   1

8 0
 s    3 1.00
             18.731137    0.03349459952309
             2.8253937    0.23472694665786
             0.6401217    0.81375731841339
 s    1 1.00
             0.1612778                   1

9 0
 s    3 1.00
             18.731137    0.03349459952309
             2.8253937    0.23472694665786
             0.6401217    0.81375731841339
 s    1 1.00
             0.1612778                   1

10 0
 s    6 1.00
             3047.5249  0.0018347001629433
             457.36951    0.01403730124668
             103.94869   0.068842606114048
             29.210155    0.23218442062076
              9.286663    0.46794134155879
              3.163927    0.36231203217765
 s    3 1.00
             7.8682724   -0.11933240861517
             1.8812885   -0.16085421161283
             0.5442493     1.1434564825515
 s    1 1.00
             0.1687144                   1
 p    3 1.00
             7.8682724   0.068999095584993
             1.8812885    0.31642397975315
             0.5442493    0.74430825237435
 p    1 1.00
             0.1687144                   1
 d    1 1.00
                   0.8                   1

11 0
 s    3 1.00
             18.731137    0.03349459952309
             2.8253937    0.23472694665786
             0.6401217    0.81375731841339
 s    1 1.00
             0.1612778                   1

12 0
 s    6 1.00
             3047.5249  0.0018347001629433
             457.36951    0.01403730124668
             103.94869   0.068842606114048
             29.210155    0.23218442062076
              9.286663    0.46794134155879
              3.163927    0.36231203217765
 s    3 1.00
             7.8682724   -0.11933240861517
             1.8812885   -0.16085421161283
             0.5442493     1.1434564825515
 s    1 1.00
             0.1687144                   1
 p    3 1.00
             7.8682724   0.068999095584993
             1.8812885    0.31642397975315
             0.5442493    0.74430825237435
 p    1 1.00
             0.1687144                   1
 d    1 1.00
                   0.8                   1

13 0
 s    3 1.00
             18.731137    0.03349459952309
             2.8253937    0.23472694665786
             0.6401217    0.81375731841339
 s    1 1.00
             0.1612778                   1

14 0
 s    3 1.00
             18.731137    0.03349459952309
             2.8253937    0.23472694665786
             0.6401217    0.81375731841339
 s    1 1.00
             0.1612778                   1

15 0
 s    6 1.00
             3047.5249  0.0018347001629433
             457.36951    0.01403730124668
             103.94869   0.068842606114048
             29.210155    0.23218442062076
              9.286663    0.46794134155879
              3.163927    0.36231203217765
 s    3 1.00
             7.8682724   -0.11933240861517
             1.8812885   -0.16085421161283
             0.5442493     1.1434564825515
 s    1 1.00
             0.1687144                   1
 p    3 1.00
             7.8682724   0.068999095584993
             1.8812885    0.31642397975315
             0.5442493    0.74430825237435
 p    1 1.00
             0.1687144                   1
 d    1 1.00
                   0.8                   1

16 0
 s    6 1.00
             3047.5249  0.0018347001629433
             457.36951    0.01403730124668
             103.94869   0.068842606114048
             29.210155    0.23218442062076
              9.286663    0.46794134155879
              3.163927    0.36231203217765
 s    3 1.00
             7.8682724   -0.11933240861517
             1.8812885   -0.16085421161283
             0.5442493     1.1434564825515
 s    1 1.00
             0.1687144                   1
 p    3 1.00
             7.8682724   0.068999095584993
             1.8812885    0.31642397975315
             0.5442493    0.74430825237435
 p    1 1.00
             0.1687144                   1
 d    1 1.00
                   0.8                   1

17 0
 s    6 1.00
             3047.5249  0.0018347001629433
             457.36951    0.01403730124668
             103.94869   0.068842606114048
             29.210155    0.23218442062076
              9.286663    0.46794134155879
              3.163927    0.36231203217765
 s    3 1.00
             7.8682724   -0.11933240861517
             1.8812885   -0.16085421161283
             0.5442493     1.1434564825515
 s    1 1.00
             0.1687144                   1
 p    3 1.00
             7.8682724   0.068999095584993
             1.8812885    0.31642397975315
             0.5442493    0.74430825237435
 p    1 1.00
             0.1687144                   1
 d    1 1.00
                   0.8                   1

18 0
 s    6 1.00
             3047.5249  0.0018347001629433
             457.36951    0.01403730124668
             103.94869   0.068842606114048
             29.210155    0.23218442062076
              9.286663    0.46794134155879
              3.163927    0.36231203217765
 s    3 1.00
             7.8682724   -0.11933240861517
             1.8812885   -0.16085421161283
             0.5442493     1.1434564825515
 s    1 1.00
             0.1687144                   1
 p    3 1.00
             7.8682724   0.068999095584993
             1.8812885    0.31642397975315
             0.5442493    0.74430825237435
 p    1 1.00
             0.1687144                   1
 d    1 1.00
                   0.8                   1

19 0
 s    6 1.00
             3047.5249  0.0018347001629433
             457.36951    0.01403730124668
             103.94869   0.068842606114048
             29.210155    0.23218442062076
              9.286663    0.46794134155879
              3.163927    0.36231203217765
 s    3 1.00
             7.8682724   -0.11933240861517
             1.8812885   -0.16085421161283
             0.5442493     1.1434564825515
 s    1 1.00
             0.1687144                   1
 p    3 1.00
             7.8682724   0.068999095584993
             1.8812885    0.31642397975315
             0.5442493    0.74430825237435
 p    1 1.00
             0.1687144                   1
 d    1 1.00
                   0.8                   1

20 0
 s    6 1.00
             3047.5249  0.0018347001629433
             457.36951    0.01403730124668
             103.94869   0.068842606114048
             29.210155    0.23218442062076
              9.286663    0.46794134155879
              3.163927    0.36231203217765
 s    3 1.00
             7.8682724   -0.11933240861517
             1.8812885   -0.16085421161283
             0.5442493     1.1434564825515
 s    1 1.00
             0.1687144                   1
 p    3 1.00
             7.8682724   0.068999095584993
             1.8812885    0.31642397975315
             0.5442493    0.74430825237435
 p    1 1.00
             0.1687144                   1
 d    1 1.00
                   0.8                   1

21 0
 s    6 1.00
             3047.5249  0.0018347001629433
             457.36951    0.01403730124668
             103.94869   0.068842606114048
             29.210155    0.23218442062076
              9.286663    0.46794134155879
              3.163927    0.36231203217765
 s    3 1.00
             7.8682724   -0.11933240861517
             1.8812885   -0.16085421161283
             0.5442493     1.1434564825515
 s    1 1.00
             0.1687144                   1
 p    3 1.00
             7.8682724   0.068999095584993
             1.8812885    0.31642397975315
             0.5442493    0.74430825237435
 p    1 1.00
             0.1687144                   1
 d    1 1.00
                   0.8                   1

22 0
 s    3 1.00
             18.731137    0.03349459952309
             2.8253937    0.23472694665786
             0.6401217    0.81375731841339
 s    1 1.00
             0.1612778                   1

23 0
 s    3 1.00
             18.731137    0.03349459952309
             2.8253937    0.23472694665786
             0.6401217    0.81375731841339
 s    1 1.00
             0.1612778                   1

24 0
 s    3 1.00
             18.731137    0.03349459952309
             2.8253937    0.23472694665786
             0.6401217    0.81375731841339
 s    1 1.00
             0.1612778                   1

25 0
 s    3 1.00
             18.731137    0.03349459952309
             2.8253937    0.23472694665786
             0.6401217    0.81375731841339
 s    1 1.00
             0.1612778                   1

26 0
 s    3 1.00
             18.731137    0.03349459952309
             2.8253937    0.23472694665786
             0.6401217    0.81375731841339
 s    1 1.00
             0.1612778                   1

27 0
 s    3 1.00
             18.731137    0.03349459952309
             2.8253937    0.23472694665786
             0.6401217    0.81375731841339
 s    1 1.00
             0.1612778                   1

28 0
 s    3 1.00
             18.731137    0.03349459952309
             2.8253937    0.23472694665786
             0.6401217    0.81375731841339
 s    1 1.00
             0.1612778                   1

29 0
 s    3 1.00
             18.731137    0.03349459952309
             2.8253937    0.23472694665786
             0.6401217    0.81375731841339
 s    1 1.00
             0.1612778                   1

30 0
 s    3 1.00
             18.731137    0.03349459952309
             2.8253937    0.23472694665786
             0.6401217    0.81375731841339
 s    1 1.00
             0.1612778                   1

31 0
 s    3 1.00
             18.731137    0.03349459952309
             2.8253937    0.23472694665786
             0.6401217    0.81375731841339
 s    1 1.00
             0.1612778                   1

32 0
 s    3 1.00
             18.731137    0.03349459952309
             2.8253937    0.23472694665786
             0.6401217    0.81375731841339
 s    1 1.00
             0.1612778                   1

33 0
 s    6 1.00
             3047.5249  0.0018347001629433
             457.36951    0.01403730124668
             103.94869   0.068842606114048
             29.210155    0.23218442062076
              9.286663    0.46794134155879
              3.163927    0.36231203217765
 s    3 1.00
             7.8682724   -0.11933240861517
             1.8812885   -0.16085421161283
             0.5442493     1.1434564825515
 s    1 1.00
             0.1687144                   1
 p    3 1.00
             7.8682724   0.068999095584993
             1.8812885    0.31642397975315
             0.5442493    0.74430825237435
 p    1 1.00
             0.1687144                   1
 d    1 1.00
                   0.8                   1

34 0
 s    6 1.00
             3047.5249  0.0018347001629433
             457.36951    0.01403730124668
             103.94869   0.068842606114048
             29.210155    0.23218442062076
              9.286663    0.46794134155879
              3.163927    0.36231203217765
 s    3 1.00
             7.8682724   -0.11933240861517
             1.8812885   -0.16085421161283
             0.5442493     1.1434564825515
 s    1 1.00
             0.1687144                   1
 p    3 1.00
             7.8682724   0.068999095584993
             1.8812885    0.31642397975315
             0.5442493    0.74430825237435
 p    1 1.00
             0.1687144                   1
 d    1 1.00
                   0.8                   1

35 0
 s    3 1.00
             18.731137    0.03349459952309
             2.8253937    0.23472694665786
             0.6401217    0.81375731841339
 s    1 1.00
             0.1612778                   1

36 0
 s    6 1.00
             3047.5249  0.0018347001629433
             457.36951    0.01403730124668
             103.94869   0.068842606114048
             29.210155    0.23218442062076
              9.286663    0.46794134155879
              3.163927    0.36231203217765
 s    3 1.00
             7.8682724   -0.11933240861517
             1.8812885   -0.16085421161283
             0.5442493     1.1434564825515
 s    1 1.00
             0.1687144                   1
 p    3 1.00
             7.8682724   0.068999095584993
             1.8812885    0.31642397975315
             0.5442493    0.74430825237435
 p    1 1.00
             0.1687144                   1
 d    1 1.00
                   0.8                   1

37 0
 s    3 1.00
             18.731137    0.03349459952309
             2.8253937    0.23472694665786
             0.6401217    0.81375731841339
 s    1 1.00
             0.1612778                   1

38 0
 s    3 1.00
             18.731137    0.03349459952309
             2.8253937    0.23472694665786
             0.6401217    0.81375731841339
 s    1 1.00
             0.1612778                   1

39 0
 s    6 1.00
             3047.5249  0.0018347001629433
             457.36951    0.01403730124668
             103.94869   0.068842606114048
             29.210155    0.23218442062076
              9.286663    0.46794134155879
              3.163927    0.36231203217765
 s    3 1.00
             7.8682724   -0.11933240861517
             1.8812885   -0.16085421161283
             0.5442493     1.1434564825515
 s    1 1.00
             0.1687144                   1
 p    3 1.00
             7.8682724   0.068999095584993
             1.8812885    0.31642397975315
             0.5442493    0.74430825237435
 p    1 1.00
             0.1687144                   1
 d    1 1.00
                   0.8                   1

40 0
 s    6 1.00
             3047.5249  0.0018347001629433
             457.36951    0.01403730124668
             103.94869   0.068842606114048
             29.210155    0.23218442062076
              9.286663    0.46794134155879
              3.163927    0.36231203217765
 s    3 1.00
             7.8682724   -0.11933240861517
             1.8812885   -0.16085421161283
             0.5442493     1.1434564825515
 s    1 1.00
             0.1687144                   1
 p    3 1.00
             7.8682724   0.068999095584993
             1.8812885    0.31642397975315
             0.5442493    0.74430825237435
 p    1 1.00
             0.1687144                   1
 d    1 1.00
                   0.8                   1

41 0
 s    3 1.00
             18.731137    0.03349459952309
             2.8253937    0.23472694665786
             0.6401217    0.81375731841339
 s    1 1.00
             0.1612778                   1

42 0
 s    6 1.00
             5484.6717   0.001831099805527
             825.23495   0.013950098518422
             188.04696    0.06844509273075
               52.9645    0.23271427528445
              16.89757    0.47019295006289
             5.7996353    0.35852086192309
 s    3 1.00
             15.539616   -0.11077750382508
             3.5999336   -0.14802630511126
             1.0137618     1.1307670390447
 s    1 1.00
             0.2700058                   1
 p    3 1.00
             15.539616   0.070874299543311
             3.5999336    0.33975279781076
             1.0137618    0.72715859531445
 p    1 1.00
             0.2700058                   1
 d    1 1.00
                   0.8                   1

43 0
 s    3 1.00
             18.731137    0.03349459952309
             2.8253937    0.23472694665786
             0.6401217    0.81375731841339
 s    1 1.00
             0.1612778                   1

[5d]
[7f]
[9g]

[MO]
 Sym= A
 Ene=               0
 Spin= Alpha
 Occup=    1.00000
   1    -5.8543171998421e-06
   2    -4.134930752608e-05
   3    0.00060712249189607
   4    -1.499291779124e-05
   5    2.6216424686732e-05
   6    -1.3486617235805e-06
   7    -7.5813415107216e-05
   8    -0.00012632496124243
   9    -0.00022044570060393
  10    1.516053620481e-05
  11    7.9028607278073e-06
  12    5.9396603675708e-06
  13    -5.7571344439805e-06
  14    4.7063190649275e-06
  15    -4.9610575654094e-06
  16    -1.5832843400061e-05
  17    5.5388958127744e-06
  18    -3.153588191603e-05
  19    -0.0011917627615527
  20    -4.3143776727208e-05
  21    -8.7267460810024e-06
  22    6.1526797695505e-05
  23    -0.0007368327413288
  24    8.2622471296252e-05
  25    0.00010250028915968
  26    -2.945214767087e-05
  27    2.6339886115943e-05
  28    -1.8087336662445e-05
  29    -2.9032319309128e-05
  30    -2.3667592849748e-05
  31    -1.4570379905096e-05
  32    -0.00014204903830776
  33    -5.4199265963995e-05
  34    -0.00034057904078223
  35    0.0044660565840674
  36    0.00010286990187314
  37    2.1132621875725e-06
  38    -9.2869717208122e-05
  39    0.0016753639894836
  40    -0.0013739269251686
  41    0.00042451629565724
  42    -2.1787713568297e-05
  43    -8.640905160547e-05
  44    -1.255652208289e-05
  45    7.7215601157279e-05
  46    -8.4636211088912e-05
  47    2.4823068865823e-05
  48    0.00033207338552583
  49    -4.6881474812822e-05
  50    -0.00019089654296609
  51    -0.0036830646984547
  52    -0.00034404355726045
  53    0.00012895544028599
  54    0.00013982097461064
  55    0.0033511119052053
  56    -0.0016491518669693
  57    -0.00082701401303153
  58    0.00012866979830492
  59    -5.9860784872891e-06
  60    -0.00014940280684542
  61    -8.4206392045726e-05
  62    8.1686433370879e-05
  63    -0.00029826916658856
  64    -0.00012381196740071
  65    -5.8549738433282e-08
  66    6.0346821199484e-07
  67    -9.7990829163649e-09
  68     5.78864433916e-08
  69    -1.764476311256e-06
  70    1.4898177381787e-07
  71    -1.6900560369939e-07
  72    -1.5716201707455e-07
  73    8.1400331767077e-07
  74    -1.0894691426274e-07
  75    -3.3865368247034e-08
  76    1.6144555515397e-07
  77    1.4730130623303e-07
  78    1.8822908686207e-08
  79    3.7518815922172e-08
  80    1.5482775137302e-07
  81    3.1810387177118e-08
  82    5.4945949357616e-07
  83    1.0575960699745e-07
  84    1.291760338288e-06
  85    1.2362119460686e-05
  86    -6.5805549121798e-07
  87    4.2446283101128e-07
  88    -6.5156351554741e-07
  89    -9.3620555674229e-07
  90    -1.4698493493751e-06
  91    -5.0600333896993e-06
  92    -1.6609011042697e-07
  93    7.0538984319923e-08
  94    2.865319203335e-08
  95    -2.5187470475863e-07
  96    1.6465864634506e-07
  97    2.6091082811639e-08
  98    4.2235822110924e-07
  99    -5.0838385758881e-07
 100    -5.9513995128884e-07
 101    -3.1297517727541e-07
 102    -1.4754018924862e-06
 103    3.1480443293285e-05
 104    -1.2029305642018e-06
 105    6.5419467305514e-07
 106    2.2516517745935e-07
 107    3.2237797652803e-06
 108    -2.6952167460243e-06
 109    -4.209405314808e-05
 110    6.2676315428666e-07
 111    1.0761387283529e-06
 112    -4.3828908437632e-07
 113    5.0361706193601e-08
 114    -9.8197555216264e-08
 115    4.2315004288016e-07
 116    3.6622634032057e-06
 117    -3.0833017843069e-05
 118    5.1906187509547e-07
 119    4.1377682362019e-08
 120    -1.2167332637573e-06
 121    1.1392923866161e-05
 122    -9.174008774475e-06
 123    -2.0737305829993e-06
 124    4.1515976003917e-07
 125    2.5221536263982e-07
 126    -4.6304459099029e-07
 127    -4.4788576520541e-07
 128    4.0836496577166e-07
 129    1.0811414718101e-06
 130     7.61729243611e-06
 131    -5.9035296196634e-05
 132    1.6701280482101e-06
 133    -1.1404062894557e-06
 134    -2.8582743872056e-06
 135    -2.7084602550521e-05
 136    1.3777435036001e-05
 137    8.7939692636354e-05
 138    -2.595447536738e-06
 139    -1.4504837823404e-06
 140    9.0916234446191e-07
 141    -4.0807647003075e-07
 142    1.1020888902888e-06
 143    6.9528329799917e-07
 144    5.5098411862537e-06
 145    -5.0013950522152e-05
 146    2.6957521190956e-07
 147    1.1565683359462e-07
 148    1.531842599853e-06
 149    -2.5521304903065e-05
 150    1.4829796808562e-05
 151    -1.1866375185388e-06
 152     3.93761696289e-07
 153    4.1470875769513e-07
 154    -5.6406381204821e-07
 155    -7.4458851352463e-07
 156    7.1766738212556e-07
 157    1.3638711355363e-07
 158    1.3987520099856e-06
 159    -8.7069931776511e-06
 160    -5.3755259434494e-08
 161    1.0919591206096e-08
 162    -2.4642024597609e-08
 163    3.2870452257059e-06
 164    3.180722153689e-06
 165    7.7927670399958e-07
 166    -2.2886863674372e-07
 167    3.4513629437236e-07
 168    -6.4184916456704e-08
 169    3.4974560211619e-07
 170    -2.4028389817842e-07
 171    -9.2513800311955e-09
 172    5.9958124619281e-08
 173    -2.0333115775314e-07
 174    -5.1291457084368e-08
 175    1.3380611930324e-07
 176    3.0795946109986e-07
 177    5.5644274871489e-06
 178    -2.2090035037007e-06
 179    1.4484654535155e-06
 180    -1.1010611901373e-07
 181    4.2259559483082e-07
 182    -1.8904749622547e-07
 183    6.395735952775e-07
 184    2.5247843521667e-07
 185    -5.3251209104685e-08
 186    2.2708480699094e-07
 187     1.36406569911e-05
 188    -3.5424451281162e-07
 189    -2.1580771122371e-07
 190    -1.4379432687447e-06
 191    -2.4583507413235e-06
 192    -2.9207584954761e-06
 193    -3.3255667001619e-06
 194    2.3960119882297e-07
 195    4.0035049529083e-07
 196    1.6145469325478e-07
 197    -3.5960757793012e-07
 198    2.846263439348e-07
 199    -2.772040801533e-07
 200    8.2470559633568e-07
 201    -2.1887718963056e-07
 202    -2.4911184408982e-06
 203    4.7522399511874e-07
 204    -2.1919744777124e-06
 205    1.2927903425878e-06
 206    1.1584521715272e-06
 207    1.2983938565375e-06
 208    3.0205058730825e-06
 209    -1.3466860634373e-07
 210    4.6103934160483e-06
 211    -2.9624724058367e-09
 212    -1.1370374316751e-06
 213    4.7481267112703e-07
 214    9.8340918651996e-09
 215    -9.9168773264819e-07
 216    5.5118815430576e-06
 217    3.7689300668607e-07
 218    9.4617081133708e-07
 219    -2.4106816887252e-07
 220    -2.2338453344251e-06
 221    -1.359563663961e-06
 222    -6.727222592731e-06
 223    0.00017378376749435
 224    -1.0508571792067e-07
 225    3.5539513146043e-06
 226    -5.2181248889134e-06
 227    5.2124865503714e-05
 228    -1.9420492172328e-06
 229    2.4031278601183e-06
 230    3.6972952219965e-06
 231    5.321157566427e-07
 232    -1.7107819527913e-06
 233    -3.3331755995094e-09
 234    -4.6984164513954e-07
 235    1.9361051975344e-06
 236    1.2225575818961e-05
 237    -0.00022838382286692
 238    -2.6308263008756e-06
 239    -5.3405198224317e-06
 240    5.7222251313597e-06
 241    0.00010562879040575
 242    2.9619397859981e-05
 243    4.5966850149275e-06
 244    -3.5902925097297e-06
 245    -1.2454136710352e-06
 246    3.0948088745834e-06
 247    -2.067387124338e-06
 248    4.1750438640703e-07
 249    3.1950694779897e-06
 250    -7.09256726608e-06
 251    1.2672197160158e-06
 252    1.7372882143746e-05
 253    -6.21105931697e-05
 254    -4.3931135300799e-06
 255    2.2393952224855e-07
 256    -1.2515515565754e-05
 257    8.7687025253668e-06
 258    -5.318419720252e-06
 259    0.0002691675774976
 260    -2.3765054747412e-06
 261    9.8704470046852e-06
 262    -6.0143708552764e-07
 263    -7.3679916393462e-06
 264    3.0742461089886e-06
 265    -6.079253359923e-06
 266    -1.7339521343458e-05
 267    1.340209989801e-05
 268    1.1708700915479e-05
 269    7.9690726946426e-06
 270    4.3352877664922e-05
 271    -0.0030318991741546
 272    -8.7711894503168e-05
 273    0.00013831196631522
 274    -0.00010066124550693
 275    -0.0024036215116233
 276    -0.00072329640916211
 277    0.0030152781684573
 278    -6.4418257162529e-06
 279    0.0003004745197695
 280    -0.00015266856666088