[Molden Format]
made by pyscf v[2.0.1]
[Atoms] (AU)
C   1   6     0.69100024066471     0.64692934207205    -3.48223131169301
H   2   1     2.68052439830868     1.13355088658700    -3.25784032593313
C   3   6    -0.36286361513219     0.85440132524594    -5.97030179418974
H   4   1    -2.35448549047279     0.36322488579172    -6.17995817793143
C   5   6     0.93697958957450     1.61209284601821    -8.05828437677121
H   6   1     0.73648971111668     3.55370010139060    -8.71472010856714
C   7   6     2.58127687438623    -0.01872844577485    -9.47001807350619
H   8   1     2.76404479428938    -1.95840164828389    -8.78885291415754
H   9   1     1.55630230933075    -1.92953025305990    12.99630010416247
C   10   6     0.75233899775814    -2.21270439606481    11.10705728102219
H   11   1    -0.43433408177274    -3.90944857546550    11.22216085340412
C   12   6     2.86362581178706    -2.63237380607947     9.17926416456045
H   13   1     4.39038949912609    -1.24955421540245     9.49899813497433
H   14   1     3.74629220191363    -4.48798724300892     9.47414880959024
C   15   6     2.02478325613682    -2.42177285709634     6.44560829588644
C   16   6     3.88048732735477    -3.58795445234514     4.61402886975252
C   17   6    -0.18412382258602    -1.30464291234259     5.76021113872346
C   18   6    -2.10044360464350    -0.26837831858460     7.71610340967100
C   19   6    -3.08956938670431     2.35282328359417     6.88693925039594
C   20   6    -4.37372924086464    -2.09766595989678     7.93610724222001
C   21   6    -0.83850430601230     0.06372213486173    10.33002307638377
H   22   1     0.38411922151109     1.74281358582432    10.27380136542181
H   23   1    -2.30980003007874     0.45460143924521    11.73986301809809
H   24   1     4.58527064644668    -5.38706904487420     5.36778158031719
H   25   1     5.54944938085014    -2.37631462192748     4.35398898413318
H   26   1     3.06633019150423    -3.94118377050688     2.75255466040884
H   27   1    -4.17727778763735     2.26573369139522     5.12914900961283
H   28   1    -1.52662344944051     3.68001877445626     6.59540397144508
H   29   1    -4.32916174397830     3.13643051467482     8.35225460090378
H   30   1    -5.32329548508442    -2.36691813602939     6.11583672749896
H   31   1    -5.77989366602257    -1.33896741843465     9.25748940450990
H   32   1    -3.79310905208926    -3.96389819310853     8.61386170102686
C   33   6    -1.01100794811226    -1.06331657314144     3.11929490449947
C   34   6     0.37686231036534    -0.33275864505552     1.09165013605873
H   35   1    -3.01671213906703    -1.40297922279997     2.77827895090944
C   36   6    -0.64382707979370    -0.11591880174385    -1.42063131251064
H   37   1     2.35569259782137     0.17174499283897     1.33641070251401
H   38   1    -2.63317482980319    -0.60229203511219    -1.66119700387645
C   39   6     3.90960344721415     0.65123442372143   -11.55890098643101
C   40   6     5.53597339482346    -1.15257329589011   -12.86589030877460
H   41   1     3.81237322709460     2.55237110239842   -12.33607146621226
O   42   8     6.77935136485374    -0.67974925370394   -14.75037240649433
H   43   1     5.57867975922019    -3.07543379045103   -12.00509846248917
[GTO]
1 0
 s    6 1.00
             3047.5249  0.0018347001629433
             457.36951    0.01403730124668
             103.94869   0.068842606114048
             29.210155    0.23218442062076
              9.286663    0.46794134155879
              3.163927    0.36231203217765
 s    3 1.00
             7.8682724   -0.11933240861517
             1.8812885   -0.16085421161283
             0.5442493     1.1434564825515
 s    1 1.00
             0.1687144                   1
 p    3 1.00
             7.8682724   0.068999095584993
             1.8812885    0.31642397975315
             0.5442493    0.74430825237435
 p    1 1.00
             0.1687144                   1
 d    1 1.00
                   0.8                   1

2 0
 s    3 1.00
             18.731137    0.03349459952309
             2.8253937    0.23472694665786
             0.6401217    0.81375731841339
 s    1 1.00
             0.1612778                   1

3 0
 s    6 1.00
             3047.5249  0.0018347001629433
             457.36951    0.01403730124668
             103.94869   0.068842606114048
             29.210155    0.23218442062076
              9.286663    0.46794134155879
              3.163927    0.36231203217765
 s    3 1.00
             7.8682724   -0.11933240861517
             1.8812885   -0.16085421161283
             0.5442493     1.1434564825515
 s    1 1.00
             0.1687144                   1
 p    3 1.00
             7.8682724   0.068999095584993
             1.8812885    0.31642397975315
             0.5442493    0.74430825237435
 p    1 1.00
             0.1687144                   1
 d    1 1.00
                   0.8                   1

4 0
 s    3 1.00
             18.731137    0.03349459952309
             2.8253937    0.23472694665786
             0.6401217    0.81375731841339
 s    1 1.00
             0.1612778                   1

5 0
 s    6 1.00
             3047.5249  0.0018347001629433
             457.36951    0.01403730124668
             103.94869   0.068842606114048
             29.210155    0.23218442062076
              9.286663    0.46794134155879
              3.163927    0.36231203217765
 s    3 1.00
             7.8682724   -0.11933240861517
             1.8812885   -0.16085421161283
             0.5442493     1.1434564825515
 s    1 1.00
             0.1687144                   1
 p    3 1.00
             7.8682724   0.068999095584993
             1.8812885    0.31642397975315
             0.5442493    0.74430825237435
 p    1 1.00
             0.1687144                   1
 d    1 1.00
                   0.8                   1

6 0
 s    3 1.00
             18.731137    0.03349459952309
             2.8253937    0.23472694665786
             0.6401217    0.81375731841339
 s    1 1.00
             0.1612778                   1

7 0
 s    6 1.00
             3047.5249  0.0018347001629433
             457.36951    0.01403730124668
             103.94869   0.068842606114048
             29.210155    0.23218442062076
              9.286663    0.46794134155879
              3.163927    0.36231203217765
 s    3 1.00
             7.8682724   -0.11933240861517
             1.8812885   -0.16085421161283
             0.5442493     1.1434564825515
 s    1 1.00
             0.1687144                   1
 p    3 1.00
             7.8682724   0.068999095584993
             1.8812885    0.31642397975315
             0.5442493    0.74430825237435
 p    1 1.00
             0.1687144                   1
 d    1 1.00
                   0.8                   1

8 0
 s    3 1.00
             18.731137    0.03349459952309
             2.8253937    0.23472694665786
             0.6401217    0.81375731841339
 s    1 1.00
             0.1612778                   1

9 0
 s    3 1.00
             18.731137    0.03349459952309
             2.8253937    0.23472694665786
             0.6401217    0.81375731841339
 s    1 1.00
             0.1612778                   1

10 0
 s    6 1.00
             3047.5249  0.0018347001629433
             457.36951    0.01403730124668
             103.94869   0.068842606114048
             29.210155    0.23218442062076
              9.286663    0.46794134155879
              3.163927    0.36231203217765
 s    3 1.00
             7.8682724   -0.11933240861517
             1.8812885   -0.16085421161283
             0.5442493     1.1434564825515
 s    1 1.00
             0.1687144                   1
 p    3 1.00
             7.8682724   0.068999095584993
             1.8812885    0.31642397975315
             0.5442493    0.74430825237435
 p    1 1.00
             0.1687144                   1
 d    1 1.00
                   0.8                   1

11 0
 s    3 1.00
             18.731137    0.03349459952309
             2.8253937    0.23472694665786
             0.6401217    0.81375731841339
 s    1 1.00
             0.1612778                   1

12 0
 s    6 1.00
             3047.5249  0.0018347001629433
             457.36951    0.01403730124668
             103.94869   0.068842606114048
             29.210155    0.23218442062076
              9.286663    0.46794134155879
              3.163927    0.36231203217765
 s    3 1.00
             7.8682724   -0.11933240861517
             1.8812885   -0.16085421161283
             0.5442493     1.1434564825515
 s    1 1.00
             0.1687144                   1
 p    3 1.00
             7.8682724   0.068999095584993
             1.8812885    0.31642397975315
             0.5442493    0.74430825237435
 p    1 1.00
             0.1687144                   1
 d    1 1.00
                   0.8                   1

13 0
 s    3 1.00
             18.731137    0.03349459952309
             2.8253937    0.23472694665786
             0.6401217    0.81375731841339
 s    1 1.00
             0.1612778                   1

14 0
 s    3 1.00
             18.731137    0.03349459952309
             2.8253937    0.23472694665786
             0.6401217    0.81375731841339
 s    1 1.00
             0.1612778                   1

15 0
 s    6 1.00
             3047.5249  0.0018347001629433
             457.36951    0.01403730124668
             103.94869   0.068842606114048
             29.210155    0.23218442062076
              9.286663    0.46794134155879
              3.163927    0.36231203217765
 s    3 1.00
             7.8682724   -0.11933240861517
             1.8812885   -0.16085421161283
             0.5442493     1.1434564825515
 s    1 1.00
             0.1687144                   1
 p    3 1.00
             7.8682724   0.068999095584993
             1.8812885    0.31642397975315
             0.5442493    0.74430825237435
 p    1 1.00
             0.1687144                   1
 d    1 1.00
                   0.8                   1

16 0
 s    6 1.00
             3047.5249  0.0018347001629433
             457.36951    0.01403730124668
             103.94869   0.068842606114048
             29.210155    0.23218442062076
              9.286663    0.46794134155879
              3.163927    0.36231203217765
 s    3 1.00
             7.8682724   -0.11933240861517
             1.8812885   -0.16085421161283
             0.5442493     1.1434564825515
 s    1 1.00
             0.1687144                   1
 p    3 1.00
             7.8682724   0.068999095584993
             1.8812885    0.31642397975315
             0.5442493    0.74430825237435
 p    1 1.00
             0.1687144                   1
 d    1 1.00
                   0.8                   1

17 0
 s    6 1.00
             3047.5249  0.0018347001629433
             457.36951    0.01403730124668
             103.94869   0.068842606114048
             29.210155    0.23218442062076
              9.286663    0.46794134155879
              3.163927    0.36231203217765
 s    3 1.00
             7.8682724   -0.11933240861517
             1.8812885   -0.16085421161283
             0.5442493     1.1434564825515
 s    1 1.00
             0.1687144                   1
 p    3 1.00
             7.8682724   0.068999095584993
             1.8812885    0.31642397975315
             0.5442493    0.74430825237435
 p    1 1.00
             0.1687144                   1
 d    1 1.00
                   0.8                   1

18 0
 s    6 1.00
             3047.5249  0.0018347001629433
             457.36951    0.01403730124668
             103.94869   0.068842606114048
             29.210155    0.23218442062076
              9.286663    0.46794134155879
              3.163927    0.36231203217765
 s    3 1.00
             7.8682724   -0.11933240861517
             1.8812885   -0.16085421161283
             0.5442493     1.1434564825515
 s    1 1.00
             0.1687144                   1
 p    3 1.00
             7.8682724   0.068999095584993
             1.8812885    0.31642397975315
             0.5442493    0.74430825237435
 p    1 1.00
             0.1687144                   1
 d    1 1.00
                   0.8                   1

19 0
 s    6 1.00
             3047.5249  0.0018347001629433
             457.36951    0.01403730124668
             103.94869   0.068842606114048
             29.210155    0.23218442062076
              9.286663    0.46794134155879
              3.163927    0.36231203217765
 s    3 1.00
             7.8682724   -0.11933240861517
             1.8812885   -0.16085421161283
             0.5442493     1.1434564825515
 s    1 1.00
             0.1687144                   1
 p    3 1.00
             7.8682724   0.068999095584993
             1.8812885    0.31642397975315
             0.5442493    0.74430825237435
 p    1 1.00
             0.1687144                   1
 d    1 1.00
                   0.8                   1

20 0
 s    6 1.00
             3047.5249  0.0018347001629433
             457.36951    0.01403730124668
             103.94869   0.068842606114048
             29.210155    0.23218442062076
              9.286663    0.46794134155879
              3.163927    0.36231203217765
 s    3 1.00
             7.8682724   -0.11933240861517
             1.8812885   -0.16085421161283
             0.5442493     1.1434564825515
 s    1 1.00
             0.1687144                   1
 p    3 1.00
             7.8682724   0.068999095584993
             1.8812885    0.31642397975315
             0.5442493    0.74430825237435
 p    1 1.00
             0.1687144                   1
 d    1 1.00
                   0.8                   1

21 0
 s    6 1.00
             3047.5249  0.0018347001629433
             457.36951    0.01403730124668
             103.94869   0.068842606114048
             29.210155    0.23218442062076
              9.286663    0.46794134155879
              3.163927    0.36231203217765
 s    3 1.00
             7.8682724   -0.11933240861517
             1.8812885   -0.16085421161283
             0.5442493     1.1434564825515
 s    1 1.00
             0.1687144                   1
 p    3 1.00
             7.8682724   0.068999095584993
             1.8812885    0.31642397975315
             0.5442493    0.74430825237435
 p    1 1.00
             0.1687144                   1
 d    1 1.00
                   0.8                   1

22 0
 s    3 1.00
             18.731137    0.03349459952309
             2.8253937    0.23472694665786
             0.6401217    0.81375731841339
 s    1 1.00
             0.1612778                   1

23 0
 s    3 1.00
             18.731137    0.03349459952309
             2.8253937    0.23472694665786
             0.6401217    0.81375731841339
 s    1 1.00
             0.1612778                   1

24 0
 s    3 1.00
             18.731137    0.03349459952309
             2.8253937    0.23472694665786
             0.6401217    0.81375731841339
 s    1 1.00
             0.1612778                   1

25 0
 s    3 1.00
             18.731137    0.03349459952309
             2.8253937    0.23472694665786
             0.6401217    0.81375731841339
 s    1 1.00
             0.1612778                   1

26 0
 s    3 1.00
             18.731137    0.03349459952309
             2.8253937    0.23472694665786
             0.6401217    0.81375731841339
 s    1 1.00
             0.1612778                   1

27 0
 s    3 1.00
             18.731137    0.03349459952309
             2.8253937    0.23472694665786
             0.6401217    0.81375731841339
 s    1 1.00
             0.1612778                   1

28 0
 s    3 1.00
             18.731137    0.03349459952309
             2.8253937    0.23472694665786
             0.6401217    0.81375731841339
 s    1 1.00
             0.1612778                   1

29 0
 s    3 1.00
             18.731137    0.03349459952309
             2.8253937    0.23472694665786
             0.6401217    0.81375731841339
 s    1 1.00
             0.1612778                   1

30 0
 s    3 1.00
             18.731137    0.03349459952309
             2.8253937    0.23472694665786
             0.6401217    0.81375731841339
 s    1 1.00
             0.1612778                   1

31 0
 s    3 1.00
             18.731137    0.03349459952309
             2.8253937    0.23472694665786
             0.6401217    0.81375731841339
 s    1 1.00
             0.1612778                   1

32 0
 s    3 1.00
             18.731137    0.03349459952309
             2.8253937    0.23472694665786
             0.6401217    0.81375731841339
 s    1 1.00
             0.1612778                   1

33 0
 s    6 1.00
             3047.5249  0.0018347001629433
             457.36951    0.01403730124668
             103.94869   0.068842606114048
             29.210155    0.23218442062076
              9.286663    0.46794134155879
              3.163927    0.36231203217765
 s    3 1.00
             7.8682724   -0.11933240861517
             1.8812885   -0.16085421161283
             0.5442493     1.1434564825515
 s    1 1.00
             0.1687144                   1
 p    3 1.00
             7.8682724   0.068999095584993
             1.8812885    0.31642397975315
             0.5442493    0.74430825237435
 p    1 1.00
             0.1687144                   1
 d    1 1.00
                   0.8                   1

34 0
 s    6 1.00
             3047.5249  0.0018347001629433
             457.36951    0.01403730124668
             103.94869   0.068842606114048
             29.210155    0.23218442062076
              9.286663    0.46794134155879
              3.163927    0.36231203217765
 s    3 1.00
             7.8682724   -0.11933240861517
             1.8812885   -0.16085421161283
             0.5442493     1.1434564825515
 s    1 1.00
             0.1687144                   1
 p    3 1.00
             7.8682724   0.068999095584993
             1.8812885    0.31642397975315
             0.5442493    0.74430825237435
 p    1 1.00
             0.1687144                   1
 d    1 1.00
                   0.8                   1

35 0
 s    3 1.00
             18.731137    0.03349459952309
             2.8253937    0.23472694665786
             0.6401217    0.81375731841339
 s    1 1.00
             0.1612778                   1

36 0
 s    6 1.00
             3047.5249  0.0018347001629433
             457.36951    0.01403730124668
             103.94869   0.068842606114048
             29.210155    0.23218442062076
              9.286663    0.46794134155879
              3.163927    0.36231203217765
 s    3 1.00
             7.8682724   -0.11933240861517
             1.8812885   -0.16085421161283
             0.5442493     1.1434564825515
 s    1 1.00
             0.1687144                   1
 p    3 1.00
             7.8682724   0.068999095584993
             1.8812885    0.31642397975315
             0.5442493    0.74430825237435
 p    1 1.00
             0.1687144                   1
 d    1 1.00
                   0.8                   1

37 0
 s    3 1.00
             18.731137    0.03349459952309
             2.8253937    0.23472694665786
             0.6401217    0.81375731841339
 s    1 1.00
             0.1612778                   1

38 0
 s    3 1.00
             18.731137    0.03349459952309
             2.8253937    0.23472694665786
             0.6401217    0.81375731841339
 s    1 1.00
             0.1612778                   1

39 0
 s    6 1.00
             3047.5249  0.0018347001629433
             457.36951    0.01403730124668
             103.94869   0.068842606114048
             29.210155    0.23218442062076
              9.286663    0.46794134155879
              3.163927    0.36231203217765
 s    3 1.00
             7.8682724   -0.11933240861517
             1.8812885   -0.16085421161283
             0.5442493     1.1434564825515
 s    1 1.00
             0.1687144                   1
 p    3 1.00
             7.8682724   0.068999095584993
             1.8812885    0.31642397975315
             0.5442493    0.74430825237435
 p    1 1.00
             0.1687144                   1
 d    1 1.00
                   0.8                   1

40 0
 s    6 1.00
             3047.5249  0.0018347001629433
             457.36951    0.01403730124668
             103.94869   0.068842606114048
             29.210155    0.23218442062076
              9.286663    0.46794134155879
              3.163927    0.36231203217765
 s    3 1.00
             7.8682724   -0.11933240861517
             1.8812885   -0.16085421161283
             0.5442493     1.1434564825515
 s    1 1.00
             0.1687144                   1
 p    3 1.00
             7.8682724   0.068999095584993
             1.8812885    0.31642397975315
             0.5442493    0.74430825237435
 p    1 1.00
             0.1687144                   1
 d    1 1.00
                   0.8                   1

41 0
 s    3 1.00
             18.731137    0.03349459952309
             2.8253937    0.23472694665786
             0.6401217    0.81375731841339
 s    1 1.00
             0.1612778                   1

42 0
 s    6 1.00
             5484.6717   0.001831099805527
             825.23495   0.013950098518422
             188.04696    0.06844509273075
               52.9645    0.23271427528445
              16.89757    0.47019295006289
             5.7996353    0.35852086192309
 s    3 1.00
             15.539616   -0.11077750382508
             3.5999336   -0.14802630511126
             1.0137618     1.1307670390447
 s    1 1.00
             0.2700058                   1
 p    3 1.00
             15.539616   0.070874299543311
             3.5999336    0.33975279781076
             1.0137618    0.72715859531445
 p    1 1.00
             0.2700058                   1
 d    1 1.00
                   0.8                   1

43 0
 s    3 1.00
             18.731137    0.03349459952309
             2.8253937    0.23472694665786
             0.6401217    0.81375731841339
 s    1 1.00
             0.1612778                   1

[5d]
[7f]
[9g]

[MO]
 Sym= A
 Ene=               0
 Spin= Alpha
 Occup=    1.00000
   1    -7.1607669801056e-07
   2    5.373170041328e-06
   3    0.00011147724642965
   4    2.6014267478417e-06
   5    1.3000147913419e-05
   6    -1.2439249047992e-05
   7    -6.0730560575725e-05
   8    -0.00014472066894936
   9    0.00031884701495676
  10    1.2050304316904e-06
  11    -8.4317044689881e-06
  12    4.068531539982e-07
  13    -1.3179310460473e-05
  14    7.5427203956277e-06
  15    1.1293374208151e-05
  16    -6.2871927857974e-06
  17    -7.0021043758498e-06
  18    -0.00014755982639345
  19    -0.00048474779514489
  20    -5.5140923283914e-05
  21    2.7946751764001e-06
  22    6.5979533112072e-05
  23    -0.00024462700712073
  24    0.00012007232381629
  25    0.00050091844907711
  26    -2.1531765234673e-05
  27    2.4235447965684e-05
  28    -1.6248923245366e-05
  29    -3.9084436251206e-05
  30    -7.7941153120255e-06
  31    9.4963018762246e-06
  32    -4.6296017166977e-05
  33    -5.3307886356858e-05
  34    -0.00035222964090089
  35    0.0042697411757147
  36    9.0824642057541e-05
  37    -1.337619205556e-05
  38    -0.00012505476502322
  39    0.00084087148731516
  40    -0.0018141574270479
  41    -0.00026353091730659
  42    3.4979890983725e-06
  43    -0.00010916523072079
  44    4.2522456761947e-05
  45    -4.9838417994182e-06
  46    -7.6295960395075e-05
  47    1.6375381087702e-05
  48    0.00027778350198989
  49    -4.8157857536934e-05
  50    -0.00019595558810297
  51    -0.0035076634388695
  52    -0.0002479240200488
  53    0.00020144177179346
  54    0.0002330814462901
  55     0.002215632603057
  56    -0.002393993751869
  57    -0.0018073428231893
  58    5.307974781049e-05
  59    -1.9879082151704e-05
  60    -0.00018114460729198
  61    -4.4736616070293e-05
  62    0.00011302892629306
  63    -0.00030075519935987
  64    -7.8051758834269e-05
  65    1.7238009062768e-07
  66    3.0184926657077e-07
  67    3.5648320491011e-08
  68    5.2766866651075e-07
  69    -2.5644767323061e-06
  70    -1.8111641949587e-07
  71    2.8816679912289e-07
  72    -1.6400738239872e-07
  73    -2.0012255689851e-07
  74    -1.5577789265097e-06
  75    3.0861995087272e-08
  76    6.8540458916277e-08
  77    1.2276547488506e-07
  78    -3.6617729433985e-08
  79    -5.3851679089907e-08
  80    1.1377500359699e-07
  81    -9.4479846910719e-08
  82    -1.6751850253802e-07
  83    -3.4622734182857e-09
  84    3.7684926232688e-07
  85    1.4388725619522e-05
  86    -7.1058179774355e-07
  87    3.0813164697224e-08
  88    -9.0711822321695e-07
  89    -3.0879664314802e-06
  90    4.1455493550405e-06
  91    -3.8984245630887e-06
  92    -1.7981256683193e-07
  93    2.6120292844647e-07
  94    -3.3571016704004e-07
  95    -8.0606227518902e-08
  96    1.7146340242049e-07
  97    -6.2912654324526e-07
  98    -7.1299563377804e-07
  99    -6.453327484726e-08
 100    8.9280187403796e-07
 101    9.3862186530837e-11
 102    4.3684838146009e-07
 103    -7.0336308594868e-06
 104    -3.8507086982542e-07
 105    9.8623982596874e-07
 106    6.5769066116286e-07
 107    1.7970836251418e-05
 108    -1.7080639905021e-05
 109    -3.491591502808e-05
 110    6.2152626470528e-07
 111    6.3913863746564e-07
 112    -2.6255960377755e-07
 113    -2.0742416298308e-07
 114    4.6731503331925e-07
 115    4.8208654292196e-07
 116    4.3683855456608e-06
 117    -3.6838245076521e-05
 118    6.8245500001943e-07
 119    -8.6696888556801e-07
 120    -9.1657132392331e-07
 121    9.4466236928342e-06
 122    -2.6563312716625e-06
 123    -3.6160713540059e-06
 124    1.3753347605539e-07
 125    2.9976764652248e-07
 126    3.8691335569152e-08
 127    -2.0056762386359e-07
 128    4.1669415729949e-07
 129    1.0194261308662e-06
 130    8.7350424338965e-06
 131    -5.7085006851576e-05
 132    2.171616555378e-08
 133    -1.5696405501116e-07
 134    -3.3295124997039e-06
 135    1.858320056792e-05
 136    3.1941829695764e-06
 137    8.8205991096278e-05
 138    -2.6034316640919e-06
 139    -1.7270410073674e-06
 140    -1.1779716835929e-07
 141    -4.5044195778892e-07
 142    8.2270271755753e-08
 143    5.2241892448173e-07
 144    4.8086832061292e-06
 145    -2.7048776347131e-05
 146    -1.1189801117502e-07
 147    -3.1443280321087e-07
 148    -2.9296419096183e-07
 149    -1.5211362323665e-05
 150    6.431274896716e-06
 151    4.1058978063875e-06
 152    9.2737014908244e-07
 153    4.3956849421752e-07
 154    7.6544085174928e-08
 155    -7.4872677592316e-07
 156    8.430302960788e-07
 157    -1.0025232047614e-07
 158    -7.4087495651266e-07
 159    -1.4289310549977e-07
 160    -6.2439636803466e-07
 161    1.9719711110004e-08
 162    1.589003542695e-07
 163    6.6682084480856e-06
 164    -4.034913731333e-07
 165    -7.7174494853065e-07
 166    -5.0639239759777e-07
 167    2.6604752743045e-07
 168    -3.4916346096932e-08
 169    1.2690704430134e-07
 170    -3.4094045441077e-07
 171    -1.8851429218004e-08
 172    4.3659662010881e-07
 173    8.1614618647981e-07
 174    5.5255764206732e-07
 175    1.7750362971184e-07
 176    -6.7264573456639e-07
 177    7.6244648343486e-07
 178    -2.0213717622785e-06
 179    1.510498640196e-06
 180    -1.264459494899e-07
 181    -1.6969256336029e-07
 182    -8.5448574630349e-08
 183    4.1191607138584e-07
 184    -1.5243209081216e-07
 185    2.693001737664e-07
 186    2.8205414771433e-06
 187    -2.4178058997438e-07
 188    1.5450778191767e-07
 189    -1.4370808161941e-07
 190    -1.2466734101176e-06
 191    -2.1047428560956e-06
 192    -7.3588949059502e-07
 193    4.5047429550445e-06
 194    -2.1688231094956e-07
 195    7.0140795944723e-08
 196    -2.0625916474584e-07
 197    -1.3701187315664e-07
 198    1.1471850688137e-07
 199    6.1616045298558e-07
 200    1.0245183329361e-06
 201    -4.3501198566394e-08
 202    -3.274126175349e-06
 203    1.5314392355107e-06
 204    1.2148494195182e-06
 205    3.8588239795774e-07
 206    2.3704243524493e-06
 207    -6.3707446431875e-07
 208    9.2222914511396e-06
 209    -1.1204429968191e-06
 210    4.5481431185933e-06
 211    -5.4713098557945e-07
 212    -2.8122850150937e-06
 213    2.6853183687558e-07
 214    2.0263775009262e-06
 215    3.4091249122009e-07
 216    -1.6631876727464e-07
 217    -1.7984121096893e-07
 218    -5.5120551993387e-07
 219    -3.0636933812194e-07
 220    -1.2248994844884e-06
 221    4.8924738056187e-07
 222    6.8001344837044e-06
 223    2.7481660912941e-05
 224    -5.6296410639675e-07
 225    1.5217236524643e-06
 226    -4.2463239988044e-06
 227    -2.5047621444651e-06
 228    -2.6599351050108e-05
 229    9.2999482462136e-05
 230    1.3710702589518e-06
 231    4.0648359616598e-06
 232    1.5680443490995e-06
 233    -1.7697058803574e-06
 234    -2.5836869350746e-06
 235    8.4877008311898e-07
 236    8.9202472076024e-06
 237    -3.4515677092135e-05
 238    2.7654001614202e-07
 239    -3.5332546540577e-06
 240    -2.3473386545095e-06
 241    3.0079109049505e-05
 242    8.0345939098863e-06
 243    7.5409091486473e-05
 244    -1.1577859623337e-06
 245    -6.3126100717036e-06
 246    -9.856906151133e-07
 247    -2.6973322343453e-06
 248    -7.4012354233459e-07
 249    4.670280217564e-06
 250    -1.023805768964e-05
 251    1.6040401658276e-06
 252    2.9366292199627e-05
 253    -0.00028080739399358
 254    -3.1896351614483e-06
 255    6.6699276192641e-06
 256    -7.0186598564328e-06
 257    -0.00011309733209384
 258    -8.2218493929851e-05
 259    0.0002602353528929
 260    -3.3396075950523e-06
 261    1.2588358708156e-05
 262    4.2367934478712e-06
 263    -8.7037857170703e-06
 264    -3.5403466790691e-06
 265    2.7053645457317e-06
 266    -2.8013045206469e-05
 267    8.3202732384381e-06
 268    -3.238705594358e-05
 269    8.4865359091064e-06
 270    4.7338749636856e-05
 271    -0.0030772600174633
 272    -3.0058093603887e-05
 273    0.00018587579905229
 274    -4.87053458465e-05
 275    -0.0021556906326316
 276    -0.00060070145511547
 277    0.0031592182964539
 278    -0.00015794948285548
 279    0.0002381902392529