[Molden Format]
made by pyscf v[2.0.1]
[Atoms] (AU)
C   1   6     0.69100024066471     0.64692934207205    -3.48223131169301
H   2   1     2.68052439830868     1.13355088658700    -3.25784032593313
C   3   6    -0.36286361513219     0.85440132524594    -5.97030179418974
H   4   1    -2.35448549047279     0.36322488579172    -6.17995817793143
C   5   6     0.93697958957450     1.61209284601821    -8.05828437677121
H   6   1    -0.06960811584452     2.58702669474359    -9.56733307637730
C   7   6     3.59571274713804     1.19684402678434    -8.39738626626495
H   8   1     4.57899779978681     0.21871567749258    -6.86894337963000
H   9   1     1.55630230933075    -1.92953025305990    12.99630010416247
C   10   6     0.75233899775814    -2.21270439606481    11.10705728102219
H   11   1    -0.43433408177274    -3.90944857546550    11.22216085340412
C   12   6     2.86362581178706    -2.63237380607947     9.17926416456045
H   13   1     4.39038949912609    -1.24955421540245     9.49899813497433
H   14   1     3.74629220191363    -4.48798724300892     9.47414880959024
C   15   6     2.02478325613682    -2.42177285709634     6.44560829588644
C   16   6     3.88048732735477    -3.58795445234514     4.61402886975252
C   17   6    -0.18412382258602    -1.30464291234259     5.76021113872346
C   18   6    -2.10044360464350    -0.26837831858460     7.71610340967100
C   19   6    -3.08956938670431     2.35282328359417     6.88693925039594
C   20   6    -4.37372924086464    -2.09766595989678     7.93610724222001
C   21   6    -0.83850430601230     0.06372213486173    10.33002307638377
H   22   1     0.38411922151109     1.74281358582432    10.27380136542181
H   23   1    -2.30980003007874     0.45460143924521    11.73986301809809
H   24   1     4.58527064644668    -5.38706904487420     5.36778158031719
H   25   1     5.54944938085014    -2.37631462192748     4.35398898413318
H   26   1     3.06633019150423    -3.94118377050688     2.75255466040884
H   27   1    -4.17727778763735     2.26573369139522     5.12914900961283
H   28   1    -1.52662344944051     3.68001877445626     6.59540397144508
H   29   1    -4.32916174397830     3.13643051467482     8.35225460090378
H   30   1    -5.32329548508442    -2.36691813602939     6.11583672749896
H   31   1    -5.77989366602257    -1.33896741843465     9.25748940450990
H   32   1    -3.79310905208926    -3.96389819310853     8.61386170102686
C   33   6    -1.01100794811226    -1.06331657314144     3.11929490449947
C   34   6     0.37686231036534    -0.33275864505552     1.09165013605873
H   35   1    -3.01671213906703    -1.40297922279997     2.77827895090944
C   36   6    -0.64382707979370    -0.11591880174385    -1.42063131251064
H   37   1     2.35569259782137     0.17174499283897     1.33641070251401
H   38   1    -2.63317482980319    -0.60229203511219    -1.66119700387645
C   39   6     4.96665860975130     1.91437223239220   -10.44247655051683
C   40   6     7.67160233174465     1.40206885234173   -10.60935163126053
H   41   1     4.10375913642339     2.89528826049847   -12.03023490303406
O   42   8     9.01623610133373     1.99111078946158   -12.38862500825095
H   43   1     8.47573431044455     0.39495244048141    -8.94223819440966
[GTO]
1 0
 s    6 1.00
             3047.5249  0.0018347001629433
             457.36951    0.01403730124668
             103.94869   0.068842606114048
             29.210155    0.23218442062076
              9.286663    0.46794134155879
              3.163927    0.36231203217765
 s    3 1.00
             7.8682724   -0.11933240861517
             1.8812885   -0.16085421161283
             0.5442493     1.1434564825515
 s    1 1.00
             0.1687144                   1
 p    3 1.00
             7.8682724   0.068999095584993
             1.8812885    0.31642397975315
             0.5442493    0.74430825237435
 p    1 1.00
             0.1687144                   1
 d    1 1.00
                   0.8                   1

2 0
 s    3 1.00
             18.731137    0.03349459952309
             2.8253937    0.23472694665786
             0.6401217    0.81375731841339
 s    1 1.00
             0.1612778                   1

3 0
 s    6 1.00
             3047.5249  0.0018347001629433
             457.36951    0.01403730124668
             103.94869   0.068842606114048
             29.210155    0.23218442062076
              9.286663    0.46794134155879
              3.163927    0.36231203217765
 s    3 1.00
             7.8682724   -0.11933240861517
             1.8812885   -0.16085421161283
             0.5442493     1.1434564825515
 s    1 1.00
             0.1687144                   1
 p    3 1.00
             7.8682724   0.068999095584993
             1.8812885    0.31642397975315
             0.5442493    0.74430825237435
 p    1 1.00
             0.1687144                   1
 d    1 1.00
                   0.8                   1

4 0
 s    3 1.00
             18.731137    0.03349459952309
             2.8253937    0.23472694665786
             0.6401217    0.81375731841339
 s    1 1.00
             0.1612778                   1

5 0
 s    6 1.00
             3047.5249  0.0018347001629433
             457.36951    0.01403730124668
             103.94869   0.068842606114048
             29.210155    0.23218442062076
              9.286663    0.46794134155879
              3.163927    0.36231203217765
 s    3 1.00
             7.8682724   -0.11933240861517
             1.8812885   -0.16085421161283
             0.5442493     1.1434564825515
 s    1 1.00
             0.1687144                   1
 p    3 1.00
             7.8682724   0.068999095584993
             1.8812885    0.31642397975315
             0.5442493    0.74430825237435
 p    1 1.00
             0.1687144                   1
 d    1 1.00
                   0.8                   1

6 0
 s    3 1.00
             18.731137    0.03349459952309
             2.8253937    0.23472694665786
             0.6401217    0.81375731841339
 s    1 1.00
             0.1612778                   1

7 0
 s    6 1.00
             3047.5249  0.0018347001629433
             457.36951    0.01403730124668
             103.94869   0.068842606114048
             29.210155    0.23218442062076
              9.286663    0.46794134155879
              3.163927    0.36231203217765
 s    3 1.00
             7.8682724   -0.11933240861517
             1.8812885   -0.16085421161283
             0.5442493     1.1434564825515
 s    1 1.00
             0.1687144                   1
 p    3 1.00
             7.8682724   0.068999095584993
             1.8812885    0.31642397975315
             0.5442493    0.74430825237435
 p    1 1.00
             0.1687144                   1
 d    1 1.00
                   0.8                   1

8 0
 s    3 1.00
             18.731137    0.03349459952309
             2.8253937    0.23472694665786
             0.6401217    0.81375731841339
 s    1 1.00
             0.1612778                   1

9 0
 s    3 1.00
             18.731137    0.03349459952309
             2.8253937    0.23472694665786
             0.6401217    0.81375731841339
 s    1 1.00
             0.1612778                   1

10 0
 s    6 1.00
             3047.5249  0.0018347001629433
             457.36951    0.01403730124668
             103.94869   0.068842606114048
             29.210155    0.23218442062076
              9.286663    0.46794134155879
              3.163927    0.36231203217765
 s    3 1.00
             7.8682724   -0.11933240861517
             1.8812885   -0.16085421161283
             0.5442493     1.1434564825515
 s    1 1.00
             0.1687144                   1
 p    3 1.00
             7.8682724   0.068999095584993
             1.8812885    0.31642397975315
             0.5442493    0.74430825237435
 p    1 1.00
             0.1687144                   1
 d    1 1.00
                   0.8                   1

11 0
 s    3 1.00
             18.731137    0.03349459952309
             2.8253937    0.23472694665786
             0.6401217    0.81375731841339
 s    1 1.00
             0.1612778                   1

12 0
 s    6 1.00
             3047.5249  0.0018347001629433
             457.36951    0.01403730124668
             103.94869   0.068842606114048
             29.210155    0.23218442062076
              9.286663    0.46794134155879
              3.163927    0.36231203217765
 s    3 1.00
             7.8682724   -0.11933240861517
             1.8812885   -0.16085421161283
             0.5442493     1.1434564825515
 s    1 1.00
             0.1687144                   1
 p    3 1.00
             7.8682724   0.068999095584993
             1.8812885    0.31642397975315
             0.5442493    0.74430825237435
 p    1 1.00
             0.1687144                   1
 d    1 1.00
                   0.8                   1

13 0
 s    3 1.00
             18.731137    0.03349459952309
             2.8253937    0.23472694665786
             0.6401217    0.81375731841339
 s    1 1.00
             0.1612778                   1

14 0
 s    3 1.00
             18.731137    0.03349459952309
             2.8253937    0.23472694665786
             0.6401217    0.81375731841339
 s    1 1.00
             0.1612778                   1

15 0
 s    6 1.00
             3047.5249  0.0018347001629433
             457.36951    0.01403730124668
             103.94869   0.068842606114048
             29.210155    0.23218442062076
              9.286663    0.46794134155879
              3.163927    0.36231203217765
 s    3 1.00
             7.8682724   -0.11933240861517
             1.8812885   -0.16085421161283
             0.5442493     1.1434564825515
 s    1 1.00
             0.1687144                   1
 p    3 1.00
             7.8682724   0.068999095584993
             1.8812885    0.31642397975315
             0.5442493    0.74430825237435
 p    1 1.00
             0.1687144                   1
 d    1 1.00
                   0.8                   1

16 0
 s    6 1.00
             3047.5249  0.0018347001629433
             457.36951    0.01403730124668
             103.94869   0.068842606114048
             29.210155    0.23218442062076
              9.286663    0.46794134155879
              3.163927    0.36231203217765
 s    3 1.00
             7.8682724   -0.11933240861517
             1.8812885   -0.16085421161283
             0.5442493     1.1434564825515
 s    1 1.00
             0.1687144                   1
 p    3 1.00
             7.8682724   0.068999095584993
             1.8812885    0.31642397975315
             0.5442493    0.74430825237435
 p    1 1.00
             0.1687144                   1
 d    1 1.00
                   0.8                   1

17 0
 s    6 1.00
             3047.5249  0.0018347001629433
             457.36951    0.01403730124668
             103.94869   0.068842606114048
             29.210155    0.23218442062076
              9.286663    0.46794134155879
              3.163927    0.36231203217765
 s    3 1.00
             7.8682724   -0.11933240861517
             1.8812885   -0.16085421161283
             0.5442493     1.1434564825515
 s    1 1.00
             0.1687144                   1
 p    3 1.00
             7.8682724   0.068999095584993
             1.8812885    0.31642397975315
             0.5442493    0.74430825237435
 p    1 1.00
             0.1687144                   1
 d    1 1.00
                   0.8                   1

18 0
 s    6 1.00
             3047.5249  0.0018347001629433
             457.36951    0.01403730124668
             103.94869   0.068842606114048
             29.210155    0.23218442062076
              9.286663    0.46794134155879
              3.163927    0.36231203217765
 s    3 1.00
             7.8682724   -0.11933240861517
             1.8812885   -0.16085421161283
             0.5442493     1.1434564825515
 s    1 1.00
             0.1687144                   1
 p    3 1.00
             7.8682724   0.068999095584993
             1.8812885    0.31642397975315
             0.5442493    0.74430825237435
 p    1 1.00
             0.1687144                   1
 d    1 1.00
                   0.8                   1

19 0
 s    6 1.00
             3047.5249  0.0018347001629433
             457.36951    0.01403730124668
             103.94869   0.068842606114048
             29.210155    0.23218442062076
              9.286663    0.46794134155879
              3.163927    0.36231203217765
 s    3 1.00
             7.8682724   -0.11933240861517
             1.8812885   -0.16085421161283
             0.5442493     1.1434564825515
 s    1 1.00
             0.1687144                   1
 p    3 1.00
             7.8682724   0.068999095584993
             1.8812885    0.31642397975315
             0.5442493    0.74430825237435
 p    1 1.00
             0.1687144                   1
 d    1 1.00
                   0.8                   1

20 0
 s    6 1.00
             3047.5249  0.0018347001629433
             457.36951    0.01403730124668
             103.94869   0.068842606114048
             29.210155    0.23218442062076
              9.286663    0.46794134155879
              3.163927    0.36231203217765
 s    3 1.00
             7.8682724   -0.11933240861517
             1.8812885   -0.16085421161283
             0.5442493     1.1434564825515
 s    1 1.00
             0.1687144                   1
 p    3 1.00
             7.8682724   0.068999095584993
             1.8812885    0.31642397975315
             0.5442493    0.74430825237435
 p    1 1.00
             0.1687144                   1
 d    1 1.00
                   0.8                   1

21 0
 s    6 1.00
             3047.5249  0.0018347001629433
             457.36951    0.01403730124668
             103.94869   0.068842606114048
             29.210155    0.23218442062076
              9.286663    0.46794134155879
              3.163927    0.36231203217765
 s    3 1.00
             7.8682724   -0.11933240861517
             1.8812885   -0.16085421161283
             0.5442493     1.1434564825515
 s    1 1.00
             0.1687144                   1
 p    3 1.00
             7.8682724   0.068999095584993
             1.8812885    0.31642397975315
             0.5442493    0.74430825237435
 p    1 1.00
             0.1687144                   1
 d    1 1.00
                   0.8                   1

22 0
 s    3 1.00
             18.731137    0.03349459952309
             2.8253937    0.23472694665786
             0.6401217    0.81375731841339
 s    1 1.00
             0.1612778                   1

23 0
 s    3 1.00
             18.731137    0.03349459952309
             2.8253937    0.23472694665786
             0.6401217    0.81375731841339
 s    1 1.00
             0.1612778                   1

24 0
 s    3 1.00
             18.731137    0.03349459952309
             2.8253937    0.23472694665786
             0.6401217    0.81375731841339
 s    1 1.00
             0.1612778                   1

25 0
 s    3 1.00
             18.731137    0.03349459952309
             2.8253937    0.23472694665786
             0.6401217    0.81375731841339
 s    1 1.00
             0.1612778                   1

26 0
 s    3 1.00
             18.731137    0.03349459952309
             2.8253937    0.23472694665786
             0.6401217    0.81375731841339
 s    1 1.00
             0.1612778                   1

27 0
 s    3 1.00
             18.731137    0.03349459952309
             2.8253937    0.23472694665786
             0.6401217    0.81375731841339
 s    1 1.00
             0.1612778                   1

28 0
 s    3 1.00
             18.731137    0.03349459952309
             2.8253937    0.23472694665786
             0.6401217    0.81375731841339
 s    1 1.00
             0.1612778                   1

29 0
 s    3 1.00
             18.731137    0.03349459952309
             2.8253937    0.23472694665786
             0.6401217    0.81375731841339
 s    1 1.00
             0.1612778                   1

30 0
 s    3 1.00
             18.731137    0.03349459952309
             2.8253937    0.23472694665786
             0.6401217    0.81375731841339
 s    1 1.00
             0.1612778                   1

31 0
 s    3 1.00
             18.731137    0.03349459952309
             2.8253937    0.23472694665786
             0.6401217    0.81375731841339
 s    1 1.00
             0.1612778                   1

32 0
 s    3 1.00
             18.731137    0.03349459952309
             2.8253937    0.23472694665786
             0.6401217    0.81375731841339
 s    1 1.00
             0.1612778                   1

33 0
 s    6 1.00
             3047.5249  0.0018347001629433
             457.36951    0.01403730124668
             103.94869   0.068842606114048
             29.210155    0.23218442062076
              9.286663    0.46794134155879
              3.163927    0.36231203217765
 s    3 1.00
             7.8682724   -0.11933240861517
             1.8812885   -0.16085421161283
             0.5442493     1.1434564825515
 s    1 1.00
             0.1687144                   1
 p    3 1.00
             7.8682724   0.068999095584993
             1.8812885    0.31642397975315
             0.5442493    0.74430825237435
 p    1 1.00
             0.1687144                   1
 d    1 1.00
                   0.8                   1

34 0
 s    6 1.00
             3047.5249  0.0018347001629433
             457.36951    0.01403730124668
             103.94869   0.068842606114048
             29.210155    0.23218442062076
              9.286663    0.46794134155879
              3.163927    0.36231203217765
 s    3 1.00
             7.8682724   -0.11933240861517
             1.8812885   -0.16085421161283
             0.5442493     1.1434564825515
 s    1 1.00
             0.1687144                   1
 p    3 1.00
             7.8682724   0.068999095584993
             1.8812885    0.31642397975315
             0.5442493    0.74430825237435
 p    1 1.00
             0.1687144                   1
 d    1 1.00
                   0.8                   1

35 0
 s    3 1.00
             18.731137    0.03349459952309
             2.8253937    0.23472694665786
             0.6401217    0.81375731841339
 s    1 1.00
             0.1612778                   1

36 0
 s    6 1.00
             3047.5249  0.0018347001629433
             457.36951    0.01403730124668
             103.94869   0.068842606114048
             29.210155    0.23218442062076
              9.286663    0.46794134155879
              3.163927    0.36231203217765
 s    3 1.00
             7.8682724   -0.11933240861517
             1.8812885   -0.16085421161283
             0.5442493     1.1434564825515
 s    1 1.00
             0.1687144                   1
 p    3 1.00
             7.8682724   0.068999095584993
             1.8812885    0.31642397975315
             0.5442493    0.74430825237435
 p    1 1.00
             0.1687144                   1
 d    1 1.00
                   0.8                   1

37 0
 s    3 1.00
             18.731137    0.03349459952309
             2.8253937    0.23472694665786
             0.6401217    0.81375731841339
 s    1 1.00
             0.1612778                   1

38 0
 s    3 1.00
             18.731137    0.03349459952309
             2.8253937    0.23472694665786
             0.6401217    0.81375731841339
 s    1 1.00
             0.1612778                   1

39 0
 s    6 1.00
             3047.5249  0.0018347001629433
             457.36951    0.01403730124668
             103.94869   0.068842606114048
             29.210155    0.23218442062076
              9.286663    0.46794134155879
              3.163927    0.36231203217765
 s    3 1.00
             7.8682724   -0.11933240861517
             1.8812885   -0.16085421161283
             0.5442493     1.1434564825515
 s    1 1.00
             0.1687144                   1
 p    3 1.00
             7.8682724   0.068999095584993
             1.8812885    0.31642397975315
             0.5442493    0.74430825237435
 p    1 1.00
             0.1687144                   1
 d    1 1.00
                   0.8                   1

40 0
 s    6 1.00
             3047.5249  0.0018347001629433
             457.36951    0.01403730124668
             103.94869   0.068842606114048
             29.210155    0.23218442062076
              9.286663    0.46794134155879
              3.163927    0.36231203217765
 s    3 1.00
             7.8682724   -0.11933240861517
             1.8812885   -0.16085421161283
             0.5442493     1.1434564825515
 s    1 1.00
             0.1687144                   1
 p    3 1.00
             7.8682724   0.068999095584993
             1.8812885    0.31642397975315
             0.5442493    0.74430825237435
 p    1 1.00
             0.1687144                   1
 d    1 1.00
                   0.8                   1

41 0
 s    3 1.00
             18.731137    0.03349459952309
             2.8253937    0.23472694665786
             0.6401217    0.81375731841339
 s    1 1.00
             0.1612778                   1

42 0
 s    6 1.00
             5484.6717   0.001831099805527
             825.23495   0.013950098518422
             188.04696    0.06844509273075
               52.9645    0.23271427528445
              16.89757    0.47019295006289
             5.7996353    0.35852086192309
 s    3 1.00
             15.539616   -0.11077750382508
             3.5999336   -0.14802630511126
             1.0137618     1.1307670390447
 s    1 1.00
             0.2700058                   1
 p    3 1.00
             15.539616   0.070874299543311
             3.5999336    0.33975279781076
             1.0137618    0.72715859531445
 p    1 1.00
             0.2700058                   1
 d    1 1.00
                   0.8                   1

43 0
 s    3 1.00
             18.731137    0.03349459952309
             2.8253937    0.23472694665786
             0.6401217    0.81375731841339
 s    1 1.00
             0.1612778                   1

[5d]
[7f]
[9g]

[MO]
 Sym= A
 Ene=               0
 Spin= Alpha
 Occup=    1.00000
   1    8.760138073533e-06
   2    8.2930960576262e-05
   3    -0.0010623532357287
   4    3.2128827598838e-05
   5    -2.4617711684076e-05
   6    9.5002393247974e-07
   7    5.4942130463601e-05
   8    4.3653272149211e-06
   9    0.00084712197945989
  10    -3.1837718902032e-05
  11    -2.5837643481596e-05
  12    -6.2569401284898e-06
  13    -5.1012398873158e-07
  14    -6.306343837598e-07
  15    3.0326983478303e-05
  16    3.1519464906941e-05
  17    -1.4692311163188e-05
  18    -9.384666537782e-05
  19    0.0020081245521535
  20    2.0818569714887e-05
  21    9.3118436523661e-06
  22    -6.0627045371042e-05
  23    0.0013055098871943
  24    4.373318996533e-05
  25    0.00027269205360622
  26    3.8239302229576e-05
  27    -2.7529317740936e-05
  28     7.35790743827e-06
  29    2.756116637091e-05
  30    2.6768760512641e-05
  31    5.1981942709868e-05
  32    0.00029366537893037
  33    4.6211351739468e-05
  34    0.00038861566213444
  35    -0.0049700031112068
  36    -7.053952502158e-05
  37    -1.8320996880051e-05
  38    7.4736823629994e-05
  39    -0.002245946869382
  40    0.00089376281587412
  41    -0.0010118143066912
  42    2.2992547715674e-05
  43    6.3448936230584e-05
  44    3.5594580107713e-05
  45    -0.00013346413150724
  46    4.2013915336452e-05
  47    -3.9984939272855e-05
  48    -0.00043963488595426
  49    3.0039977464058e-05
  50    3.3605504642064e-05
  51    0.0038486152129197
  52    0.00030169205154007
  53    -7.7980678461797e-05
  54    -7.089418616588e-06
  55    -0.0040912530893022
  56    0.00078278441236387
  57    0.00036134291715701
  58    -0.00018368224547521
  59    8.7683378078292e-06
  60    0.00012613797959567
  61    0.00011133247024762
  62    -4.7491001488134e-05
  63    0.0002340720259479
  64    0.00016494961417557
  65    1.7273401572145e-07
  66    -1.2993241569065e-06
  67    4.8406688410949e-08
  68    5.8649551108635e-07
  69    1.1335716065481e-06
  70    -2.2698058538807e-07
  71    5.0777204864315e-07
  72    -9.767040365078e-08
  73    -1.7227881643275e-06
  74    -1.726423940757e-06
  75    6.3982184717098e-07
  76    -2.6274258242049e-07
  77    -1.9899753568289e-07
  78    -4.410478724469e-08
  79    -1.211153173758e-07
  80    -1.9941534562059e-07
  81    -2.1166426656811e-07
  82    -1.483196950779e-06
  83    -2.2560866636251e-07
  84    -2.0871942190906e-06
  85    -7.4175620616394e-06
  86    3.2459331957188e-08
  87    -9.8246276382581e-07
  88    2.4952083870951e-07
  89    -1.4569226525547e-06
  90    7.262308978204e-06
  91    4.9808475935146e-06
  92    1.8363033756565e-07
  93    6.1251627284298e-08
  94    -5.1663674264862e-07
  95    3.6257931442659e-07
  96    -1.9019594762361e-07
  97    -1.325828875688e-06
  98    -2.2931928999487e-06
  99    1.0743089178466e-06
 100    2.4377884250395e-06
 101    7.8005641498302e-07
 102    2.4217363266473e-06
 103    -6.5965232814019e-05
 104    3.4970197876063e-06
 105    1.5666887067819e-06
 106    8.2520120023819e-07
 107    1.178557926248e-05
 108    -1.2282871640024e-05
 109    4.2221411251831e-05
 110    -6.1471710499429e-07
 111    -1.4507703737986e-06
 112    5.789693947376e-07
 113    -1.2486684024246e-07
 114    6.4393838767796e-07
 115    -2.101097190397e-07
 116    -3.3083908621706e-06
 117    2.1661690635643e-05
 118    -1.1117644688136e-07
 119    -1.1609550149426e-06
 120    2.3299542811073e-06
 121    -1.1381517574198e-05
 122    1.5009159946271e-05
 123    -1.7086312623387e-07
 124    -6.464701368025e-07
 125    -1.5508415257428e-08
 126    8.9278178532284e-07
 127    4.6161565577923e-07
 128    -3.6463577181904e-07
 129    -7.8655646145782e-07
 130    -6.7431784014203e-06
 131     4.50644798562e-05
 132    -2.8917657983871e-06
 133    3.2067400575341e-06
 134    3.9059495722247e-06
 135    7.2858123838363e-05
 136    -1.6295862846386e-05
 137    -7.2788438834619e-05
 138    2.4803435503479e-06
 139    6.1231632608613e-07
 140    -1.7987690342736e-06
 141    3.5176632643807e-07
 142    -1.9356199813705e-06
 143    -9.1903105067612e-07
 144    -3.953798890245e-06
 145    6.4772477231575e-05
 146    2.6774428688505e-07
 147    -6.2993624337431e-07
 148    -4.8792367748331e-06
 149    3.2510457891936e-05
 150    -2.7064874472032e-05
 151    1.0068818428431e-05
 152    4.1257561159414e-08
 153    -3.209383803084e-07
 154    1.2993436040131e-06
 155    7.4912774375837e-07
 156    -3.2151783999255e-07
 157    -5.1267424743654e-07
 158    -3.9381769648677e-06
 159    2.2031911046133e-05
 160    -5.9368697921593e-07
 161    -1.5157733537181e-07
 162    -2.7937574376587e-08
 163     1.67818612237e-06
 164    -8.4056558357363e-06
 165    -2.8906417615118e-06
 166    -2.8782241734576e-07
 167    -1.957182804322e-07
 168    6.3788849316619e-08
 169    -6.1145864293847e-07
 170    -2.375238893764e-08
 171    -2.1990463310057e-08
 172    5.0246553309483e-07
 173    3.3963730015773e-07
 174    7.9691633320534e-07
 175    4.2065879469914e-09
 176    -1.2311012510357e-06
 177    -1.1383350136828e-05
 178    1.5776980786559e-06
 179    -2.0337002998082e-06
 180    1.2922930747825e-07
 181    -1.1178974372502e-06
 182    1.8522763344211e-07
 183    -8.810705144937e-07
 184    -7.4366855115327e-07
 185    5.2315720147425e-07
 186    2.4052891935701e-06
 187    -2.8036536684568e-05
 188    9.388988511994e-07
 189    3.7045238602396e-07
 190    2.1918241066548e-06
 191    3.5261688709685e-06
 192    5.9228472159139e-06
 193    1.1489967397737e-05
 194    -5.7563617427618e-07
 195    -8.2021175398884e-07
 196    -6.8569448990408e-07
 197    5.3942957110828e-07
 198    -4.6823246281366e-07
 199    1.0619324493196e-06
 200    -9.878900308541e-07
 201    8.5270260570366e-07
 202    2.3843954090696e-06
 203    1.120933787846e-06
 204    6.3946745760317e-06
 205    -2.6955172249875e-06
 206    -6.8535236528156e-07
 207    -2.8018102219643e-06
 208    1.3592003346843e-06
 209    -1.0037840965342e-06
 210    -4.4502044804005e-06
 211    -8.0605638712762e-07
 212    -1.2142807251717e-06
 213    -7.306310217086e-07
 214    2.2426739117937e-06
 215    2.3573861861063e-06
 216    -1.2906905936491e-05
 217    -8.0201321395675e-07
 218    -2.2978566462563e-06
 219    1.0894696376018e-07
 220    3.3034635052477e-06
 221    2.7795157325863e-06
 222    2.2039731057249e-05
 223    -0.00032134367035911
 224    1.5413760840764e-06
 225    -1.0298223369532e-05
 226    3.9564346865856e-06
 227    -9.7664246083946e-05
 228    -3.3052213028277e-05
 229    0.00011082995558549
 230    -6.6813356733859e-06
 231    3.936409931258e-06
 232    5.7263542339366e-06
 233    -1.7530689029875e-06
 234    -1.9098582059316e-06
 235    -1.0056889401411e-05
 236    -4.428196919724e-05
 237    0.00044503818555378
 238    1.1073027948631e-05
 239    -7.5737468649337e-06
 240    7.5484200385092e-06
 241    -0.0001895451975327
 242    -6.5680840210245e-05
 243    5.8041068734357e-05
 244     7.29670716499e-06
 245    -4.5499845841511e-06
 246    -5.974521808838e-06
 247    5.5541656473223e-07
 248    -2.7196073789939e-07
 249    6.8549225919376e-07
 250    8.9449085209553e-06
 251    -1.4114678978171e-05
 252    -7.164009538173e-06
 253    -0.00028378721293558
 254    -1.2577019568938e-05
 255    -6.0861873832719e-06
 256    -1.1020351973075e-05
 257    -0.00019107957505401
 258    -6.1006281533028e-05
 259    -0.00026344906435589
 260    -2.4904037512252e-06
 261    -6.2364827230148e-06
 262    3.9185963890318e-06
 263    3.9409391513284e-06
 264    -6.4515902322799e-06
 265    9.0387131852646e-06
 266    9.6286788005302e-06
 267    -5.3048196828157e-06
 268    -4.9672396170682e-05
 269    0.00026787507467505
 270    0.00010058790131841
 271    0.0032599392220307
 272    0.00051838150625483
 273    -0.00014220311632273
 274    4.0785805263242e-05
 275    0.0026930229743109
 276    0.00080689527743986
 277    -0.0028694885567711
 278    -0.00010140216346998
 279    -0.00031794482489667
 280    9.2743324896213e-05