[Molden Format]
made by pyscf v[2.0.1]
[Atoms] (AU)
C   1   6     0.69100024066471     0.64692934207205    -3.48223131169301
H   2   1     2.68052439830868     1.13355088658700    -3.25784032593313
C   3   6    -0.36286361513219     0.85440132524594    -5.97030179418974
H   4   1    -2.35448549047279     0.36322488579172    -6.17995817793143
C   5   6     0.93697958957450     1.61209284601821    -8.05828437677121
H   6   1     0.50725181311820     3.44287068169954    -8.89764684313250
C   7   6     2.86970100877903     0.12057508237944    -9.23991306333710
H   8   1     3.28022106466413    -1.70875314533660    -8.37692190559989
H   9   1     1.55630230933075    -1.92953025305990    12.99630010416247
C   10   6     0.75233899775814    -2.21270439606481    11.10705728102219
H   11   1    -0.43433408177274    -3.90944857546550    11.22216085340412
C   12   6     2.86362581178706    -2.63237380607947     9.17926416456045
H   13   1     4.39038949912609    -1.24955421540245     9.49899813497433
H   14   1     3.74629220191363    -4.48798724300892     9.47414880959024
C   15   6     2.02478325613682    -2.42177285709634     6.44560829588644
C   16   6     3.88048732735477    -3.58795445234514     4.61402886975252
C   17   6    -0.18412382258602    -1.30464291234259     5.76021113872346
C   18   6    -2.10044360464350    -0.26837831858460     7.71610340967100
C   19   6    -3.08956938670431     2.35282328359417     6.88693925039594
C   20   6    -4.37372924086464    -2.09766595989678     7.93610724222001
C   21   6    -0.83850430601230     0.06372213486173    10.33002307638377
H   22   1     0.38411922151109     1.74281358582432    10.27380136542181
H   23   1    -2.30980003007874     0.45460143924521    11.73986301809809
H   24   1     4.58527064644668    -5.38706904487420     5.36778158031719
H   25   1     5.54944938085014    -2.37631462192748     4.35398898413318
H   26   1     3.06633019150423    -3.94118377050688     2.75255466040884
H   27   1    -4.17727778763735     2.26573369139522     5.12914900961283
H   28   1    -1.52662344944051     3.68001877445626     6.59540397144508
H   29   1    -4.32916174397830     3.13643051467482     8.35225460090378
H   30   1    -5.32329548508442    -2.36691813602939     6.11583672749896
H   31   1    -5.77989366602257    -1.33896741843465     9.25748940450990
H   32   1    -3.79310905208926    -3.96389819310853     8.61386170102686
C   33   6    -1.01100794811226    -1.06331657314144     3.11929490449947
C   34   6     0.37686231036534    -0.33275864505552     1.09165013605873
H   35   1    -3.01671213906703    -1.40297922279997     2.77827895090944
C   36   6    -0.64382707979370    -0.11591880174385    -1.42063131251064
H   37   1     2.35569259782137     0.17174499283897     1.33641070251401
H   38   1    -2.63317482980319    -0.60229203511219    -1.66119700387645
C   39   6     4.20991814769739     0.79575668965015   -11.31949989075694
C   40   6     6.14288813089389    -0.86010693489370   -12.38193355267250
H   41   1     3.89481568247576     2.59125541029260   -12.27063769452772
O   42   8     7.41472391465697    -0.37430332261595   -14.24398959848541
H   43   1     6.40229959564941    -2.67780216203268   -11.34807250251721
[GTO]
1 0
 s    6 1.00
             3047.5249  0.0018347001629433
             457.36951    0.01403730124668
             103.94869   0.068842606114048
             29.210155    0.23218442062076
              9.286663    0.46794134155879
              3.163927    0.36231203217765
 s    3 1.00
             7.8682724   -0.11933240861517
             1.8812885   -0.16085421161283
             0.5442493     1.1434564825515
 s    1 1.00
             0.1687144                   1
 p    3 1.00
             7.8682724   0.068999095584993
             1.8812885    0.31642397975315
             0.5442493    0.74430825237435
 p    1 1.00
             0.1687144                   1
 d    1 1.00
                   0.8                   1

2 0
 s    3 1.00
             18.731137    0.03349459952309
             2.8253937    0.23472694665786
             0.6401217    0.81375731841339
 s    1 1.00
             0.1612778                   1

3 0
 s    6 1.00
             3047.5249  0.0018347001629433
             457.36951    0.01403730124668
             103.94869   0.068842606114048
             29.210155    0.23218442062076
              9.286663    0.46794134155879
              3.163927    0.36231203217765
 s    3 1.00
             7.8682724   -0.11933240861517
             1.8812885   -0.16085421161283
             0.5442493     1.1434564825515
 s    1 1.00
             0.1687144                   1
 p    3 1.00
             7.8682724   0.068999095584993
             1.8812885    0.31642397975315
             0.5442493    0.74430825237435
 p    1 1.00
             0.1687144                   1
 d    1 1.00
                   0.8                   1

4 0
 s    3 1.00
             18.731137    0.03349459952309
             2.8253937    0.23472694665786
             0.6401217    0.81375731841339
 s    1 1.00
             0.1612778                   1

5 0
 s    6 1.00
             3047.5249  0.0018347001629433
             457.36951    0.01403730124668
             103.94869   0.068842606114048
             29.210155    0.23218442062076
              9.286663    0.46794134155879
              3.163927    0.36231203217765
 s    3 1.00
             7.8682724   -0.11933240861517
             1.8812885   -0.16085421161283
             0.5442493     1.1434564825515
 s    1 1.00
             0.1687144                   1
 p    3 1.00
             7.8682724   0.068999095584993
             1.8812885    0.31642397975315
             0.5442493    0.74430825237435
 p    1 1.00
             0.1687144                   1
 d    1 1.00
                   0.8                   1

6 0
 s    3 1.00
             18.731137    0.03349459952309
             2.8253937    0.23472694665786
             0.6401217    0.81375731841339
 s    1 1.00
             0.1612778                   1

7 0
 s    6 1.00
             3047.5249  0.0018347001629433
             457.36951    0.01403730124668
             103.94869   0.068842606114048
             29.210155    0.23218442062076
              9.286663    0.46794134155879
              3.163927    0.36231203217765
 s    3 1.00
             7.8682724   -0.11933240861517
             1.8812885   -0.16085421161283
             0.5442493     1.1434564825515
 s    1 1.00
             0.1687144                   1
 p    3 1.00
             7.8682724   0.068999095584993
             1.8812885    0.31642397975315
             0.5442493    0.74430825237435
 p    1 1.00
             0.1687144                   1
 d    1 1.00
                   0.8                   1

8 0
 s    3 1.00
             18.731137    0.03349459952309
             2.8253937    0.23472694665786
             0.6401217    0.81375731841339
 s    1 1.00
             0.1612778                   1

9 0
 s    3 1.00
             18.731137    0.03349459952309
             2.8253937    0.23472694665786
             0.6401217    0.81375731841339
 s    1 1.00
             0.1612778                   1

10 0
 s    6 1.00
             3047.5249  0.0018347001629433
             457.36951    0.01403730124668
             103.94869   0.068842606114048
             29.210155    0.23218442062076
              9.286663    0.46794134155879
              3.163927    0.36231203217765
 s    3 1.00
             7.8682724   -0.11933240861517
             1.8812885   -0.16085421161283
             0.5442493     1.1434564825515
 s    1 1.00
             0.1687144                   1
 p    3 1.00
             7.8682724   0.068999095584993
             1.8812885    0.31642397975315
             0.5442493    0.74430825237435
 p    1 1.00
             0.1687144                   1
 d    1 1.00
                   0.8                   1

11 0
 s    3 1.00
             18.731137    0.03349459952309
             2.8253937    0.23472694665786
             0.6401217    0.81375731841339
 s    1 1.00
             0.1612778                   1

12 0
 s    6 1.00
             3047.5249  0.0018347001629433
             457.36951    0.01403730124668
             103.94869   0.068842606114048
             29.210155    0.23218442062076
              9.286663    0.46794134155879
              3.163927    0.36231203217765
 s    3 1.00
             7.8682724   -0.11933240861517
             1.8812885   -0.16085421161283
             0.5442493     1.1434564825515
 s    1 1.00
             0.1687144                   1
 p    3 1.00
             7.8682724   0.068999095584993
             1.8812885    0.31642397975315
             0.5442493    0.74430825237435
 p    1 1.00
             0.1687144                   1
 d    1 1.00
                   0.8                   1

13 0
 s    3 1.00
             18.731137    0.03349459952309
             2.8253937    0.23472694665786
             0.6401217    0.81375731841339
 s    1 1.00
             0.1612778                   1

14 0
 s    3 1.00
             18.731137    0.03349459952309
             2.8253937    0.23472694665786
             0.6401217    0.81375731841339
 s    1 1.00
             0.1612778                   1

15 0
 s    6 1.00
             3047.5249  0.0018347001629433
             457.36951    0.01403730124668
             103.94869   0.068842606114048
             29.210155    0.23218442062076
              9.286663    0.46794134155879
              3.163927    0.36231203217765
 s    3 1.00
             7.8682724   -0.11933240861517
             1.8812885   -0.16085421161283
             0.5442493     1.1434564825515
 s    1 1.00
             0.1687144                   1
 p    3 1.00
             7.8682724   0.068999095584993
             1.8812885    0.31642397975315
             0.5442493    0.74430825237435
 p    1 1.00
             0.1687144                   1
 d    1 1.00
                   0.8                   1

16 0
 s    6 1.00
             3047.5249  0.0018347001629433
             457.36951    0.01403730124668
             103.94869   0.068842606114048
             29.210155    0.23218442062076
              9.286663    0.46794134155879
              3.163927    0.36231203217765
 s    3 1.00
             7.8682724   -0.11933240861517
             1.8812885   -0.16085421161283
             0.5442493     1.1434564825515
 s    1 1.00
             0.1687144                   1
 p    3 1.00
             7.8682724   0.068999095584993
             1.8812885    0.31642397975315
             0.5442493    0.74430825237435
 p    1 1.00
             0.1687144                   1
 d    1 1.00
                   0.8                   1

17 0
 s    6 1.00
             3047.5249  0.0018347001629433
             457.36951    0.01403730124668
             103.94869   0.068842606114048
             29.210155    0.23218442062076
              9.286663    0.46794134155879
              3.163927    0.36231203217765
 s    3 1.00
             7.8682724   -0.11933240861517
             1.8812885   -0.16085421161283
             0.5442493     1.1434564825515
 s    1 1.00
             0.1687144                   1
 p    3 1.00
             7.8682724   0.068999095584993
             1.8812885    0.31642397975315
             0.5442493    0.74430825237435
 p    1 1.00
             0.1687144                   1
 d    1 1.00
                   0.8                   1

18 0
 s    6 1.00
             3047.5249  0.0018347001629433
             457.36951    0.01403730124668
             103.94869   0.068842606114048
             29.210155    0.23218442062076
              9.286663    0.46794134155879
              3.163927    0.36231203217765
 s    3 1.00
             7.8682724   -0.11933240861517
             1.8812885   -0.16085421161283
             0.5442493     1.1434564825515
 s    1 1.00
             0.1687144                   1
 p    3 1.00
             7.8682724   0.068999095584993
             1.8812885    0.31642397975315
             0.5442493    0.74430825237435
 p    1 1.00
             0.1687144                   1
 d    1 1.00
                   0.8                   1

19 0
 s    6 1.00
             3047.5249  0.0018347001629433
             457.36951    0.01403730124668
             103.94869   0.068842606114048
             29.210155    0.23218442062076
              9.286663    0.46794134155879
              3.163927    0.36231203217765
 s    3 1.00
             7.8682724   -0.11933240861517
             1.8812885   -0.16085421161283
             0.5442493     1.1434564825515
 s    1 1.00
             0.1687144                   1
 p    3 1.00
             7.8682724   0.068999095584993
             1.8812885    0.31642397975315
             0.5442493    0.74430825237435
 p    1 1.00
             0.1687144                   1
 d    1 1.00
                   0.8                   1

20 0
 s    6 1.00
             3047.5249  0.0018347001629433
             457.36951    0.01403730124668
             103.94869   0.068842606114048
             29.210155    0.23218442062076
              9.286663    0.46794134155879
              3.163927    0.36231203217765
 s    3 1.00
             7.8682724   -0.11933240861517
             1.8812885   -0.16085421161283
             0.5442493     1.1434564825515
 s    1 1.00
             0.1687144                   1
 p    3 1.00
             7.8682724   0.068999095584993
             1.8812885    0.31642397975315
             0.5442493    0.74430825237435
 p    1 1.00
             0.1687144                   1
 d    1 1.00
                   0.8                   1

21 0
 s    6 1.00
             3047.5249  0.0018347001629433
             457.36951    0.01403730124668
             103.94869   0.068842606114048
             29.210155    0.23218442062076
              9.286663    0.46794134155879
              3.163927    0.36231203217765
 s    3 1.00
             7.8682724   -0.11933240861517
             1.8812885   -0.16085421161283
             0.5442493     1.1434564825515
 s    1 1.00
             0.1687144                   1
 p    3 1.00
             7.8682724   0.068999095584993
             1.8812885    0.31642397975315
             0.5442493    0.74430825237435
 p    1 1.00
             0.1687144                   1
 d    1 1.00
                   0.8                   1

22 0
 s    3 1.00
             18.731137    0.03349459952309
             2.8253937    0.23472694665786
             0.6401217    0.81375731841339
 s    1 1.00
             0.1612778                   1

23 0
 s    3 1.00
             18.731137    0.03349459952309
             2.8253937    0.23472694665786
             0.6401217    0.81375731841339
 s    1 1.00
             0.1612778                   1

24 0
 s    3 1.00
             18.731137    0.03349459952309
             2.8253937    0.23472694665786
             0.6401217    0.81375731841339
 s    1 1.00
             0.1612778                   1

25 0
 s    3 1.00
             18.731137    0.03349459952309
             2.8253937    0.23472694665786
             0.6401217    0.81375731841339
 s    1 1.00
             0.1612778                   1

26 0
 s    3 1.00
             18.731137    0.03349459952309
             2.8253937    0.23472694665786
             0.6401217    0.81375731841339
 s    1 1.00
             0.1612778                   1

27 0
 s    3 1.00
             18.731137    0.03349459952309
             2.8253937    0.23472694665786
             0.6401217    0.81375731841339
 s    1 1.00
             0.1612778                   1

28 0
 s    3 1.00
             18.731137    0.03349459952309
             2.8253937    0.23472694665786
             0.6401217    0.81375731841339
 s    1 1.00
             0.1612778                   1

29 0
 s    3 1.00
             18.731137    0.03349459952309
             2.8253937    0.23472694665786
             0.6401217    0.81375731841339
 s    1 1.00
             0.1612778                   1

30 0
 s    3 1.00
             18.731137    0.03349459952309
             2.8253937    0.23472694665786
             0.6401217    0.81375731841339
 s    1 1.00
             0.1612778                   1

31 0
 s    3 1.00
             18.731137    0.03349459952309
             2.8253937    0.23472694665786
             0.6401217    0.81375731841339
 s    1 1.00
             0.1612778                   1

32 0
 s    3 1.00
             18.731137    0.03349459952309
             2.8253937    0.23472694665786
             0.6401217    0.81375731841339
 s    1 1.00
             0.1612778                   1

33 0
 s    6 1.00
             3047.5249  0.0018347001629433
             457.36951    0.01403730124668
             103.94869   0.068842606114048
             29.210155    0.23218442062076
              9.286663    0.46794134155879
              3.163927    0.36231203217765
 s    3 1.00
             7.8682724   -0.11933240861517
             1.8812885   -0.16085421161283
             0.5442493     1.1434564825515
 s    1 1.00
             0.1687144                   1
 p    3 1.00
             7.8682724   0.068999095584993
             1.8812885    0.31642397975315
             0.5442493    0.74430825237435
 p    1 1.00
             0.1687144                   1
 d    1 1.00
                   0.8                   1

34 0
 s    6 1.00
             3047.5249  0.0018347001629433
             457.36951    0.01403730124668
             103.94869   0.068842606114048
             29.210155    0.23218442062076
              9.286663    0.46794134155879
              3.163927    0.36231203217765
 s    3 1.00
             7.8682724   -0.11933240861517
             1.8812885   -0.16085421161283
             0.5442493     1.1434564825515
 s    1 1.00
             0.1687144                   1
 p    3 1.00
             7.8682724   0.068999095584993
             1.8812885    0.31642397975315
             0.5442493    0.74430825237435
 p    1 1.00
             0.1687144                   1
 d    1 1.00
                   0.8                   1

35 0
 s    3 1.00
             18.731137    0.03349459952309
             2.8253937    0.23472694665786
             0.6401217    0.81375731841339
 s    1 1.00
             0.1612778                   1

36 0
 s    6 1.00
             3047.5249  0.0018347001629433
             457.36951    0.01403730124668
             103.94869   0.068842606114048
             29.210155    0.23218442062076
              9.286663    0.46794134155879
              3.163927    0.36231203217765
 s    3 1.00
             7.8682724   -0.11933240861517
             1.8812885   -0.16085421161283
             0.5442493     1.1434564825515
 s    1 1.00
             0.1687144                   1
 p    3 1.00
             7.8682724   0.068999095584993
             1.8812885    0.31642397975315
             0.5442493    0.74430825237435
 p    1 1.00
             0.1687144                   1
 d    1 1.00
                   0.8                   1

37 0
 s    3 1.00
             18.731137    0.03349459952309
             2.8253937    0.23472694665786
             0.6401217    0.81375731841339
 s    1 1.00
             0.1612778                   1

38 0
 s    3 1.00
             18.731137    0.03349459952309
             2.8253937    0.23472694665786
             0.6401217    0.81375731841339
 s    1 1.00
             0.1612778                   1

39 0
 s    6 1.00
             3047.5249  0.0018347001629433
             457.36951    0.01403730124668
             103.94869   0.068842606114048
             29.210155    0.23218442062076
              9.286663    0.46794134155879
              3.163927    0.36231203217765
 s    3 1.00
             7.8682724   -0.11933240861517
             1.8812885   -0.16085421161283
             0.5442493     1.1434564825515
 s    1 1.00
             0.1687144                   1
 p    3 1.00
             7.8682724   0.068999095584993
             1.8812885    0.31642397975315
             0.5442493    0.74430825237435
 p    1 1.00
             0.1687144                   1
 d    1 1.00
                   0.8                   1

40 0
 s    6 1.00
             3047.5249  0.0018347001629433
             457.36951    0.01403730124668
             103.94869   0.068842606114048
             29.210155    0.23218442062076
              9.286663    0.46794134155879
              3.163927    0.36231203217765
 s    3 1.00
             7.8682724   -0.11933240861517
             1.8812885   -0.16085421161283
             0.5442493     1.1434564825515
 s    1 1.00
             0.1687144                   1
 p    3 1.00
             7.8682724   0.068999095584993
             1.8812885    0.31642397975315
             0.5442493    0.74430825237435
 p    1 1.00
             0.1687144                   1
 d    1 1.00
                   0.8                   1

41 0
 s    3 1.00
             18.731137    0.03349459952309
             2.8253937    0.23472694665786
             0.6401217    0.81375731841339
 s    1 1.00
             0.1612778                   1

42 0
 s    6 1.00
             5484.6717   0.001831099805527
             825.23495   0.013950098518422
             188.04696    0.06844509273075
               52.9645    0.23271427528445
              16.89757    0.47019295006289
             5.7996353    0.35852086192309
 s    3 1.00
             15.539616   -0.11077750382508
             3.5999336   -0.14802630511126
             1.0137618     1.1307670390447
 s    1 1.00
             0.2700058                   1
 p    3 1.00
             15.539616   0.070874299543311
             3.5999336    0.33975279781076
             1.0137618    0.72715859531445
 p    1 1.00
             0.2700058                   1
 d    1 1.00
                   0.8                   1

43 0
 s    3 1.00
             18.731137    0.03349459952309
             2.8253937    0.23472694665786
             0.6401217    0.81375731841339
 s    1 1.00
             0.1612778                   1

[5d]
[7f]
[9g]

[MO]
 Sym= A
 Ene=               0
 Spin= Alpha
 Occup=    1.00000
   1    -2.1353587824299e-06
   2    -7.4986978731889e-06
   3    0.0002476715858775
   4    -1.55069121446e-06
   5    2.0129363813901e-05
   6    -9.0092166709536e-06
   7    -7.9082018002649e-05
   8    -0.00016162375803642
   9    0.00019734610050883
  10    4.2820100388793e-06
  11    -4.2585534429779e-06
  12    2.6688742779666e-06
  13    -1.1420915140175e-05
  14    6.9529572940712e-06
  15    7.2597815336101e-06
  16    -1.093084759902e-06
  17    -4.1001855343845e-06
  18    -0.00012008910159043
  19    -0.00064180828098836
  20    -5.3553827409692e-05
  21    -1.6811030839717e-06
  22    6.3626891146958e-05
  23    -0.00036118338158296
  24    0.0001258445176175
  25    0.00038807687341039
  26    -2.3115044473473e-05
  27    2.5099695645196e-05
  28    -1.8996635382652e-05
  29    -3.5722587445389e-05
  30    -1.490565080806e-05
  31    5.1150382460761e-06
  32    -6.7027290498717e-05
  33    -5.3075023598877e-05
  34    -0.00034587285869582
  35    0.0042781919982744
  36    9.7092180362363e-05
  37    -9.6853363639512e-06
  38    -0.00011541924424367
  39    0.0011265250797888
  40    -0.0017051096508271
  41    -5.1697700814755e-05
  42    -8.8414768920008e-06
  43    -0.00010575013435999
  44    2.2540604117879e-05
  45    2.0017735749681e-05
  46    -8.7824029538172e-05
  47    1.8242559818719e-05
  48    0.00028754981841313
  49    -4.7895540795846e-05
  50    -0.00019564292631381
  51    -0.0035406401247179
  52    -0.00028540566142508
  53    0.00018356826180192
  54    0.00020058686707071
  55    0.0026224764736371
  56    -0.0022131642351105
  57    -0.0014669496421101
  58    7.8685715566739e-05
  59    -1.2020924671274e-05
  60    -0.00017292758715572
  61    -5.9455274645154e-05
  62    0.00010539932676089
  63    -0.00030133381752856
  64    -8.5168852432525e-05
  65    1.1070764518001e-07
  66    3.6655076088416e-07
  67    2.4248288496488e-08
  68    4.1490969072481e-07
  69    -2.2767112143776e-06
  70    -9.7020088835942e-08
  71    1.8335793478085e-07
  72    -1.7602644457111e-07
  73    1.4055958271511e-08
  74    -1.2487314863659e-06
  75    4.6102736570424e-08
  76    9.2566331238749e-08
  77    1.2751421475842e-07
  78    -1.9977430255879e-08
  79    -2.8352732623407e-08
  80    1.2565544520623e-07
  81    -7.3997297631118e-08
  82    -2.3860094715849e-08
  83    2.5610495263921e-08
  84    6.3452880645904e-07
  85    1.4371862666325e-05
  86    -7.2988121390493e-07
  87    1.4503283794508e-07
  88    -8.6467348005275e-07
  89    -2.5296764512237e-06
  90    2.8209241050725e-06
  91    -4.3859898072058e-06
  92    -1.8159161237916e-07
  93    2.1594648007541e-07
  94    -2.5782367453276e-07
  95    -1.3052658155337e-07
  96    1.7659404971022e-07
  97    -4.8492643280421e-07
  98    -4.437638417838e-07
  99    -1.873556308538e-07
 100    5.2011831532708e-07
 101    -9.1707735906854e-08
 102    -1.3019698082853e-07
 103    3.4924248559814e-06
 104    -6.3207144644787e-07
 105    9.3050673401139e-07
 106    5.8208933978201e-07
 107    1.4467213736059e-05
 108    -1.4049900449031e-05
 109    -3.8167174811612e-05
 110    6.4141213482561e-07
 111    7.7130209312791e-07
 112    -3.1007309497631e-07
 113    -9.679567089843e-08
 114    3.3801489993646e-07
 115    4.7212724704369e-07
 116    4.2165466016433e-06
 117    -3.6036825988436e-05
 118    6.6231031460928e-07
 119    -6.3946154246122e-07
 120    -1.0080436751697e-06
 121    1.0299390374893e-05
 122    -4.574205550989e-06
 123    -3.7186236568757e-06
 124    2.1855303405213e-07
 125    3.2093058068676e-07
 126    -9.2569803974423e-08
 127    -2.8881740680736e-07
 128    4.4318750903013e-07
 129    1.0557965148902e-06
 130    8.587215127118e-06
 131    -5.9846193550605e-05
 132    4.3008067732721e-07
 133    -5.4239289821096e-07
 134    -3.2489429806674e-06
 135    7.1237574672332e-06
 136    7.0730396973997e-06
 137    9.1147897983653e-05
 138    -2.6513068337553e-06
 139    -1.7524541872078e-06
 140    1.3143945953372e-07
 141    -4.6555748661987e-07
 142    3.3922304943857e-07
 143    6.0972320391148e-07
 144    5.3632096778443e-06
 145    -3.4865453725194e-05
 146    2.2736690684529e-11
 147    -1.4357539091251e-07
 148    1.2215391882812e-07
 149    -1.8687211370954e-05
 150    7.9786175300443e-06
 151    3.7018602402093e-06
 152    7.9063389476293e-07
 153    4.6835698543272e-07
 154    -6.2450661433253e-08
 155    -7.6303400135193e-07
 156    8.6439754588489e-07
 157    -5.4851801657732e-08
 158    -3.0726105099184e-07
 159    -1.503860785175e-06
 160    -4.8295578958374e-07
 161    -1.4557613669986e-08
 162    1.6862482894849e-07
 163    6.2589897582945e-06
 164    1.4135276771608e-07
 165    -4.7657013270976e-07
 166    -4.800093761965e-07
 167    3.2689844986885e-07
 168    -4.8813159885522e-08
 169    1.7349214281044e-07
 170    -3.4352129421528e-07
 171    -1.1695494136783e-08
 172    3.959713933887e-07
 173    2.4219040902771e-07
 174    4.0548672228608e-07
 175    1.7686316360773e-07
 176    -4.5661485130625e-07
 177    1.8266949108841e-06
 178    -2.2147341433163e-06
 179    1.4188746429007e-06
 180    -1.1765250375138e-07
 181    -3.9338956254806e-08
 182    -1.3053695465803e-07
 183    4.6808804340962e-07
 184    -6.539365371336e-08
 185    1.9514839806402e-07
 186    2.2517188487805e-06
 187    3.2167943573013e-06
 188    2.388894955816e-08
 189    -1.6300882732009e-07
 190    -1.3402809637402e-06
 191    -2.0929980767863e-06
 192    -1.1058239889307e-06
 193    2.5553336258643e-06
 194    -8.6127717125788e-08
 195    1.4721750996825e-07
 196    -1.4893922202979e-07
 197    -2.0352051835717e-07
 198    1.5696646371561e-07
 199    3.9358407416166e-07
 200    8.9551942840428e-07
 201    -7.4280911793494e-08
 202    -3.1280036566704e-06
 203    1.2811257840333e-06
 204    3.1252760855814e-07
 205    5.8172299726723e-07
 206    2.1944170327053e-06
 207    -4.503069013896e-08
 208    7.0452953149262e-06
 209    -9.6050677606646e-07
 210    4.7096613629083e-06
 211    -4.7853141395811e-07
 212    -2.5034541295809e-06
 213    3.308696687838e-07
 214    1.6208408076457e-06
 215    2.9485750291145e-08
 216    1.1499895143468e-06
 217    -3.0722128291548e-08
 218    -1.7917513311754e-07
 219    -3.0552795319205e-07
 220    -1.451014451158e-06
 221    6.1378382436579e-08
 222    3.7006631886124e-06
 223    6.3562728861267e-05
 224    -5.964087025664e-07
 225    2.310291369541e-06
 226    -4.6039806495898e-06
 227    1.1465146006225e-05
 228    -2.1907775993779e-05
 229    7.4847044247204e-05
 230    1.9289623443106e-06
 231    3.3976470898186e-06
 232    7.7956605636983e-07
 233    -1.4275535860745e-06
 234    -2.1141063853417e-06
 235    1.0221619643476e-06
 236    9.1353707876672e-06
 237    -7.6830727364551e-05
 238    -5.3172586010086e-07
 239    -4.0273488597902e-06
 240    -4.8521366700578e-07
 241    4.887969984615e-05
 242    1.2149070720042e-05
 243    5.7283219784897e-05
 244    -1.4378344233441e-06
 245    -5.1891755701603e-06
 246     2.22833492684e-07
 247    -2.6273984553017e-06
 248    -1.9520057027848e-07
 249    4.6208095526277e-06
 250    -9.6068030647939e-06
 251    1.5169056579224e-06
 252    2.7320660816334e-05
 253    -0.00025059916794693
 254    -3.2565965280267e-06
 255    4.1427478801823e-06
 256    -8.1572310454946e-06
 257    -9.128205930096e-05
 258    -6.0022899022547e-05
 259    0.00027209985154187
 260    -3.6146433005778e-06
 261    1.2277244394027e-05
 262    2.732910845851e-06
 263    -8.8830065985767e-06
 264    -1.2778139442557e-06
 265    5.2340731744685e-07
 266    -2.6607901406916e-05
 267    9.6060184226684e-06
 268    -2.1577480353773e-05
 269    8.3130395277542e-06
 270    4.5646248987542e-05
 271    -0.0030530920604625
 272    -5.2595376333194e-05
 273    0.00017490585900842
 274    -6.5929420907464e-05
 275    -0.0022396959683138
 276    -0.00063627277381717
 277    0.0031123964673265
 278    -0.00010911745109697
 279    0.00026064139614146