[Molden Format]
made by pyscf v[2.0.1]
[Atoms] (AU)
C   1   6     0.69100024066471     0.64692934207205    -3.48223131169301
H   2   1     2.68052439830868     1.13355088658700    -3.25784032593313
C   3   6    -0.36286361513219     0.85440132524594    -5.97030179418974
H   4   1    -2.35448549047279     0.36322488579172    -6.17995817793143
C   5   6     0.93697958957450     1.61209284601821    -8.05828437677121
H   6   1     1.06549067678056     3.62267689696451    -8.48487489511106
C   7   6     2.16736557798100    -0.10534186648568    -9.75912299477448
H   8   1     2.02320928491733    -2.11383137749881    -9.30645195914250
H   9   1     1.55630230933075    -1.92953025305990    12.99630010416247
C   10   6     0.75233899775814    -2.21270439606481    11.10705728102219
H   11   1    -0.43433408177274    -3.90944857546550    11.22216085340412
C   12   6     2.86362581178706    -2.63237380607947     9.17926416456045
H   13   1     4.39038949912609    -1.24955421540245     9.49899813497433
H   14   1     3.74629220191363    -4.48798724300892     9.47414880959024
C   15   6     2.02478325613682    -2.42177285709634     6.44560829588644
C   16   6     3.88048732735477    -3.58795445234514     4.61402886975252
C   17   6    -0.18412382258602    -1.30464291234259     5.76021113872346
C   18   6    -2.10044360464350    -0.26837831858460     7.71610340967100
C   19   6    -3.08956938670431     2.35282328359417     6.88693925039594
C   20   6    -4.37372924086464    -2.09766595989678     7.93610724222001
C   21   6    -0.83850430601230     0.06372213486173    10.33002307638377
H   22   1     0.38411922151109     1.74281358582432    10.27380136542181
H   23   1    -2.30980003007874     0.45460143924521    11.73986301809809
H   24   1     4.58527064644668    -5.38706904487420     5.36778158031719
H   25   1     5.54944938085014    -2.37631462192748     4.35398898413318
H   26   1     3.06633019150423    -3.94118377050688     2.75255466040884
H   27   1    -4.17727778763735     2.26573369139522     5.12914900961283
H   28   1    -1.52662344944051     3.68001877445626     6.59540397144508
H   29   1    -4.32916174397830     3.13643051467482     8.35225460090378
H   30   1    -5.32329548508442    -2.36691813602939     6.11583672749896
H   31   1    -5.77989366602257    -1.33896741843465     9.25748940450990
H   32   1    -3.79310905208926    -3.96389819310853     8.61386170102686
C   33   6    -1.01100794811226    -1.06331657314144     3.11929490449947
C   34   6     0.37686231036534    -0.33275864505552     1.09165013605873
H   35   1    -3.01671213906703    -1.40297922279997     2.77827895090944
C   36   6    -0.64382707979370    -0.11591880174385    -1.42063131251064
H   37   1     2.35569259782137     0.17174499283897     1.33641070251401
H   38   1    -2.63317482980319    -0.60229203511219    -1.66119700387645
C   39   6     3.47875288242203     0.56169257871714   -11.85961387583028
C   40   6     4.66516051155728    -1.33401759756945   -13.47384510134906
H   41   1     3.69428385946791     2.52875803282145   -12.41815504578381
O   42   8     5.86788117255002    -0.86880199432758   -15.38639878207248
H   43   1     4.39675898316744    -3.32256790318547   -12.83056660829343
[GTO]
1 0
 s    6 1.00
             3047.5249  0.0018347001629433
             457.36951    0.01403730124668
             103.94869   0.068842606114048
             29.210155    0.23218442062076
              9.286663    0.46794134155879
              3.163927    0.36231203217765
 s    3 1.00
             7.8682724   -0.11933240861517
             1.8812885   -0.16085421161283
             0.5442493     1.1434564825515
 s    1 1.00
             0.1687144                   1
 p    3 1.00
             7.8682724   0.068999095584993
             1.8812885    0.31642397975315
             0.5442493    0.74430825237435
 p    1 1.00
             0.1687144                   1
 d    1 1.00
                   0.8                   1

2 0
 s    3 1.00
             18.731137    0.03349459952309
             2.8253937    0.23472694665786
             0.6401217    0.81375731841339
 s    1 1.00
             0.1612778                   1

3 0
 s    6 1.00
             3047.5249  0.0018347001629433
             457.36951    0.01403730124668
             103.94869   0.068842606114048
             29.210155    0.23218442062076
              9.286663    0.46794134155879
              3.163927    0.36231203217765
 s    3 1.00
             7.8682724   -0.11933240861517
             1.8812885   -0.16085421161283
             0.5442493     1.1434564825515
 s    1 1.00
             0.1687144                   1
 p    3 1.00
             7.8682724   0.068999095584993
             1.8812885    0.31642397975315
             0.5442493    0.74430825237435
 p    1 1.00
             0.1687144                   1
 d    1 1.00
                   0.8                   1

4 0
 s    3 1.00
             18.731137    0.03349459952309
             2.8253937    0.23472694665786
             0.6401217    0.81375731841339
 s    1 1.00
             0.1612778                   1

5 0
 s    6 1.00
             3047.5249  0.0018347001629433
             457.36951    0.01403730124668
             103.94869   0.068842606114048
             29.210155    0.23218442062076
              9.286663    0.46794134155879
              3.163927    0.36231203217765
 s    3 1.00
             7.8682724   -0.11933240861517
             1.8812885   -0.16085421161283
             0.5442493     1.1434564825515
 s    1 1.00
             0.1687144                   1
 p    3 1.00
             7.8682724   0.068999095584993
             1.8812885    0.31642397975315
             0.5442493    0.74430825237435
 p    1 1.00
             0.1687144                   1
 d    1 1.00
                   0.8                   1

6 0
 s    3 1.00
             18.731137    0.03349459952309
             2.8253937    0.23472694665786
             0.6401217    0.81375731841339
 s    1 1.00
             0.1612778                   1

7 0
 s    6 1.00
             3047.5249  0.0018347001629433
             457.36951    0.01403730124668
             103.94869   0.068842606114048
             29.210155    0.23218442062076
              9.286663    0.46794134155879
              3.163927    0.36231203217765
 s    3 1.00
             7.8682724   -0.11933240861517
             1.8812885   -0.16085421161283
             0.5442493     1.1434564825515
 s    1 1.00
             0.1687144                   1
 p    3 1.00
             7.8682724   0.068999095584993
             1.8812885    0.31642397975315
             0.5442493    0.74430825237435
 p    1 1.00
             0.1687144                   1
 d    1 1.00
                   0.8                   1

8 0
 s    3 1.00
             18.731137    0.03349459952309
             2.8253937    0.23472694665786
             0.6401217    0.81375731841339
 s    1 1.00
             0.1612778                   1

9 0
 s    3 1.00
             18.731137    0.03349459952309
             2.8253937    0.23472694665786
             0.6401217    0.81375731841339
 s    1 1.00
             0.1612778                   1

10 0
 s    6 1.00
             3047.5249  0.0018347001629433
             457.36951    0.01403730124668
             103.94869   0.068842606114048
             29.210155    0.23218442062076
              9.286663    0.46794134155879
              3.163927    0.36231203217765
 s    3 1.00
             7.8682724   -0.11933240861517
             1.8812885   -0.16085421161283
             0.5442493     1.1434564825515
 s    1 1.00
             0.1687144                   1
 p    3 1.00
             7.8682724   0.068999095584993
             1.8812885    0.31642397975315
             0.5442493    0.74430825237435
 p    1 1.00
             0.1687144                   1
 d    1 1.00
                   0.8                   1

11 0
 s    3 1.00
             18.731137    0.03349459952309
             2.8253937    0.23472694665786
             0.6401217    0.81375731841339
 s    1 1.00
             0.1612778                   1

12 0
 s    6 1.00
             3047.5249  0.0018347001629433
             457.36951    0.01403730124668
             103.94869   0.068842606114048
             29.210155    0.23218442062076
              9.286663    0.46794134155879
              3.163927    0.36231203217765
 s    3 1.00
             7.8682724   -0.11933240861517
             1.8812885   -0.16085421161283
             0.5442493     1.1434564825515
 s    1 1.00
             0.1687144                   1
 p    3 1.00
             7.8682724   0.068999095584993
             1.8812885    0.31642397975315
             0.5442493    0.74430825237435
 p    1 1.00
             0.1687144                   1
 d    1 1.00
                   0.8                   1

13 0
 s    3 1.00
             18.731137    0.03349459952309
             2.8253937    0.23472694665786
             0.6401217    0.81375731841339
 s    1 1.00
             0.1612778                   1

14 0
 s    3 1.00
             18.731137    0.03349459952309
             2.8253937    0.23472694665786
             0.6401217    0.81375731841339
 s    1 1.00
             0.1612778                   1

15 0
 s    6 1.00
             3047.5249  0.0018347001629433
             457.36951    0.01403730124668
             103.94869   0.068842606114048
             29.210155    0.23218442062076
              9.286663    0.46794134155879
              3.163927    0.36231203217765
 s    3 1.00
             7.8682724   -0.11933240861517
             1.8812885   -0.16085421161283
             0.5442493     1.1434564825515
 s    1 1.00
             0.1687144                   1
 p    3 1.00
             7.8682724   0.068999095584993
             1.8812885    0.31642397975315
             0.5442493    0.74430825237435
 p    1 1.00
             0.1687144                   1
 d    1 1.00
                   0.8                   1

16 0
 s    6 1.00
             3047.5249  0.0018347001629433
             457.36951    0.01403730124668
             103.94869   0.068842606114048
             29.210155    0.23218442062076
              9.286663    0.46794134155879
              3.163927    0.36231203217765
 s    3 1.00
             7.8682724   -0.11933240861517
             1.8812885   -0.16085421161283
             0.5442493     1.1434564825515
 s    1 1.00
             0.1687144                   1
 p    3 1.00
             7.8682724   0.068999095584993
             1.8812885    0.31642397975315
             0.5442493    0.74430825237435
 p    1 1.00
             0.1687144                   1
 d    1 1.00
                   0.8                   1

17 0
 s    6 1.00
             3047.5249  0.0018347001629433
             457.36951    0.01403730124668
             103.94869   0.068842606114048
             29.210155    0.23218442062076
              9.286663    0.46794134155879
              3.163927    0.36231203217765
 s    3 1.00
             7.8682724   -0.11933240861517
             1.8812885   -0.16085421161283
             0.5442493     1.1434564825515
 s    1 1.00
             0.1687144                   1
 p    3 1.00
             7.8682724   0.068999095584993
             1.8812885    0.31642397975315
             0.5442493    0.74430825237435
 p    1 1.00
             0.1687144                   1
 d    1 1.00
                   0.8                   1

18 0
 s    6 1.00
             3047.5249  0.0018347001629433
             457.36951    0.01403730124668
             103.94869   0.068842606114048
             29.210155    0.23218442062076
              9.286663    0.46794134155879
              3.163927    0.36231203217765
 s    3 1.00
             7.8682724   -0.11933240861517
             1.8812885   -0.16085421161283
             0.5442493     1.1434564825515
 s    1 1.00
             0.1687144                   1
 p    3 1.00
             7.8682724   0.068999095584993
             1.8812885    0.31642397975315
             0.5442493    0.74430825237435
 p    1 1.00
             0.1687144                   1
 d    1 1.00
                   0.8                   1

19 0
 s    6 1.00
             3047.5249  0.0018347001629433
             457.36951    0.01403730124668
             103.94869   0.068842606114048
             29.210155    0.23218442062076
              9.286663    0.46794134155879
              3.163927    0.36231203217765
 s    3 1.00
             7.8682724   -0.11933240861517
             1.8812885   -0.16085421161283
             0.5442493     1.1434564825515
 s    1 1.00
             0.1687144                   1
 p    3 1.00
             7.8682724   0.068999095584993
             1.8812885    0.31642397975315
             0.5442493    0.74430825237435
 p    1 1.00
             0.1687144                   1
 d    1 1.00
                   0.8                   1

20 0
 s    6 1.00
             3047.5249  0.0018347001629433
             457.36951    0.01403730124668
             103.94869   0.068842606114048
             29.210155    0.23218442062076
              9.286663    0.46794134155879
              3.163927    0.36231203217765
 s    3 1.00
             7.8682724   -0.11933240861517
             1.8812885   -0.16085421161283
             0.5442493     1.1434564825515
 s    1 1.00
             0.1687144                   1
 p    3 1.00
             7.8682724   0.068999095584993
             1.8812885    0.31642397975315
             0.5442493    0.74430825237435
 p    1 1.00
             0.1687144                   1
 d    1 1.00
                   0.8                   1

21 0
 s    6 1.00
             3047.5249  0.0018347001629433
             457.36951    0.01403730124668
             103.94869   0.068842606114048
             29.210155    0.23218442062076
              9.286663    0.46794134155879
              3.163927    0.36231203217765
 s    3 1.00
             7.8682724   -0.11933240861517
             1.8812885   -0.16085421161283
             0.5442493     1.1434564825515
 s    1 1.00
             0.1687144                   1
 p    3 1.00
             7.8682724   0.068999095584993
             1.8812885    0.31642397975315
             0.5442493    0.74430825237435
 p    1 1.00
             0.1687144                   1
 d    1 1.00
                   0.8                   1

22 0
 s    3 1.00
             18.731137    0.03349459952309
             2.8253937    0.23472694665786
             0.6401217    0.81375731841339
 s    1 1.00
             0.1612778                   1

23 0
 s    3 1.00
             18.731137    0.03349459952309
             2.8253937    0.23472694665786
             0.6401217    0.81375731841339
 s    1 1.00
             0.1612778                   1

24 0
 s    3 1.00
             18.731137    0.03349459952309
             2.8253937    0.23472694665786
             0.6401217    0.81375731841339
 s    1 1.00
             0.1612778                   1

25 0
 s    3 1.00
             18.731137    0.03349459952309
             2.8253937    0.23472694665786
             0.6401217    0.81375731841339
 s    1 1.00
             0.1612778                   1

26 0
 s    3 1.00
             18.731137    0.03349459952309
             2.8253937    0.23472694665786
             0.6401217    0.81375731841339
 s    1 1.00
             0.1612778                   1

27 0
 s    3 1.00
             18.731137    0.03349459952309
             2.8253937    0.23472694665786
             0.6401217    0.81375731841339
 s    1 1.00
             0.1612778                   1

28 0
 s    3 1.00
             18.731137    0.03349459952309
             2.8253937    0.23472694665786
             0.6401217    0.81375731841339
 s    1 1.00
             0.1612778                   1

29 0
 s    3 1.00
             18.731137    0.03349459952309
             2.8253937    0.23472694665786
             0.6401217    0.81375731841339
 s    1 1.00
             0.1612778                   1

30 0
 s    3 1.00
             18.731137    0.03349459952309
             2.8253937    0.23472694665786
             0.6401217    0.81375731841339
 s    1 1.00
             0.1612778                   1

31 0
 s    3 1.00
             18.731137    0.03349459952309
             2.8253937    0.23472694665786
             0.6401217    0.81375731841339
 s    1 1.00
             0.1612778                   1

32 0
 s    3 1.00
             18.731137    0.03349459952309
             2.8253937    0.23472694665786
             0.6401217    0.81375731841339
 s    1 1.00
             0.1612778                   1

33 0
 s    6 1.00
             3047.5249  0.0018347001629433
             457.36951    0.01403730124668
             103.94869   0.068842606114048
             29.210155    0.23218442062076
              9.286663    0.46794134155879
              3.163927    0.36231203217765
 s    3 1.00
             7.8682724   -0.11933240861517
             1.8812885   -0.16085421161283
             0.5442493     1.1434564825515
 s    1 1.00
             0.1687144                   1
 p    3 1.00
             7.8682724   0.068999095584993
             1.8812885    0.31642397975315
             0.5442493    0.74430825237435
 p    1 1.00
             0.1687144                   1
 d    1 1.00
                   0.8                   1

34 0
 s    6 1.00
             3047.5249  0.0018347001629433
             457.36951    0.01403730124668
             103.94869   0.068842606114048
             29.210155    0.23218442062076
              9.286663    0.46794134155879
              3.163927    0.36231203217765
 s    3 1.00
             7.8682724   -0.11933240861517
             1.8812885   -0.16085421161283
             0.5442493     1.1434564825515
 s    1 1.00
             0.1687144                   1
 p    3 1.00
             7.8682724   0.068999095584993
             1.8812885    0.31642397975315
             0.5442493    0.74430825237435
 p    1 1.00
             0.1687144                   1
 d    1 1.00
                   0.8                   1

35 0
 s    3 1.00
             18.731137    0.03349459952309
             2.8253937    0.23472694665786
             0.6401217    0.81375731841339
 s    1 1.00
             0.1612778                   1

36 0
 s    6 1.00
             3047.5249  0.0018347001629433
             457.36951    0.01403730124668
             103.94869   0.068842606114048
             29.210155    0.23218442062076
              9.286663    0.46794134155879
              3.163927    0.36231203217765
 s    3 1.00
             7.8682724   -0.11933240861517
             1.8812885   -0.16085421161283
             0.5442493     1.1434564825515
 s    1 1.00
             0.1687144                   1
 p    3 1.00
             7.8682724   0.068999095584993
             1.8812885    0.31642397975315
             0.5442493    0.74430825237435
 p    1 1.00
             0.1687144                   1
 d    1 1.00
                   0.8                   1

37 0
 s    3 1.00
             18.731137    0.03349459952309
             2.8253937    0.23472694665786
             0.6401217    0.81375731841339
 s    1 1.00
             0.1612778                   1

38 0
 s    3 1.00
             18.731137    0.03349459952309
             2.8253937    0.23472694665786
             0.6401217    0.81375731841339
 s    1 1.00
             0.1612778                   1

39 0
 s    6 1.00
             3047.5249  0.0018347001629433
             457.36951    0.01403730124668
             103.94869   0.068842606114048
             29.210155    0.23218442062076
              9.286663    0.46794134155879
              3.163927    0.36231203217765
 s    3 1.00
             7.8682724   -0.11933240861517
             1.8812885   -0.16085421161283
             0.5442493     1.1434564825515
 s    1 1.00
             0.1687144                   1
 p    3 1.00
             7.8682724   0.068999095584993
             1.8812885    0.31642397975315
             0.5442493    0.74430825237435
 p    1 1.00
             0.1687144                   1
 d    1 1.00
                   0.8                   1

40 0
 s    6 1.00
             3047.5249  0.0018347001629433
             457.36951    0.01403730124668
             103.94869   0.068842606114048
             29.210155    0.23218442062076
              9.286663    0.46794134155879
              3.163927    0.36231203217765
 s    3 1.00
             7.8682724   -0.11933240861517
             1.8812885   -0.16085421161283
             0.5442493     1.1434564825515
 s    1 1.00
             0.1687144                   1
 p    3 1.00
             7.8682724   0.068999095584993
             1.8812885    0.31642397975315
             0.5442493    0.74430825237435
 p    1 1.00
             0.1687144                   1
 d    1 1.00
                   0.8                   1

41 0
 s    3 1.00
             18.731137    0.03349459952309
             2.8253937    0.23472694665786
             0.6401217    0.81375731841339
 s    1 1.00
             0.1612778                   1

42 0
 s    6 1.00
             5484.6717   0.001831099805527
             825.23495   0.013950098518422
             188.04696    0.06844509273075
               52.9645    0.23271427528445
              16.89757    0.47019295006289
             5.7996353    0.35852086192309
 s    3 1.00
             15.539616   -0.11077750382508
             3.5999336   -0.14802630511126
             1.0137618     1.1307670390447
 s    1 1.00
             0.2700058                   1
 p    3 1.00
             15.539616   0.070874299543311
             3.5999336    0.33975279781076
             1.0137618    0.72715859531445
 p    1 1.00
             0.2700058                   1
 d    1 1.00
                   0.8                   1

43 0
 s    3 1.00
             18.731137    0.03349459952309
             2.8253937    0.23472694665786
             0.6401217    0.81375731841339
 s    1 1.00
             0.1612778                   1

[5d]
[7f]
[9g]

[MO]
 Sym= A
 Ene=               0
 Spin= Alpha
 Occup=    1.00000
   1    -1.9099876967925e-06
   2    -1.8409341759667e-05
   3    2.1186404082592e-05
   4    -7.9817774300728e-06
   5    6.401023047607e-06
   6    7.1592033318886e-06
   7    2.0134102744311e-05
   8    9.7566938776081e-05
   9    -0.00036458698924423
  10    1.5954727503881e-07
  11    1.1442951020835e-05
  12    2.5941008770806e-06
  13    1.3851226073184e-05
  14    -7.6883327789875e-06
  15    -1.3971050722286e-05
  16    1.7273020062766e-05
  17    9.8788731163054e-06
  18    0.00015231446810054
  19    0.00037849125890446
  20    4.8959010357169e-05
  21    -1.9546824433999e-05
  22    -5.7539031835938e-05
  23    0.00015134056513996
  24    -0.00010098908314328
  25    -0.0005857133006956
  26    2.219691388673e-05
  27    -2.3060688478056e-05
  28     1.09961499833e-05
  29    4.1735185203044e-05
  30    -3.8684332250553e-06
  31    -1.0795796780721e-05
  32    2.8117028233939e-05
  33    3.9477006086736e-05
  34    0.00036287720577545
  35    -0.0042022549301946
  36    -7.6535407752372e-05
  37    1.6883113997498e-06
  38    0.00011297532419239
  39    -0.00045463058029935
  40    0.0018388946377761
  41    0.0005124859514403
  42    -2.7621973182215e-05
  43    0.00010728927826434
  44    -6.8191971229325e-05
  45    2.7429392502174e-05
  46    5.1801178728855e-05
  47    -9.9228788195284e-06
  48    -0.00026350686306177
  49    3.3688691573704e-05
  50    5.468747610127e-05
  51    0.0033581043694233
  52    0.00013121386127682
  53    -0.00022601976754784
  54    -0.000175258221766
  55    -0.0016299122704049
  56    0.0025066842827572
  57    0.0022298542424494
  58    -1.761423135403e-05
  59    3.3239134256966e-05
  60    0.0001961035634454
  61    3.0746185777273e-05
  62    -0.00012277394200967
  63    0.00025190169460102
  64    4.9317646781939e-05
  65    -1.4477166852573e-07
  66    -7.2270011618907e-08
  67    -1.7642617738438e-08
  68    -6.7032604191184e-07
  69    2.9243315369579e-06
  70    -1.198067975321e-08
  71    -2.1299967142874e-07
  72    3.1224091997958e-07
  73    6.6258055287609e-08
  74    1.9578284075724e-06
  75    -5.7982291940111e-08
  76    -4.6688768222346e-08
  77    -1.0159521868814e-07
  78    3.8867436971906e-08
  79    7.7612317299882e-08
  80    -8.3970931203441e-08
  81    1.330656671235e-07
  82    4.1411520396907e-07
  83    4.4607801578893e-08
  84    -1.7095137354655e-07
  85    -1.3360883458336e-05
  86    9.6090747626498e-07
  87    3.8011267095222e-07
  88    8.2233772922729e-07
  89    3.5499409957616e-06
  90    -4.7930944227976e-06
  91    3.2145182555031e-06
  92    1.3720318708789e-07
  93    -2.1703530858676e-07
  94    4.1425879666806e-07
  95    6.2894656968315e-08
  96    -9.0564840000809e-08
  97    1.1878335720407e-06
  98    1.7124189457044e-06
  99    -2.9776759269012e-07
 100    -1.5797546241283e-06
 101    -1.5067584261912e-07
 102    -8.0980291995574e-07
 103    1.5261329326839e-05
 104    -1.2206334627131e-06
 105    -2.6808735967561e-06
 106    -5.2958508989657e-07
 107    -1.959771410983e-05
 108    1.5869550164565e-05
 109    2.9169573828321e-05
 110    -5.6964261481277e-07
 111    -4.8759053779632e-07
 112    2.3085055933978e-07
 113    4.1702236657819e-07
 114    -4.3719547836947e-07
 115    -4.093716410395e-07
 116    -4.5130307230407e-06
 117    3.4911256491458e-05
 118    -5.6990448898681e-07
 119    1.0357374229993e-06
 120    6.4450652308901e-07
 121    -7.8906970442887e-06
 122    6.1550025416079e-07
 123    1.942056529424e-06
 124    -6.5222093102784e-08
 125    -2.4577414865883e-07
 126    -1.9657294183842e-07
 127    1.3725495151231e-07
 128    -2.9783796400976e-07
 129    -9.6346848292124e-07
 130    -8.3224126803603e-06
 131    4.9124375308817e-05
 132    -5.4527037640099e-07
 133    -2.0260734236588e-06
 134    3.1642952932419e-06
 135    -2.5268267503829e-05
 136    3.4031041505524e-07
 137    -7.7413430315689e-05
 138    2.2756743677312e-06
 139    1.5822237432879e-06
 140    1.8104014425218e-07
 141    3.4525699160196e-07
 142    1.6266737910514e-08
 143    -2.7200235946901e-07
 144    -3.8257714441064e-06
 145    1.688224401842e-05
 146    2.2541182812141e-08
 147    9.7668780693055e-07
 148    9.2342425864487e-07
 149    1.039777367767e-05
 150    -6.1353845498943e-06
 151    -2.3961743317387e-06
 152    -9.4861500787218e-07
 153    -3.200584636393e-07
 154    -9.0021646335701e-08
 155    6.4433123032621e-07
 156    -7.3282123052832e-07
 157    1.0203327761393e-07
 158    8.3694913535738e-07
 159    5.4050915296697e-07
 160    8.9635751324363e-07
 161    -3.0310323066523e-07
 162    2.1941881737396e-07
 163    -5.6110676063494e-06
 164    -6.0226844181695e-08
 165    9.5963153632866e-07
 166    4.4156103450858e-07
 167    -1.4933464167027e-07
 168    5.0506368645928e-09
 169    -1.1337085244848e-07
 170    2.7949969068174e-07
 171    1.268608031589e-07
 172    -5.8772718682799e-07
 173    -2.2904220055585e-06
 174    -9.4121335313862e-07
 175    -2.477925157199e-07
 176    9.0403101960498e-07
 177    -4.1720121923939e-07
 178    1.4410625896911e-06
 179    -1.6539021685706e-06
 180    1.5095975771874e-07
 181    2.0765462826431e-07
 182    2.9218817158837e-08
 183    -3.7000519545342e-07
 184    1.6287030338727e-07
 185    -3.421692623481e-07
 186    -2.804500099281e-06
 187    2.5670788032874e-06
 188    -2.5968155903472e-07
 189    9.1758941666492e-08
 190    6.8578361894003e-07
 191    1.8996703258241e-06
 192    9.6326107477606e-07
 193    -5.8573212887235e-06
 194    3.1330148255227e-07
 195    4.8503991185471e-09
 196    1.4702962468467e-07
 197    6.7460803850082e-08
 198    -7.8050559063656e-08
 199    -6.7997741374826e-07
 200    -1.2016362719351e-06
 201    -1.8495845576503e-07
 202    2.6665252886519e-06
 203    -1.8624408725552e-06
 204    -2.2056089390805e-06
 205    -5.1264502995328e-08
 206    -1.6012514964576e-06
 207    1.2447017778634e-06
 208    -1.2358741251404e-05
 209    9.3729762519911e-07
 210    -3.8608620248655e-06
 211    4.3077059982309e-07
 212    2.7373828384554e-06
 213    -2.1317818341635e-07
 214    -2.0253804256983e-06
 215    -4.9643219701753e-07
 216    8.8602385209776e-07
 217    3.7985367297862e-07
 218    9.592213410035e-07
 219    2.4264086541832e-07
 220    1.2426176443058e-06
 221    1.9339353971409e-07
 222    -9.9096578419677e-06
 223    -6.1436787998803e-06
 224    -2.059854091375e-06
 225    7.4662858766584e-07
 226    5.655399724843e-06
 227     1.17492747464e-05
 228    2.7404831979331e-05
 229    -9.0444362087872e-05
 230    -1.0110444435418e-06
 231    -4.0494238842368e-06
 232    -2.1509165827227e-06
 233    1.7764924704368e-06
 234    2.818950233764e-06
 235    1.8929592213973e-06
 236    2.2193725446619e-06
 237    3.5227997470556e-05
 238    5.3306452895204e-06
 239    8.9730922977029e-06
 240    -4.386956731524e-06
 241    -1.6801470582812e-05
 242    -5.4380114625993e-06
 243    -9.2888144997216e-05
 244    1.4993924976694e-06
 245    7.0820966593186e-06
 246    2.0504603492281e-06
 247    3.1403469392525e-06
 248    1.7412605995247e-06
 249    -3.5357875937876e-06
 250    1.1232317016758e-05
 251    -1.2622464357162e-05
 252    -2.8757756344527e-05
 253    0.00023364566716792
 254    4.1767024264133e-06
 255    -7.2642776507312e-06
 256    1.9337430017437e-05
 257    0.00010181352302814
 258    0.00010085013179446
 259    -0.00022581007081222
 260    2.2751333757812e-06
 261    -1.0888744654439e-05
 262    -5.6258046005111e-06
 263    7.1136560143128e-06
 264    5.866223275497e-06
 265    4.5526847291038e-06
 266    3.1949118503684e-05
 267    -9.7900965040567e-06
 268    3.5181647006048e-05
 269    0.00026695663641727
 270    0.0001013086493127
 271    0.0031850717354699
 272    0.00020991092699724
 273    -0.00042122267266326
 274    -0.00025018540294581
 275    0.0021140282461472
 276    0.00051303536156106
 277    -0.0033118247765415
 278    0.0002098449342478
 279    -0.00020900878260329
 280    0.00016592551643436