[Molden Format]
made by pyscf v[2.0.1]
[Atoms] (AU)
C   1   6     0.69100024066471     0.64692934207205    -3.48223131169301
H   2   1     2.68052439830868     1.13355088658700    -3.25784032593313
C   3   6    -0.36286361513219     0.85440132524594    -5.97030179418974
H   4   1    -2.35448549047279     0.36322488579172    -6.17995817793143
C   5   6     0.93697958957450     1.61209284601821    -8.05828437677121
H   6   1     2.68174994182533     2.67994959464420    -7.82079505522331
C   7   6     0.13444904340515     1.08121190669811   -10.59410649762000
H   8   1    -1.61655526267424     0.00863003830430   -10.80213119601662
H   9   1     1.55630230933075    -1.92953025305990    12.99630010416247
C   10   6     0.75233899775814    -2.21270439606481    11.10705728102219
H   11   1    -0.43433408177274    -3.90944857546550    11.22216085340412
C   12   6     2.86362581178706    -2.63237380607947     9.17926416456045
H   13   1     4.39038949912609    -1.24955421540245     9.49899813497433
H   14   1     3.74629220191363    -4.48798724300892     9.47414880959024
C   15   6     2.02478325613682    -2.42177285709634     6.44560829588644
C   16   6     3.88048732735477    -3.58795445234514     4.61402886975252
C   17   6    -0.18412382258602    -1.30464291234259     5.76021113872346
C   18   6    -2.10044360464350    -0.26837831858460     7.71610340967100
C   19   6    -3.08956938670431     2.35282328359417     6.88693925039594
C   20   6    -4.37372924086464    -2.09766595989678     7.93610724222001
C   21   6    -0.83850430601230     0.06372213486173    10.33002307638377
H   22   1     0.38411922151109     1.74281358582432    10.27380136542181
H   23   1    -2.30980003007874     0.45460143924521    11.73986301809809
H   24   1     4.58527064644668    -5.38706904487420     5.36778158031719
H   25   1     5.54944938085014    -2.37631462192748     4.35398898413318
H   26   1     3.06633019150423    -3.94118377050688     2.75255466040884
H   27   1    -4.17727778763735     2.26573369139522     5.12914900961283
H   28   1    -1.52662344944051     3.68001877445626     6.59540397144508
H   29   1    -4.32916174397830     3.13643051467482     8.35225460090378
H   30   1    -5.32329548508442    -2.36691813602939     6.11583672749896
H   31   1    -5.77989366602257    -1.33896741843465     9.25748940450990
H   32   1    -3.79310905208926    -3.96389819310853     8.61386170102686
C   33   6    -1.01100794811226    -1.06331657314144     3.11929490449947
C   34   6     0.37686231036534    -0.33275864505552     1.09165013605873
H   35   1    -3.01671213906703    -1.40297922279997     2.77827895090944
C   36   6    -0.64382707979370    -0.11591880174385    -1.42063131251064
H   37   1     2.35569259782137     0.17174499283897     1.33641070251401
H   38   1    -2.63317482980319    -0.60229203511219    -1.66119700387645
C   39   6     1.36441264344082     1.79875350819652   -12.72695837882209
C   40   6     0.39042169983249     1.16479015456541   -15.22824898409742
H   41   1     3.11744943935123     2.87075295695162   -12.65315109008398
O   42   8     1.39604269582139     1.74939992973347   -17.22017818748739
H   43   1    -1.40767336523230     0.06622817248511   -15.21429812709214
[GTO]
1 0
 s    6 1.00
             3047.5249  0.0018347001629433
             457.36951    0.01403730124668
             103.94869   0.068842606114048
             29.210155    0.23218442062076
              9.286663    0.46794134155879
              3.163927    0.36231203217765
 s    3 1.00
             7.8682724   -0.11933240861517
             1.8812885   -0.16085421161283
             0.5442493     1.1434564825515
 s    1 1.00
             0.1687144                   1
 p    3 1.00
             7.8682724   0.068999095584993
             1.8812885    0.31642397975315
             0.5442493    0.74430825237435
 p    1 1.00
             0.1687144                   1
 d    1 1.00
                   0.8                   1

2 0
 s    3 1.00
             18.731137    0.03349459952309
             2.8253937    0.23472694665786
             0.6401217    0.81375731841339
 s    1 1.00
             0.1612778                   1

3 0
 s    6 1.00
             3047.5249  0.0018347001629433
             457.36951    0.01403730124668
             103.94869   0.068842606114048
             29.210155    0.23218442062076
              9.286663    0.46794134155879
              3.163927    0.36231203217765
 s    3 1.00
             7.8682724   -0.11933240861517
             1.8812885   -0.16085421161283
             0.5442493     1.1434564825515
 s    1 1.00
             0.1687144                   1
 p    3 1.00
             7.8682724   0.068999095584993
             1.8812885    0.31642397975315
             0.5442493    0.74430825237435
 p    1 1.00
             0.1687144                   1
 d    1 1.00
                   0.8                   1

4 0
 s    3 1.00
             18.731137    0.03349459952309
             2.8253937    0.23472694665786
             0.6401217    0.81375731841339
 s    1 1.00
             0.1612778                   1

5 0
 s    6 1.00
             3047.5249  0.0018347001629433
             457.36951    0.01403730124668
             103.94869   0.068842606114048
             29.210155    0.23218442062076
              9.286663    0.46794134155879
              3.163927    0.36231203217765
 s    3 1.00
             7.8682724   -0.11933240861517
             1.8812885   -0.16085421161283
             0.5442493     1.1434564825515
 s    1 1.00
             0.1687144                   1
 p    3 1.00
             7.8682724   0.068999095584993
             1.8812885    0.31642397975315
             0.5442493    0.74430825237435
 p    1 1.00
             0.1687144                   1
 d    1 1.00
                   0.8                   1

6 0
 s    3 1.00
             18.731137    0.03349459952309
             2.8253937    0.23472694665786
             0.6401217    0.81375731841339
 s    1 1.00
             0.1612778                   1

7 0
 s    6 1.00
             3047.5249  0.0018347001629433
             457.36951    0.01403730124668
             103.94869   0.068842606114048
             29.210155    0.23218442062076
              9.286663    0.46794134155879
              3.163927    0.36231203217765
 s    3 1.00
             7.8682724   -0.11933240861517
             1.8812885   -0.16085421161283
             0.5442493     1.1434564825515
 s    1 1.00
             0.1687144                   1
 p    3 1.00
             7.8682724   0.068999095584993
             1.8812885    0.31642397975315
             0.5442493    0.74430825237435
 p    1 1.00
             0.1687144                   1
 d    1 1.00
                   0.8                   1

8 0
 s    3 1.00
             18.731137    0.03349459952309
             2.8253937    0.23472694665786
             0.6401217    0.81375731841339
 s    1 1.00
             0.1612778                   1

9 0
 s    3 1.00
             18.731137    0.03349459952309
             2.8253937    0.23472694665786
             0.6401217    0.81375731841339
 s    1 1.00
             0.1612778                   1

10 0
 s    6 1.00
             3047.5249  0.0018347001629433
             457.36951    0.01403730124668
             103.94869   0.068842606114048
             29.210155    0.23218442062076
              9.286663    0.46794134155879
              3.163927    0.36231203217765
 s    3 1.00
             7.8682724   -0.11933240861517
             1.8812885   -0.16085421161283
             0.5442493     1.1434564825515
 s    1 1.00
             0.1687144                   1
 p    3 1.00
             7.8682724   0.068999095584993
             1.8812885    0.31642397975315
             0.5442493    0.74430825237435
 p    1 1.00
             0.1687144                   1
 d    1 1.00
                   0.8                   1

11 0
 s    3 1.00
             18.731137    0.03349459952309
             2.8253937    0.23472694665786
             0.6401217    0.81375731841339
 s    1 1.00
             0.1612778                   1

12 0
 s    6 1.00
             3047.5249  0.0018347001629433
             457.36951    0.01403730124668
             103.94869   0.068842606114048
             29.210155    0.23218442062076
              9.286663    0.46794134155879
              3.163927    0.36231203217765
 s    3 1.00
             7.8682724   -0.11933240861517
             1.8812885   -0.16085421161283
             0.5442493     1.1434564825515
 s    1 1.00
             0.1687144                   1
 p    3 1.00
             7.8682724   0.068999095584993
             1.8812885    0.31642397975315
             0.5442493    0.74430825237435
 p    1 1.00
             0.1687144                   1
 d    1 1.00
                   0.8                   1

13 0
 s    3 1.00
             18.731137    0.03349459952309
             2.8253937    0.23472694665786
             0.6401217    0.81375731841339
 s    1 1.00
             0.1612778                   1

14 0
 s    3 1.00
             18.731137    0.03349459952309
             2.8253937    0.23472694665786
             0.6401217    0.81375731841339
 s    1 1.00
             0.1612778                   1

15 0
 s    6 1.00
             3047.5249  0.0018347001629433
             457.36951    0.01403730124668
             103.94869   0.068842606114048
             29.210155    0.23218442062076
              9.286663    0.46794134155879
              3.163927    0.36231203217765
 s    3 1.00
             7.8682724   -0.11933240861517
             1.8812885   -0.16085421161283
             0.5442493     1.1434564825515
 s    1 1.00
             0.1687144                   1
 p    3 1.00
             7.8682724   0.068999095584993
             1.8812885    0.31642397975315
             0.5442493    0.74430825237435
 p    1 1.00
             0.1687144                   1
 d    1 1.00
                   0.8                   1

16 0
 s    6 1.00
             3047.5249  0.0018347001629433
             457.36951    0.01403730124668
             103.94869   0.068842606114048
             29.210155    0.23218442062076
              9.286663    0.46794134155879
              3.163927    0.36231203217765
 s    3 1.00
             7.8682724   -0.11933240861517
             1.8812885   -0.16085421161283
             0.5442493     1.1434564825515
 s    1 1.00
             0.1687144                   1
 p    3 1.00
             7.8682724   0.068999095584993
             1.8812885    0.31642397975315
             0.5442493    0.74430825237435
 p    1 1.00
             0.1687144                   1
 d    1 1.00
                   0.8                   1

17 0
 s    6 1.00
             3047.5249  0.0018347001629433
             457.36951    0.01403730124668
             103.94869   0.068842606114048
             29.210155    0.23218442062076
              9.286663    0.46794134155879
              3.163927    0.36231203217765
 s    3 1.00
             7.8682724   -0.11933240861517
             1.8812885   -0.16085421161283
             0.5442493     1.1434564825515
 s    1 1.00
             0.1687144                   1
 p    3 1.00
             7.8682724   0.068999095584993
             1.8812885    0.31642397975315
             0.5442493    0.74430825237435
 p    1 1.00
             0.1687144                   1
 d    1 1.00
                   0.8                   1

18 0
 s    6 1.00
             3047.5249  0.0018347001629433
             457.36951    0.01403730124668
             103.94869   0.068842606114048
             29.210155    0.23218442062076
              9.286663    0.46794134155879
              3.163927    0.36231203217765
 s    3 1.00
             7.8682724   -0.11933240861517
             1.8812885   -0.16085421161283
             0.5442493     1.1434564825515
 s    1 1.00
             0.1687144                   1
 p    3 1.00
             7.8682724   0.068999095584993
             1.8812885    0.31642397975315
             0.5442493    0.74430825237435
 p    1 1.00
             0.1687144                   1
 d    1 1.00
                   0.8                   1

19 0
 s    6 1.00
             3047.5249  0.0018347001629433
             457.36951    0.01403730124668
             103.94869   0.068842606114048
             29.210155    0.23218442062076
              9.286663    0.46794134155879
              3.163927    0.36231203217765
 s    3 1.00
             7.8682724   -0.11933240861517
             1.8812885   -0.16085421161283
             0.5442493     1.1434564825515
 s    1 1.00
             0.1687144                   1
 p    3 1.00
             7.8682724   0.068999095584993
             1.8812885    0.31642397975315
             0.5442493    0.74430825237435
 p    1 1.00
             0.1687144                   1
 d    1 1.00
                   0.8                   1

20 0
 s    6 1.00
             3047.5249  0.0018347001629433
             457.36951    0.01403730124668
             103.94869   0.068842606114048
             29.210155    0.23218442062076
              9.286663    0.46794134155879
              3.163927    0.36231203217765
 s    3 1.00
             7.8682724   -0.11933240861517
             1.8812885   -0.16085421161283
             0.5442493     1.1434564825515
 s    1 1.00
             0.1687144                   1
 p    3 1.00
             7.8682724   0.068999095584993
             1.8812885    0.31642397975315
             0.5442493    0.74430825237435
 p    1 1.00
             0.1687144                   1
 d    1 1.00
                   0.8                   1

21 0
 s    6 1.00
             3047.5249  0.0018347001629433
             457.36951    0.01403730124668
             103.94869   0.068842606114048
             29.210155    0.23218442062076
              9.286663    0.46794134155879
              3.163927    0.36231203217765
 s    3 1.00
             7.8682724   -0.11933240861517
             1.8812885   -0.16085421161283
             0.5442493     1.1434564825515
 s    1 1.00
             0.1687144                   1
 p    3 1.00
             7.8682724   0.068999095584993
             1.8812885    0.31642397975315
             0.5442493    0.74430825237435
 p    1 1.00
             0.1687144                   1
 d    1 1.00
                   0.8                   1

22 0
 s    3 1.00
             18.731137    0.03349459952309
             2.8253937    0.23472694665786
             0.6401217    0.81375731841339
 s    1 1.00
             0.1612778                   1

23 0
 s    3 1.00
             18.731137    0.03349459952309
             2.8253937    0.23472694665786
             0.6401217    0.81375731841339
 s    1 1.00
             0.1612778                   1

24 0
 s    3 1.00
             18.731137    0.03349459952309
             2.8253937    0.23472694665786
             0.6401217    0.81375731841339
 s    1 1.00
             0.1612778                   1

25 0
 s    3 1.00
             18.731137    0.03349459952309
             2.8253937    0.23472694665786
             0.6401217    0.81375731841339
 s    1 1.00
             0.1612778                   1

26 0
 s    3 1.00
             18.731137    0.03349459952309
             2.8253937    0.23472694665786
             0.6401217    0.81375731841339
 s    1 1.00
             0.1612778                   1

27 0
 s    3 1.00
             18.731137    0.03349459952309
             2.8253937    0.23472694665786
             0.6401217    0.81375731841339
 s    1 1.00
             0.1612778                   1

28 0
 s    3 1.00
             18.731137    0.03349459952309
             2.8253937    0.23472694665786
             0.6401217    0.81375731841339
 s    1 1.00
             0.1612778                   1

29 0
 s    3 1.00
             18.731137    0.03349459952309
             2.8253937    0.23472694665786
             0.6401217    0.81375731841339
 s    1 1.00
             0.1612778                   1

30 0
 s    3 1.00
             18.731137    0.03349459952309
             2.8253937    0.23472694665786
             0.6401217    0.81375731841339
 s    1 1.00
             0.1612778                   1

31 0
 s    3 1.00
             18.731137    0.03349459952309
             2.8253937    0.23472694665786
             0.6401217    0.81375731841339
 s    1 1.00
             0.1612778                   1

32 0
 s    3 1.00
             18.731137    0.03349459952309
             2.8253937    0.23472694665786
             0.6401217    0.81375731841339
 s    1 1.00
             0.1612778                   1

33 0
 s    6 1.00
             3047.5249  0.0018347001629433
             457.36951    0.01403730124668
             103.94869   0.068842606114048
             29.210155    0.23218442062076
              9.286663    0.46794134155879
              3.163927    0.36231203217765
 s    3 1.00
             7.8682724   -0.11933240861517
             1.8812885   -0.16085421161283
             0.5442493     1.1434564825515
 s    1 1.00
             0.1687144                   1
 p    3 1.00
             7.8682724   0.068999095584993
             1.8812885    0.31642397975315
             0.5442493    0.74430825237435
 p    1 1.00
             0.1687144                   1
 d    1 1.00
                   0.8                   1

34 0
 s    6 1.00
             3047.5249  0.0018347001629433
             457.36951    0.01403730124668
             103.94869   0.068842606114048
             29.210155    0.23218442062076
              9.286663    0.46794134155879
              3.163927    0.36231203217765
 s    3 1.00
             7.8682724   -0.11933240861517
             1.8812885   -0.16085421161283
             0.5442493     1.1434564825515
 s    1 1.00
             0.1687144                   1
 p    3 1.00
             7.8682724   0.068999095584993
             1.8812885    0.31642397975315
             0.5442493    0.74430825237435
 p    1 1.00
             0.1687144                   1
 d    1 1.00
                   0.8                   1

35 0
 s    3 1.00
             18.731137    0.03349459952309
             2.8253937    0.23472694665786
             0.6401217    0.81375731841339
 s    1 1.00
             0.1612778                   1

36 0
 s    6 1.00
             3047.5249  0.0018347001629433
             457.36951    0.01403730124668
             103.94869   0.068842606114048
             29.210155    0.23218442062076
              9.286663    0.46794134155879
              3.163927    0.36231203217765
 s    3 1.00
             7.8682724   -0.11933240861517
             1.8812885   -0.16085421161283
             0.5442493     1.1434564825515
 s    1 1.00
             0.1687144                   1
 p    3 1.00
             7.8682724   0.068999095584993
             1.8812885    0.31642397975315
             0.5442493    0.74430825237435
 p    1 1.00
             0.1687144                   1
 d    1 1.00
                   0.8                   1

37 0
 s    3 1.00
             18.731137    0.03349459952309
             2.8253937    0.23472694665786
             0.6401217    0.81375731841339
 s    1 1.00
             0.1612778                   1

38 0
 s    3 1.00
             18.731137    0.03349459952309
             2.8253937    0.23472694665786
             0.6401217    0.81375731841339
 s    1 1.00
             0.1612778                   1

39 0
 s    6 1.00
             3047.5249  0.0018347001629433
             457.36951    0.01403730124668
             103.94869   0.068842606114048
             29.210155    0.23218442062076
              9.286663    0.46794134155879
              3.163927    0.36231203217765
 s    3 1.00
             7.8682724   -0.11933240861517
             1.8812885   -0.16085421161283
             0.5442493     1.1434564825515
 s    1 1.00
             0.1687144                   1
 p    3 1.00
             7.8682724   0.068999095584993
             1.8812885    0.31642397975315
             0.5442493    0.74430825237435
 p    1 1.00
             0.1687144                   1
 d    1 1.00
                   0.8                   1

40 0
 s    6 1.00
             3047.5249  0.0018347001629433
             457.36951    0.01403730124668
             103.94869   0.068842606114048
             29.210155    0.23218442062076
              9.286663    0.46794134155879
              3.163927    0.36231203217765
 s    3 1.00
             7.8682724   -0.11933240861517
             1.8812885   -0.16085421161283
             0.5442493     1.1434564825515
 s    1 1.00
             0.1687144                   1
 p    3 1.00
             7.8682724   0.068999095584993
             1.8812885    0.31642397975315
             0.5442493    0.74430825237435
 p    1 1.00
             0.1687144                   1
 d    1 1.00
                   0.8                   1

41 0
 s    3 1.00
             18.731137    0.03349459952309
             2.8253937    0.23472694665786
             0.6401217    0.81375731841339
 s    1 1.00
             0.1612778                   1

42 0
 s    6 1.00
             5484.6717   0.001831099805527
             825.23495   0.013950098518422
             188.04696    0.06844509273075
               52.9645    0.23271427528445
              16.89757    0.47019295006289
             5.7996353    0.35852086192309
 s    3 1.00
             15.539616   -0.11077750382508
             3.5999336   -0.14802630511126
             1.0137618     1.1307670390447
 s    1 1.00
             0.2700058                   1
 p    3 1.00
             15.539616   0.070874299543311
             3.5999336    0.33975279781076
             1.0137618    0.72715859531445
 p    1 1.00
             0.2700058                   1
 d    1 1.00
                   0.8                   1

43 0
 s    3 1.00
             18.731137    0.03349459952309
             2.8253937    0.23472694665786
             0.6401217    0.81375731841339
 s    1 1.00
             0.1612778                   1

[5d]
[7f]
[9g]

[MO]
 Sym= A
 Ene=               0
 Spin= Alpha
 Occup=    1.00000
   1    -3.3609192102408e-06
   2    -4.8764729095523e-05
   3    -0.00010843587729799
   4    -1.1196263212337e-05
   5    -3.2370847819104e-05
   6    3.3219663622204e-05
   7    0.00024342213198564
   8    0.00028069955689268
   9    -0.00081683949695666
  10    1.9892491762862e-05
  11    2.9598753863285e-05
  12    5.0701444893034e-07
  13    4.0526028495437e-06
  14    -7.9097665622207e-07
  15    -4.7001030649389e-05
  16    -3.2264782468729e-05
  17    1.3243795305171e-05
  18    7.3024523393853e-05
  19    -0.0019056443160382
  20    -8.1805135436836e-06
  21    8.4283528190814e-06
  22    5.2683537225396e-05
  23    -0.00038483232165316
  24    -0.00016401521609985
  25    0.00069098935122902
  26    -5.6382085697242e-05
  27    1.5187438549225e-05
  28    2.2908334096658e-05
  29    -1.2358189278177e-05
  30    2.3237235030017e-05
  31      5.6806093574e-06
  32    0.00010546385622614
  33    -4.714020512203e-05
  34    -0.00038702837402805
  35    0.0051990862202879
  36    4.913517146388e-05
  37    1.1074262533606e-05
  38    -7.6642695715722e-05
  39    -0.0016621978327969
  40    -0.00098708366453633
  41    -0.0013758414883524
  42    0.0001616577249459
  43    3.5520314042956e-05
  44    3.1773388206014e-05
  45    2.0057443265294e-05
  46    4.5559524647383e-05
  47    3.7155273916325e-05
  48    0.00031338474474639
  49    -2.6567005605704e-05
  50    -1.0717940683983e-05
  51    -0.0039147375851756
  52    0.00011986036946179
  53    8.6851384412672e-05
  54    0.00027159935212808
  55    -0.0013684091064538
  56    -0.00093564200164753
  57    -0.0037578880210996
  58    -0.00011847572820217
  59    -0.0001660112320448
  60    -0.00010635238177866
  61    5.1928422385714e-05
  62    9.0958511003468e-05
  63    -0.00024432000629021
  64    -9.0259452985858e-05
  65    -1.2939325721071e-07
  66    1.5507953275401e-06
  67    -1.3893104221402e-07
  68    -1.1253015819901e-06
  69    -3.2887879931086e-07
  70    8.7933455760827e-07
  71    -8.9516659372055e-07
  72    2.4094084191905e-07
  73    2.0331641592671e-06
  74    2.5934473697044e-07
  75    -2.3185121097849e-06
  76    2.1921788228777e-07
  77    5.6568291880669e-08
  78    1.3556914640612e-07
  79    9.652990270143e-08
  80    6.3582951907159e-08
  81    7.660262751151e-08
  82    4.3820617737409e-07
  83    2.0105561306617e-07
  84    1.7933412272017e-06
  85    -8.6745392894785e-06
  86    6.5167762128409e-08
  87    -1.3933161476352e-07
  88    5.1399592191733e-07
  89    4.4207752778554e-06
  90    -7.444213403742e-06
  91    1.2281350338606e-07
  92    -8.3787142577061e-08
  93    -4.8101692330197e-07
  94    7.7063524920217e-07
  95    -3.0794378861938e-07
  96    -4.5090122837365e-08
  97    8.0217717142193e-07
  98    -1.3882693942044e-07
  99    -1.225637024758e-07
 100    -1.0632920146884e-06
 101    -4.6720653837282e-07
 102    -2.4554192763721e-06
 103    7.277018208644e-05
 104    3.0291817555359e-07
 105    1.5037637753077e-06
 106    -2.0533816306533e-06
 107    -2.9609367534466e-05
 108    3.1749045481043e-05
 109    -4.3346249445428e-06
 110    6.5327750971735e-07
 111    1.0338470743148e-06
 112    -4.6774928424544e-07
 113    -5.3358848094315e-07
 114    -1.4971160509184e-06
 115    3.2247858205904e-07
 116    3.7466962510712e-06
 117    -6.4914372595156e-06
 118    -3.7301682208163e-07
 119    1.4694128887147e-06
 120    -1.2255184794469e-06
 121    3.2696625933023e-06
 122    -9.740630560668e-06
 123    1.5113111123031e-05
 124    4.8535056650759e-07
 125    -4.9738982064602e-07
 126    -5.5729999220868e-07
 127    -1.5440223742576e-07
 128    -1.9957887676661e-07
 129    1.2379904842362e-07
 130    3.0782551416382e-06
 131    4.2552502592184e-05
 132    5.0441405352034e-06
 133    2.5591985855169e-06
 134    -3.9961535856178e-06
 135    -9.9349974708701e-05
 136    9.354392943863e-06
 137    -3.0877207033897e-05
 138    1.013477859032e-06
 139    8.2614136265222e-07
 140    2.4016730569082e-06
 141    -2.6033467066566e-07
 142    1.5985119139187e-06
 143    -7.0934166762701e-08
 144    -1.7710940007718e-06
 145    -3.0419514400729e-05
 146    -2.2664876970413e-07
 147    -1.3000303171519e-06
 148    4.117573890421e-06
 149    -9.4488379946747e-06
 150    3.1963652148304e-05
 151    -1.5034741227573e-05
 152    -8.5031965619371e-07
 153    1.4288473950315e-07
 154    -1.7967223545662e-06
 155    -7.8816667851984e-08
 156    -8.6689408486052e-07
 157    5.4616977287446e-07
 158    4.5318200902643e-06
 159    -2.6991162265429e-05
 160    2.0043608358927e-07
 161    8.5685653767379e-07
 162    -1.2053504158515e-06
 163    -9.5390579995115e-06
 164    1.0647947064665e-05
 165    1.3846456374062e-06
 166    9.2814701108632e-07
 167    -2.6566715261161e-07
 168    1.9088010822731e-07
 169    3.9833001212154e-07
 170    7.0846094808384e-07
 171    -1.4404343161507e-08
 172    3.6612508143428e-07
 173    3.8481110351325e-06
 174    9.9886081138607e-09
 175    -1.7405055983144e-07
 176    1.174223250877e-06
 177    1.0388881792915e-05
 178    3.6609693102794e-06
 179    4.7067503170607e-06
 180    -2.8575260137438e-07
 181    1.2173779071265e-06
 182    1.2769524101814e-08
 183    6.3030459435446e-07
 184    9.2066668587161e-07
 185    -6.0288800805772e-07
 186    -5.2326550531364e-06
 187    2.4316268048084e-05
 188    -1.0345650569736e-06
 189    -7.1851073222755e-08
 190    7.1469815070668e-08
 191    -2.0736984767048e-07
 192    -8.6605267334757e-06
 193    -1.1601782320521e-05
 194    4.9922002183998e-07
 195    6.6688136549388e-07
 196    1.3290996934691e-06
 197    -3.9460107405938e-07
 198    3.0069323397777e-07
 199    -1.5945658657236e-06
 200    1.2837246819325e-06
 201    -2.2358404281942e-07
 202    1.7053464395079e-06
 203    -6.9622205017785e-07
 204    -5.6343737910919e-06
 205    2.3674891567636e-06
 206    2.0175515982641e-07
 207    -1.9450141928168e-07
 208    1.5036321770435e-05
 209    2.1891652784158e-06
 210    -1.4738767426939e-07
 211    1.6822652460637e-06
 212    2.997375877059e-06
 213    3.9544494080052e-07
 214    -3.0717958919083e-06
 215    -2.3420328990654e-06
 216    1.4818162777658e-05
 217    5.8575722391375e-07
 218    -1.1302257498626e-07
 219    6.9380522765861e-07
 220    -2.0609357218017e-06
 221    -3.2363451726228e-06
 222    -1.8578897026612e-05
 223    0.00021291579359496
 224    6.9286738361905e-06
 225    -2.2961161127238e-06
 226    -6.3098195148165e-07
 227    3.6357649953305e-05
 228    4.4240296646318e-05
 229    -0.0002369091824155
 230    5.3513592877778e-06
 231    -7.8727737642089e-06
 232    -5.3616264189934e-06
 233    2.7499430678579e-06
 234    1.9244359260955e-06
 235    8.7185786418731e-06
 236    4.2922160223672e-05
 237    -0.00063156676210448
 238    -9.2167750319818e-06
 239    -9.4763756910298e-06
 240    7.569090753639e-06
 241    0.00019742293735995
 242    4.7193261463311e-05
 243    8.9415257226138e-05
 244    -1.6863812532748e-05
 245    3.114776773726e-06
 246    4.863981733293e-06
 247    -1.3090716885757e-06
 248    -3.3144124181343e-06
 249    -1.0321029090929e-05
 250    -1.8291906841174e-05
 251    1.4670131992382e-05
 252    -3.4774119421354e-05
 253    0.00094198291820805
 254    -9.9412262793296e-06
 255    6.780537668473e-06
 256    -2.0478412764337e-05
 257    0.00041201453269789
 258    4.9722981244727e-05
 259    8.4840456123227e-05
 260    1.7119045367225e-05
 261    -4.6465252863741e-06
 262    -5.4178398325211e-06
 263    6.1736944551892e-06
 264    7.8785179459011e-07
 265    -9.8789985318267e-06
 266    -9.8178875529617e-06
 267    2.6070046095482e-05
 268    5.7380765532664e-05
 269    -0.00026878315924966
 270    -0.00010807924447313
 271    -0.0031723846146782
 272    0.00025038916695284
 273    0.00016339587301668
 274    0.00044571129492998
 275    -0.0014515103599905
 276    -0.00081171281840836
 277    0.0037110859650449
 278    -0.00036675746713292
 279    5.4289134678069e-05
 280    2.7475821192688e-05