[Molden Format]
made by pyscf v[2.0.1]
[Atoms] (AU)
C   1   6     0.69100024066471     0.64692934207205    -3.48223131169301
H   2   1     2.68052439830868     1.13355088658700    -3.25784032593313
C   3   6    -0.36286361513219     0.85440132524594    -5.97030179418974
H   4   1    -2.35448549047279     0.36322488579172    -6.17995817793143
C   5   6     0.93697958957450     1.61209284601821    -8.05828437677121
H   6   1     0.98787445190838     3.61459623416997    -8.53612607551025
C   7   6     2.26501037377666    -0.09521284299527    -9.69466000525781
H   8   1     2.19798542548318    -2.09561092109775    -9.19103573591963
H   9   1     1.55630230933075    -1.92953025305990    12.99630010416247
C   10   6     0.75233899775814    -2.21270439606481    11.10705728102219
H   11   1    -0.43433408177274    -3.90944857546550    11.22216085340412
C   12   6     2.86362581178706    -2.63237380607947     9.17926416456045
H   13   1     4.39038949912609    -1.24955421540245     9.49899813497433
H   14   1     3.74629220191363    -4.48798724300892     9.47414880959024
C   15   6     2.02478325613682    -2.42177285709634     6.44560829588644
C   16   6     3.88048732735477    -3.58795445234514     4.61402886975252
C   17   6    -0.18412382258602    -1.30464291234259     5.76021113872346
C   18   6    -2.10044360464350    -0.26837831858460     7.71610340967100
C   19   6    -3.08956938670431     2.35282328359417     6.88693925039594
C   20   6    -4.37372924086464    -2.09766595989678     7.93610724222001
C   21   6    -0.83850430601230     0.06372213486173    10.33002307638377
H   22   1     0.38411922151109     1.74281358582432    10.27380136542181
H   23   1    -2.30980003007874     0.45460143924521    11.73986301809809
H   24   1     4.58527064644668    -5.38706904487420     5.36778158031719
H   25   1     5.54944938085014    -2.37631462192748     4.35398898413318
H   26   1     3.06633019150423    -3.94118377050688     2.75255466040884
H   27   1    -4.17727778763735     2.26573369139522     5.12914900961283
H   28   1    -1.52662344944051     3.68001877445626     6.59540397144508
H   29   1    -4.32916174397830     3.13643051467482     8.35225460090378
H   30   1    -5.32329548508442    -2.36691813602939     6.11583672749896
H   31   1    -5.77989366602257    -1.33896741843465     9.25748940450990
H   32   1    -3.79310905208926    -3.96389819310853     8.61386170102686
C   33   6    -1.01100794811226    -1.06331657314144     3.11929490449947
C   34   6     0.37686231036534    -0.33275864505552     1.09165013605873
H   35   1    -3.01671213906703    -1.40297922279997     2.77827895090944
C   36   6    -0.64382707979370    -0.11591880174385    -1.42063131251064
H   37   1     2.35569259782137     0.17174499283897     1.33641070251401
H   38   1    -2.63317482980319    -0.60229203511219    -1.66119700387645
C   39   6     3.58038244524183     0.57209765736826   -11.79257005200741
C   40   6     4.87057751772619    -1.31288245896332   -13.33829616647468
H   41   1     3.72212183925239     2.53140115363455   -12.39986577500592
O   42   8     6.08287300298468    -0.84687400827575   -15.24460146946798
H   43   1     4.67557951371048    -3.29368722109141   -12.64651065729987
[GTO]
1 0
 s    6 1.00
             3047.5249  0.0018347001629433
             457.36951    0.01403730124668
             103.94869   0.068842606114048
             29.210155    0.23218442062076
              9.286663    0.46794134155879
              3.163927    0.36231203217765
 s    3 1.00
             7.8682724   -0.11933240861517
             1.8812885   -0.16085421161283
             0.5442493     1.1434564825515
 s    1 1.00
             0.1687144                   1
 p    3 1.00
             7.8682724   0.068999095584993
             1.8812885    0.31642397975315
             0.5442493    0.74430825237435
 p    1 1.00
             0.1687144                   1
 d    1 1.00
                   0.8                   1

2 0
 s    3 1.00
             18.731137    0.03349459952309
             2.8253937    0.23472694665786
             0.6401217    0.81375731841339
 s    1 1.00
             0.1612778                   1

3 0
 s    6 1.00
             3047.5249  0.0018347001629433
             457.36951    0.01403730124668
             103.94869   0.068842606114048
             29.210155    0.23218442062076
              9.286663    0.46794134155879
              3.163927    0.36231203217765
 s    3 1.00
             7.8682724   -0.11933240861517
             1.8812885   -0.16085421161283
             0.5442493     1.1434564825515
 s    1 1.00
             0.1687144                   1
 p    3 1.00
             7.8682724   0.068999095584993
             1.8812885    0.31642397975315
             0.5442493    0.74430825237435
 p    1 1.00
             0.1687144                   1
 d    1 1.00
                   0.8                   1

4 0
 s    3 1.00
             18.731137    0.03349459952309
             2.8253937    0.23472694665786
             0.6401217    0.81375731841339
 s    1 1.00
             0.1612778                   1

5 0
 s    6 1.00
             3047.5249  0.0018347001629433
             457.36951    0.01403730124668
             103.94869   0.068842606114048
             29.210155    0.23218442062076
              9.286663    0.46794134155879
              3.163927    0.36231203217765
 s    3 1.00
             7.8682724   -0.11933240861517
             1.8812885   -0.16085421161283
             0.5442493     1.1434564825515
 s    1 1.00
             0.1687144                   1
 p    3 1.00
             7.8682724   0.068999095584993
             1.8812885    0.31642397975315
             0.5442493    0.74430825237435
 p    1 1.00
             0.1687144                   1
 d    1 1.00
                   0.8                   1

6 0
 s    3 1.00
             18.731137    0.03349459952309
             2.8253937    0.23472694665786
             0.6401217    0.81375731841339
 s    1 1.00
             0.1612778                   1

7 0
 s    6 1.00
             3047.5249  0.0018347001629433
             457.36951    0.01403730124668
             103.94869   0.068842606114048
             29.210155    0.23218442062076
              9.286663    0.46794134155879
              3.163927    0.36231203217765
 s    3 1.00
             7.8682724   -0.11933240861517
             1.8812885   -0.16085421161283
             0.5442493     1.1434564825515
 s    1 1.00
             0.1687144                   1
 p    3 1.00
             7.8682724   0.068999095584993
             1.8812885    0.31642397975315
             0.5442493    0.74430825237435
 p    1 1.00
             0.1687144                   1
 d    1 1.00
                   0.8                   1

8 0
 s    3 1.00
             18.731137    0.03349459952309
             2.8253937    0.23472694665786
             0.6401217    0.81375731841339
 s    1 1.00
             0.1612778                   1

9 0
 s    3 1.00
             18.731137    0.03349459952309
             2.8253937    0.23472694665786
             0.6401217    0.81375731841339
 s    1 1.00
             0.1612778                   1

10 0
 s    6 1.00
             3047.5249  0.0018347001629433
             457.36951    0.01403730124668
             103.94869   0.068842606114048
             29.210155    0.23218442062076
              9.286663    0.46794134155879
              3.163927    0.36231203217765
 s    3 1.00
             7.8682724   -0.11933240861517
             1.8812885   -0.16085421161283
             0.5442493     1.1434564825515
 s    1 1.00
             0.1687144                   1
 p    3 1.00
             7.8682724   0.068999095584993
             1.8812885    0.31642397975315
             0.5442493    0.74430825237435
 p    1 1.00
             0.1687144                   1
 d    1 1.00
                   0.8                   1

11 0
 s    3 1.00
             18.731137    0.03349459952309
             2.8253937    0.23472694665786
             0.6401217    0.81375731841339
 s    1 1.00
             0.1612778                   1

12 0
 s    6 1.00
             3047.5249  0.0018347001629433
             457.36951    0.01403730124668
             103.94869   0.068842606114048
             29.210155    0.23218442062076
              9.286663    0.46794134155879
              3.163927    0.36231203217765
 s    3 1.00
             7.8682724   -0.11933240861517
             1.8812885   -0.16085421161283
             0.5442493     1.1434564825515
 s    1 1.00
             0.1687144                   1
 p    3 1.00
             7.8682724   0.068999095584993
             1.8812885    0.31642397975315
             0.5442493    0.74430825237435
 p    1 1.00
             0.1687144                   1
 d    1 1.00
                   0.8                   1

13 0
 s    3 1.00
             18.731137    0.03349459952309
             2.8253937    0.23472694665786
             0.6401217    0.81375731841339
 s    1 1.00
             0.1612778                   1

14 0
 s    3 1.00
             18.731137    0.03349459952309
             2.8253937    0.23472694665786
             0.6401217    0.81375731841339
 s    1 1.00
             0.1612778                   1

15 0
 s    6 1.00
             3047.5249  0.0018347001629433
             457.36951    0.01403730124668
             103.94869   0.068842606114048
             29.210155    0.23218442062076
              9.286663    0.46794134155879
              3.163927    0.36231203217765
 s    3 1.00
             7.8682724   -0.11933240861517
             1.8812885   -0.16085421161283
             0.5442493     1.1434564825515
 s    1 1.00
             0.1687144                   1
 p    3 1.00
             7.8682724   0.068999095584993
             1.8812885    0.31642397975315
             0.5442493    0.74430825237435
 p    1 1.00
             0.1687144                   1
 d    1 1.00
                   0.8                   1

16 0
 s    6 1.00
             3047.5249  0.0018347001629433
             457.36951    0.01403730124668
             103.94869   0.068842606114048
             29.210155    0.23218442062076
              9.286663    0.46794134155879
              3.163927    0.36231203217765
 s    3 1.00
             7.8682724   -0.11933240861517
             1.8812885   -0.16085421161283
             0.5442493     1.1434564825515
 s    1 1.00
             0.1687144                   1
 p    3 1.00
             7.8682724   0.068999095584993
             1.8812885    0.31642397975315
             0.5442493    0.74430825237435
 p    1 1.00
             0.1687144                   1
 d    1 1.00
                   0.8                   1

17 0
 s    6 1.00
             3047.5249  0.0018347001629433
             457.36951    0.01403730124668
             103.94869   0.068842606114048
             29.210155    0.23218442062076
              9.286663    0.46794134155879
              3.163927    0.36231203217765
 s    3 1.00
             7.8682724   -0.11933240861517
             1.8812885   -0.16085421161283
             0.5442493     1.1434564825515
 s    1 1.00
             0.1687144                   1
 p    3 1.00
             7.8682724   0.068999095584993
             1.8812885    0.31642397975315
             0.5442493    0.74430825237435
 p    1 1.00
             0.1687144                   1
 d    1 1.00
                   0.8                   1

18 0
 s    6 1.00
             3047.5249  0.0018347001629433
             457.36951    0.01403730124668
             103.94869   0.068842606114048
             29.210155    0.23218442062076
              9.286663    0.46794134155879
              3.163927    0.36231203217765
 s    3 1.00
             7.8682724   -0.11933240861517
             1.8812885   -0.16085421161283
             0.5442493     1.1434564825515
 s    1 1.00
             0.1687144                   1
 p    3 1.00
             7.8682724   0.068999095584993
             1.8812885    0.31642397975315
             0.5442493    0.74430825237435
 p    1 1.00
             0.1687144                   1
 d    1 1.00
                   0.8                   1

19 0
 s    6 1.00
             3047.5249  0.0018347001629433
             457.36951    0.01403730124668
             103.94869   0.068842606114048
             29.210155    0.23218442062076
              9.286663    0.46794134155879
              3.163927    0.36231203217765
 s    3 1.00
             7.8682724   -0.11933240861517
             1.8812885   -0.16085421161283
             0.5442493     1.1434564825515
 s    1 1.00
             0.1687144                   1
 p    3 1.00
             7.8682724   0.068999095584993
             1.8812885    0.31642397975315
             0.5442493    0.74430825237435
 p    1 1.00
             0.1687144                   1
 d    1 1.00
                   0.8                   1

20 0
 s    6 1.00
             3047.5249  0.0018347001629433
             457.36951    0.01403730124668
             103.94869   0.068842606114048
             29.210155    0.23218442062076
              9.286663    0.46794134155879
              3.163927    0.36231203217765
 s    3 1.00
             7.8682724   -0.11933240861517
             1.8812885   -0.16085421161283
             0.5442493     1.1434564825515
 s    1 1.00
             0.1687144                   1
 p    3 1.00
             7.8682724   0.068999095584993
             1.8812885    0.31642397975315
             0.5442493    0.74430825237435
 p    1 1.00
             0.1687144                   1
 d    1 1.00
                   0.8                   1

21 0
 s    6 1.00
             3047.5249  0.0018347001629433
             457.36951    0.01403730124668
             103.94869   0.068842606114048
             29.210155    0.23218442062076
              9.286663    0.46794134155879
              3.163927    0.36231203217765
 s    3 1.00
             7.8682724   -0.11933240861517
             1.8812885   -0.16085421161283
             0.5442493     1.1434564825515
 s    1 1.00
             0.1687144                   1
 p    3 1.00
             7.8682724   0.068999095584993
             1.8812885    0.31642397975315
             0.5442493    0.74430825237435
 p    1 1.00
             0.1687144                   1
 d    1 1.00
                   0.8                   1

22 0
 s    3 1.00
             18.731137    0.03349459952309
             2.8253937    0.23472694665786
             0.6401217    0.81375731841339
 s    1 1.00
             0.1612778                   1

23 0
 s    3 1.00
             18.731137    0.03349459952309
             2.8253937    0.23472694665786
             0.6401217    0.81375731841339
 s    1 1.00
             0.1612778                   1

24 0
 s    3 1.00
             18.731137    0.03349459952309
             2.8253937    0.23472694665786
             0.6401217    0.81375731841339
 s    1 1.00
             0.1612778                   1

25 0
 s    3 1.00
             18.731137    0.03349459952309
             2.8253937    0.23472694665786
             0.6401217    0.81375731841339
 s    1 1.00
             0.1612778                   1

26 0
 s    3 1.00
             18.731137    0.03349459952309
             2.8253937    0.23472694665786
             0.6401217    0.81375731841339
 s    1 1.00
             0.1612778                   1

27 0
 s    3 1.00
             18.731137    0.03349459952309
             2.8253937    0.23472694665786
             0.6401217    0.81375731841339
 s    1 1.00
             0.1612778                   1

28 0
 s    3 1.00
             18.731137    0.03349459952309
             2.8253937    0.23472694665786
             0.6401217    0.81375731841339
 s    1 1.00
             0.1612778                   1

29 0
 s    3 1.00
             18.731137    0.03349459952309
             2.8253937    0.23472694665786
             0.6401217    0.81375731841339
 s    1 1.00
             0.1612778                   1

30 0
 s    3 1.00
             18.731137    0.03349459952309
             2.8253937    0.23472694665786
             0.6401217    0.81375731841339
 s    1 1.00
             0.1612778                   1

31 0
 s    3 1.00
             18.731137    0.03349459952309
             2.8253937    0.23472694665786
             0.6401217    0.81375731841339
 s    1 1.00
             0.1612778                   1

32 0
 s    3 1.00
             18.731137    0.03349459952309
             2.8253937    0.23472694665786
             0.6401217    0.81375731841339
 s    1 1.00
             0.1612778                   1

33 0
 s    6 1.00
             3047.5249  0.0018347001629433
             457.36951    0.01403730124668
             103.94869   0.068842606114048
             29.210155    0.23218442062076
              9.286663    0.46794134155879
              3.163927    0.36231203217765
 s    3 1.00
             7.8682724   -0.11933240861517
             1.8812885   -0.16085421161283
             0.5442493     1.1434564825515
 s    1 1.00
             0.1687144                   1
 p    3 1.00
             7.8682724   0.068999095584993
             1.8812885    0.31642397975315
             0.5442493    0.74430825237435
 p    1 1.00
             0.1687144                   1
 d    1 1.00
                   0.8                   1

34 0
 s    6 1.00
             3047.5249  0.0018347001629433
             457.36951    0.01403730124668
             103.94869   0.068842606114048
             29.210155    0.23218442062076
              9.286663    0.46794134155879
              3.163927    0.36231203217765
 s    3 1.00
             7.8682724   -0.11933240861517
             1.8812885   -0.16085421161283
             0.5442493     1.1434564825515
 s    1 1.00
             0.1687144                   1
 p    3 1.00
             7.8682724   0.068999095584993
             1.8812885    0.31642397975315
             0.5442493    0.74430825237435
 p    1 1.00
             0.1687144                   1
 d    1 1.00
                   0.8                   1

35 0
 s    3 1.00
             18.731137    0.03349459952309
             2.8253937    0.23472694665786
             0.6401217    0.81375731841339
 s    1 1.00
             0.1612778                   1

36 0
 s    6 1.00
             3047.5249  0.0018347001629433
             457.36951    0.01403730124668
             103.94869   0.068842606114048
             29.210155    0.23218442062076
              9.286663    0.46794134155879
              3.163927    0.36231203217765
 s    3 1.00
             7.8682724   -0.11933240861517
             1.8812885   -0.16085421161283
             0.5442493     1.1434564825515
 s    1 1.00
             0.1687144                   1
 p    3 1.00
             7.8682724   0.068999095584993
             1.8812885    0.31642397975315
             0.5442493    0.74430825237435
 p    1 1.00
             0.1687144                   1
 d    1 1.00
                   0.8                   1

37 0
 s    3 1.00
             18.731137    0.03349459952309
             2.8253937    0.23472694665786
             0.6401217    0.81375731841339
 s    1 1.00
             0.1612778                   1

38 0
 s    3 1.00
             18.731137    0.03349459952309
             2.8253937    0.23472694665786
             0.6401217    0.81375731841339
 s    1 1.00
             0.1612778                   1

39 0
 s    6 1.00
             3047.5249  0.0018347001629433
             457.36951    0.01403730124668
             103.94869   0.068842606114048
             29.210155    0.23218442062076
              9.286663    0.46794134155879
              3.163927    0.36231203217765
 s    3 1.00
             7.8682724   -0.11933240861517
             1.8812885   -0.16085421161283
             0.5442493     1.1434564825515
 s    1 1.00
             0.1687144                   1
 p    3 1.00
             7.8682724   0.068999095584993
             1.8812885    0.31642397975315
             0.5442493    0.74430825237435
 p    1 1.00
             0.1687144                   1
 d    1 1.00
                   0.8                   1

40 0
 s    6 1.00
             3047.5249  0.0018347001629433
             457.36951    0.01403730124668
             103.94869   0.068842606114048
             29.210155    0.23218442062076
              9.286663    0.46794134155879
              3.163927    0.36231203217765
 s    3 1.00
             7.8682724   -0.11933240861517
             1.8812885   -0.16085421161283
             0.5442493     1.1434564825515
 s    1 1.00
             0.1687144                   1
 p    3 1.00
             7.8682724   0.068999095584993
             1.8812885    0.31642397975315
             0.5442493    0.74430825237435
 p    1 1.00
             0.1687144                   1
 d    1 1.00
                   0.8                   1

41 0
 s    3 1.00
             18.731137    0.03349459952309
             2.8253937    0.23472694665786
             0.6401217    0.81375731841339
 s    1 1.00
             0.1612778                   1

42 0
 s    6 1.00
             5484.6717   0.001831099805527
             825.23495   0.013950098518422
             188.04696    0.06844509273075
               52.9645    0.23271427528445
              16.89757    0.47019295006289
             5.7996353    0.35852086192309
 s    3 1.00
             15.539616   -0.11077750382508
             3.5999336   -0.14802630511126
             1.0137618     1.1307670390447
 s    1 1.00
             0.2700058                   1
 p    3 1.00
             15.539616   0.070874299543311
             3.5999336    0.33975279781076
             1.0137618    0.72715859531445
 p    1 1.00
             0.2700058                   1
 d    1 1.00
                   0.8                   1

43 0
 s    3 1.00
             18.731137    0.03349459952309
             2.8253937    0.23472694665786
             0.6401217    0.81375731841339
 s    1 1.00
             0.1612778                   1

[5d]
[7f]
[9g]

[MO]
 Sym= A
 Ene=               0
 Spin= Alpha
 Occup=    1.00000
   1    -3.0501766315459e-07
   2    -1.4545608924835e-05
   3    -6.443067731975e-06
   4    -5.1811780428032e-06
   5    -3.7238468553235e-06
   6    1.4690015827299e-05
   7    3.2701228913331e-05
   8    0.00010670592550463
   9    -0.00036677279181191
  10    5.5226449221649e-08
  11    1.0832610428108e-05
  12    1.6817210856063e-06
  13    1.3836593107044e-05
  14    -7.6030513441061e-06
  15    -1.3163943161258e-05
  16    1.507667879647e-05
  17    8.2407314656929e-06
  18    0.0001589293720352
  19    0.00041828078178834
  20    5.3653556813908e-05
  21    -7.1657686470461e-06
  22    -6.7889854481689e-05
  23    0.00017401857904983
  24    -9.9815648388277e-05
  25    -0.00058620438063758
  26    2.1302516265952e-05
  27    -2.3272140041482e-05
  28    1.1654690505561e-05
  29    4.1369350296573e-05
  30    -6.8417353104699e-07
  31    -1.0703488712308e-05
  32    3.2218847202364e-05
  33    5.3368686992957e-05
  34    0.00035397698969937
  35    -0.0042800609398333
  36    -8.3079497014099e-05
  37    1.577336057568e-05
  38    0.00013176308909831
  39    -0.00053982596106835
  40    0.0018706518215214
  41    0.00045889645155608
  42    -1.9745273227522e-05
  43    0.00010635008071485
  44    -6.1646352802995e-05
  45    2.465703789429e-05
  46    5.7573077831462e-05
  47    -1.4642181674086e-05
  48    -0.00027248210284606
  49    4.8353854388573e-05
  50    0.00019609895205029
  51     0.003489173807385
  52    0.00020546392071839
  53    -0.0002115607531993
  54    -0.00026485418352299
  55    -0.0017658701504989
  56    0.0024947466682888
  57     0.002132044532287
  58    -2.7504721854073e-05
  59    3.1019633840187e-05
  60    0.00018602789369901
  61    2.9460422126894e-05
  62    -0.00011684171061687
  63      0.00030020765038
  64    7.5788050092064e-05
  65    -2.1060300122433e-07
  66    -2.8640873529034e-07
  67    -4.0834853266491e-08
  68    -5.6918034039219e-07
  69    2.7902519129266e-06
  70    2.2282433793521e-07
  71    -3.2871573791701e-07
  72    1.3499095547735e-07
  73    2.6229902709482e-07
  74    1.6722052809641e-06
  75    4.1758813111082e-08
  76    -5.407363356499e-08
  77    -1.1946464877813e-07
  78    4.6985097785643e-08
  79    7.0449962556879e-08
  80    -1.0330082848431e-07
  81    9.2715262517656e-08
  82    2.1519000232031e-07
  83    2.0579348270936e-08
  84    -1.9651044461391e-07
  85    -1.348719332217e-05
  86    6.4701730676232e-07
  87    5.9248107741174e-08
  88    8.8448188228993e-07
  89    3.3277324570215e-06
  90    -4.737114947411e-06
  91    3.3057772381037e-06
  92    1.7091337716705e-07
  93    -2.7541902293771e-07
  94    3.5519579891691e-07
  95    4.4417286944563e-08
  96    -1.5776980796294e-07
  97    6.7432525969897e-07
  98    8.5834935408123e-07
  99    -2.5338215931247e-08
 100    -1.0938645955906e-06
 101    -6.5729557671119e-08
 102    -8.5583886512686e-07
 103    1.3589946026275e-05
 104    1.8389277642337e-07
 105    -9.8330377842663e-07
 106    -6.2872725444826e-07
 107    -1.9228562950031e-05
 108    1.7709021554832e-05
 109    3.0674372303967e-05
 110    -5.8520953580515e-07
 111    -5.3571396644257e-07
 112    2.2914715528216e-07
 113    3.2918483685598e-07
 114    -5.078283798639e-07
 115    -4.7857054860652e-07
 116    -4.4034843249793e-06
 117    3.6025757113653e-05
 118    -6.6036144211193e-07
 119    9.919248347964e-07
 120    8.3159784253523e-07
 121    -8.3487170732549e-06
 122    1.1254115661389e-06
 123    2.784128511785e-06
 124    -7.8271580630385e-08
 125    -2.3806199279337e-07
 126    -1.2509253345268e-07
 127    1.1136000974213e-07
 128    -3.6205064479533e-07
 129    -9.5955391402312e-07
 130    -8.5785211801503e-06
 131    5.1211519038721e-05
 132    1.6739872101648e-07
 133    -2.5639960032361e-07
 134    3.3366580028032e-06
 135    -2.4254136898704e-05
 136    4.4480061677637e-07
 137    -8.1057469358754e-05
 138    2.4543100707252e-06
 139    1.572646343053e-06
 140    2.3833370293525e-07
 141    4.131192814816e-07
 142    6.7072074824519e-08
 143    -4.1133765838711e-07
 144    -3.9485829969359e-06
 145    1.9833994686868e-05
 146    2.0139069478147e-07
 147    4.9841021525162e-07
 148    4.4825159007766e-07
 149    1.1921342868153e-05
 150    -6.2794392536734e-06
 151    -3.139212173672e-06
 152    -9.8707828575974e-07
 153    -3.7934995304135e-07
 154    -1.1921794466916e-07
 155    7.1087298687501e-07
 156    -7.4686574738754e-07
 157     1.06572626095e-07
 158    8.4849660063826e-07
 159    4.0839544665638e-07
 160    7.0051581341572e-07
 161    -8.641489898031e-08
 162    -8.2750392149686e-08
 163    -6.2587024154985e-06
 164    2.591490267847e-07
 165    8.3054251358653e-07
 166    4.5704280462475e-07
 167    -1.772062128878e-07
 168    1.6923369248771e-08
 169    -1.0885241047121e-07
 170    2.953670499686e-07
 171    2.6340391788769e-08
 172    -4.1256867861851e-07
 173    -1.4917997210619e-06
 174    -6.2986977923071e-07
 175    -1.6026502575652e-07
 176    7.5311672277125e-07
 177    -3.4322108814747e-07
 178    1.6600105292283e-06
 179    -1.7009337856894e-06
 180    1.3938655176725e-07
 181    2.1580454145239e-07
 182    3.4290036960101e-08
 183    -3.7675431991356e-07
 184    1.7932994063049e-07
 185    -2.9648277185321e-07
 186    -2.9779724972737e-06
 187    2.0897196271047e-06
 188    -2.2468933977312e-07
 189    1.2773431133164e-07
 190    1.1182701235069e-06
 191    2.1737980741128e-06
 192    7.8159837996708e-07
 193    -5.4943687962465e-06
 194    3.0571653044105e-07
 195    -3.4245892409579e-08
 196    1.8616873989358e-07
 197    8.6312256395628e-08
 198    -8.9008203968698e-08
 199    -7.2446636625346e-07
 200    -1.183405283739e-06
 201    4.0500665025496e-08
 202    3.2337899539127e-06
 203    -1.6491692761949e-06
 204    -1.7933378116625e-06
 205    -3.0212139560648e-07
 206    -2.3384637037358e-06
 207    1.1407607243972e-06
 208    -1.1338276943457e-05
 209    1.0922398745513e-06
 210    -4.2311856193662e-06
 211    4.9024572038251e-07
 212    2.8164583780209e-06
 213    -2.1908607625732e-07
 214    -2.1165409068731e-06
 215    -4.8002882604395e-07
 216    6.6881698244427e-07
 217    2.7190052381375e-07
 218    7.7802528368881e-07
 219    2.7426897504541e-07
 220    1.1058580496038e-06
 221    -6.8277403399193e-07
 222    -8.1561302300483e-06
 223    -6.9713453495549e-06
 224    2.9283509488592e-07
 225    -7.0297312882822e-07
 226    3.8078725842434e-06
 227    1.1522611967137e-05
 228    2.7105823292285e-05
 229    -9.4934850650293e-05
 230    -1.0801674538944e-06
 231    -4.0867546547514e-06
 232    -1.9452009925694e-06
 233    1.8192695118583e-06
 234    2.7621319664467e-06
 235    -9.140966315634e-07
 236    -9.7490363643391e-06
 237    2.2041896481928e-05
 238    -8.1136424293278e-07
 239    3.2310605357831e-06
 240    3.1421481587765e-06
 241    -2.0583272837799e-05
 242    -7.3865882371524e-06
 243    -8.793464499936e-05
 244    1.5385648640226e-06
 245    6.732821585639e-06
 246    1.8719461797763e-06
 247    2.6167808524721e-06
 248    1.3866814449494e-06
 249    -4.1551896178767e-06
 250    1.0679983495304e-05
 251    -1.5330250186983e-06
 252    -2.8419678088643e-05
 253    0.00025785176168449
 254    3.5156609554531e-06
 255    -9.2980888182096e-06
 256    6.7342970608331e-06
 257    0.00010999698404496
 258    9.7482703325789e-05
 259    -0.0002401256217601
 260    2.3578929629278e-06
 261    -1.2093167713311e-05
 262    -5.3850380481852e-06
 263    7.7649835820314e-06
 264    5.5217190551652e-06
 265    -3.9981833245179e-06
 266    2.7612327864342e-05
 267    -7.6910842896765e-06
 268    3.7459423559603e-05
 269    -8.566071631533e-06
 270    -4.8041026013932e-05
 271    0.0030892393245482
 272    5.5438785899896e-06
 273    -0.00019192169920278
 274    3.1893384160641e-05
 275    0.0020701245000379
 276    0.00058083052173186
 277    -0.0032130145936831
 278    0.00020314241156241
 279    -0.00021521261493248
 280    0.00015554741989505