[Molden Format]
made by pyscf v[2.0.1]
[Atoms] (AU)
C   1   6     0.69100024066471     0.64692934207205    -3.48223131169301
H   2   1     2.68052439830868     1.13355088658700    -3.25784032593313
C   3   6    -0.36286361513219     0.85440132524594    -5.97030179418974
H   4   1    -2.35448549047279     0.36322488579172    -6.17995817793143
C   5   6     0.93697958957450     1.61209284601821    -8.05828437677121
H   6   1     0.30646242799847     3.28538583431710    -9.07979378939352
C   7   6     3.12235401223615     0.31857752265429    -9.01077606594223
H   8   1     3.73232478675010    -1.35404880050347    -7.96675544506269
H   9   1     1.55630230933075    -1.92953025305990    12.99630010416247
C   10   6     0.75233899775814    -2.21270439606481    11.10705728102219
H   11   1    -0.43433408177274    -3.90944857546550    11.22216085340412
C   12   6     2.86362581178706    -2.63237380607947     9.17926416456045
H   13   1     4.39038949912609    -1.24955421540245     9.49899813497433
H   14   1     3.74629220191363    -4.48798724300892     9.47414880959024
C   15   6     2.02478325613682    -2.42177285709634     6.44560829588644
C   16   6     3.88048732735477    -3.58795445234514     4.61402886975252
C   17   6    -0.18412382258602    -1.30464291234259     5.76021113872346
C   18   6    -2.10044360464350    -0.26837831858460     7.71610340967100
C   19   6    -3.08956938670431     2.35282328359417     6.88693925039594
C   20   6    -4.37372924086464    -2.09766595989678     7.93610724222001
C   21   6    -0.83850430601230     0.06372213486173    10.33002307638377
H   22   1     0.38411922151109     1.74281358582432    10.27380136542181
H   23   1    -2.30980003007874     0.45460143924521    11.73986301809809
H   24   1     4.58527064644668    -5.38706904487420     5.36778158031719
H   25   1     5.54944938085014    -2.37631462192748     4.35398898413318
H   26   1     3.06633019150423    -3.94118377050688     2.75255466040884
H   27   1    -4.17727778763735     2.26573369139522     5.12914900961283
H   28   1    -1.52662344944051     3.68001877445626     6.59540397144508
H   29   1    -4.32916174397830     3.13643051467482     8.35225460090378
H   30   1    -5.32329548508442    -2.36691813602939     6.11583672749896
H   31   1    -5.77989366602257    -1.33896741843465     9.25748940450990
H   32   1    -3.79310905208926    -3.96389819310853     8.61386170102686
C   33   6    -1.01100794811226    -1.06331657314144     3.11929490449947
C   34   6     0.37686231036534    -0.33275864505552     1.09165013605873
H   35   1    -3.01671213906703    -1.40297922279997     2.77827895090944
C   36   6    -0.64382707979370    -0.11591880174385    -1.42063131251064
H   37   1     2.35569259782137     0.17174499283897     1.33641070251401
H   38   1    -2.63317482980319    -0.60229203511219    -1.66119700387645
C   39   6     4.47307059082302     1.00138906809445   -11.08105785168909
C   40   6     6.67463726557562    -0.44413475967984   -11.89995199897600
H   41   1     3.96718229655089     2.64690253849906   -12.20539356366280
O   42   8     7.97152342098443     0.06042731610533   -13.73960618931333
H   43   1     7.12379765531873    -2.11255344586070   -10.69379572801653
[GTO]
1 0
 s    6 1.00
             3047.5249  0.0018347001629433
             457.36951    0.01403730124668
             103.94869   0.068842606114048
             29.210155    0.23218442062076
              9.286663    0.46794134155879
              3.163927    0.36231203217765
 s    3 1.00
             7.8682724   -0.11933240861517
             1.8812885   -0.16085421161283
             0.5442493     1.1434564825515
 s    1 1.00
             0.1687144                   1
 p    3 1.00
             7.8682724   0.068999095584993
             1.8812885    0.31642397975315
             0.5442493    0.74430825237435
 p    1 1.00
             0.1687144                   1
 d    1 1.00
                   0.8                   1

2 0
 s    3 1.00
             18.731137    0.03349459952309
             2.8253937    0.23472694665786
             0.6401217    0.81375731841339
 s    1 1.00
             0.1612778                   1

3 0
 s    6 1.00
             3047.5249  0.0018347001629433
             457.36951    0.01403730124668
             103.94869   0.068842606114048
             29.210155    0.23218442062076
              9.286663    0.46794134155879
              3.163927    0.36231203217765
 s    3 1.00
             7.8682724   -0.11933240861517
             1.8812885   -0.16085421161283
             0.5442493     1.1434564825515
 s    1 1.00
             0.1687144                   1
 p    3 1.00
             7.8682724   0.068999095584993
             1.8812885    0.31642397975315
             0.5442493    0.74430825237435
 p    1 1.00
             0.1687144                   1
 d    1 1.00
                   0.8                   1

4 0
 s    3 1.00
             18.731137    0.03349459952309
             2.8253937    0.23472694665786
             0.6401217    0.81375731841339
 s    1 1.00
             0.1612778                   1

5 0
 s    6 1.00
             3047.5249  0.0018347001629433
             457.36951    0.01403730124668
             103.94869   0.068842606114048
             29.210155    0.23218442062076
              9.286663    0.46794134155879
              3.163927    0.36231203217765
 s    3 1.00
             7.8682724   -0.11933240861517
             1.8812885   -0.16085421161283
             0.5442493     1.1434564825515
 s    1 1.00
             0.1687144                   1
 p    3 1.00
             7.8682724   0.068999095584993
             1.8812885    0.31642397975315
             0.5442493    0.74430825237435
 p    1 1.00
             0.1687144                   1
 d    1 1.00
                   0.8                   1

6 0
 s    3 1.00
             18.731137    0.03349459952309
             2.8253937    0.23472694665786
             0.6401217    0.81375731841339
 s    1 1.00
             0.1612778                   1

7 0
 s    6 1.00
             3047.5249  0.0018347001629433
             457.36951    0.01403730124668
             103.94869   0.068842606114048
             29.210155    0.23218442062076
              9.286663    0.46794134155879
              3.163927    0.36231203217765
 s    3 1.00
             7.8682724   -0.11933240861517
             1.8812885   -0.16085421161283
             0.5442493     1.1434564825515
 s    1 1.00
             0.1687144                   1
 p    3 1.00
             7.8682724   0.068999095584993
             1.8812885    0.31642397975315
             0.5442493    0.74430825237435
 p    1 1.00
             0.1687144                   1
 d    1 1.00
                   0.8                   1

8 0
 s    3 1.00
             18.731137    0.03349459952309
             2.8253937    0.23472694665786
             0.6401217    0.81375731841339
 s    1 1.00
             0.1612778                   1

9 0
 s    3 1.00
             18.731137    0.03349459952309
             2.8253937    0.23472694665786
             0.6401217    0.81375731841339
 s    1 1.00
             0.1612778                   1

10 0
 s    6 1.00
             3047.5249  0.0018347001629433
             457.36951    0.01403730124668
             103.94869   0.068842606114048
             29.210155    0.23218442062076
              9.286663    0.46794134155879
              3.163927    0.36231203217765
 s    3 1.00
             7.8682724   -0.11933240861517
             1.8812885   -0.16085421161283
             0.5442493     1.1434564825515
 s    1 1.00
             0.1687144                   1
 p    3 1.00
             7.8682724   0.068999095584993
             1.8812885    0.31642397975315
             0.5442493    0.74430825237435
 p    1 1.00
             0.1687144                   1
 d    1 1.00
                   0.8                   1

11 0
 s    3 1.00
             18.731137    0.03349459952309
             2.8253937    0.23472694665786
             0.6401217    0.81375731841339
 s    1 1.00
             0.1612778                   1

12 0
 s    6 1.00
             3047.5249  0.0018347001629433
             457.36951    0.01403730124668
             103.94869   0.068842606114048
             29.210155    0.23218442062076
              9.286663    0.46794134155879
              3.163927    0.36231203217765
 s    3 1.00
             7.8682724   -0.11933240861517
             1.8812885   -0.16085421161283
             0.5442493     1.1434564825515
 s    1 1.00
             0.1687144                   1
 p    3 1.00
             7.8682724   0.068999095584993
             1.8812885    0.31642397975315
             0.5442493    0.74430825237435
 p    1 1.00
             0.1687144                   1
 d    1 1.00
                   0.8                   1

13 0
 s    3 1.00
             18.731137    0.03349459952309
             2.8253937    0.23472694665786
             0.6401217    0.81375731841339
 s    1 1.00
             0.1612778                   1

14 0
 s    3 1.00
             18.731137    0.03349459952309
             2.8253937    0.23472694665786
             0.6401217    0.81375731841339
 s    1 1.00
             0.1612778                   1

15 0
 s    6 1.00
             3047.5249  0.0018347001629433
             457.36951    0.01403730124668
             103.94869   0.068842606114048
             29.210155    0.23218442062076
              9.286663    0.46794134155879
              3.163927    0.36231203217765
 s    3 1.00
             7.8682724   -0.11933240861517
             1.8812885   -0.16085421161283
             0.5442493     1.1434564825515
 s    1 1.00
             0.1687144                   1
 p    3 1.00
             7.8682724   0.068999095584993
             1.8812885    0.31642397975315
             0.5442493    0.74430825237435
 p    1 1.00
             0.1687144                   1
 d    1 1.00
                   0.8                   1

16 0
 s    6 1.00
             3047.5249  0.0018347001629433
             457.36951    0.01403730124668
             103.94869   0.068842606114048
             29.210155    0.23218442062076
              9.286663    0.46794134155879
              3.163927    0.36231203217765
 s    3 1.00
             7.8682724   -0.11933240861517
             1.8812885   -0.16085421161283
             0.5442493     1.1434564825515
 s    1 1.00
             0.1687144                   1
 p    3 1.00
             7.8682724   0.068999095584993
             1.8812885    0.31642397975315
             0.5442493    0.74430825237435
 p    1 1.00
             0.1687144                   1
 d    1 1.00
                   0.8                   1

17 0
 s    6 1.00
             3047.5249  0.0018347001629433
             457.36951    0.01403730124668
             103.94869   0.068842606114048
             29.210155    0.23218442062076
              9.286663    0.46794134155879
              3.163927    0.36231203217765
 s    3 1.00
             7.8682724   -0.11933240861517
             1.8812885   -0.16085421161283
             0.5442493     1.1434564825515
 s    1 1.00
             0.1687144                   1
 p    3 1.00
             7.8682724   0.068999095584993
             1.8812885    0.31642397975315
             0.5442493    0.74430825237435
 p    1 1.00
             0.1687144                   1
 d    1 1.00
                   0.8                   1

18 0
 s    6 1.00
             3047.5249  0.0018347001629433
             457.36951    0.01403730124668
             103.94869   0.068842606114048
             29.210155    0.23218442062076
              9.286663    0.46794134155879
              3.163927    0.36231203217765
 s    3 1.00
             7.8682724   -0.11933240861517
             1.8812885   -0.16085421161283
             0.5442493     1.1434564825515
 s    1 1.00
             0.1687144                   1
 p    3 1.00
             7.8682724   0.068999095584993
             1.8812885    0.31642397975315
             0.5442493    0.74430825237435
 p    1 1.00
             0.1687144                   1
 d    1 1.00
                   0.8                   1

19 0
 s    6 1.00
             3047.5249  0.0018347001629433
             457.36951    0.01403730124668
             103.94869   0.068842606114048
             29.210155    0.23218442062076
              9.286663    0.46794134155879
              3.163927    0.36231203217765
 s    3 1.00
             7.8682724   -0.11933240861517
             1.8812885   -0.16085421161283
             0.5442493     1.1434564825515
 s    1 1.00
             0.1687144                   1
 p    3 1.00
             7.8682724   0.068999095584993
             1.8812885    0.31642397975315
             0.5442493    0.74430825237435
 p    1 1.00
             0.1687144                   1
 d    1 1.00
                   0.8                   1

20 0
 s    6 1.00
             3047.5249  0.0018347001629433
             457.36951    0.01403730124668
             103.94869   0.068842606114048
             29.210155    0.23218442062076
              9.286663    0.46794134155879
              3.163927    0.36231203217765
 s    3 1.00
             7.8682724   -0.11933240861517
             1.8812885   -0.16085421161283
             0.5442493     1.1434564825515
 s    1 1.00
             0.1687144                   1
 p    3 1.00
             7.8682724   0.068999095584993
             1.8812885    0.31642397975315
             0.5442493    0.74430825237435
 p    1 1.00
             0.1687144                   1
 d    1 1.00
                   0.8                   1

21 0
 s    6 1.00
             3047.5249  0.0018347001629433
             457.36951    0.01403730124668
             103.94869   0.068842606114048
             29.210155    0.23218442062076
              9.286663    0.46794134155879
              3.163927    0.36231203217765
 s    3 1.00
             7.8682724   -0.11933240861517
             1.8812885   -0.16085421161283
             0.5442493     1.1434564825515
 s    1 1.00
             0.1687144                   1
 p    3 1.00
             7.8682724   0.068999095584993
             1.8812885    0.31642397975315
             0.5442493    0.74430825237435
 p    1 1.00
             0.1687144                   1
 d    1 1.00
                   0.8                   1

22 0
 s    3 1.00
             18.731137    0.03349459952309
             2.8253937    0.23472694665786
             0.6401217    0.81375731841339
 s    1 1.00
             0.1612778                   1

23 0
 s    3 1.00
             18.731137    0.03349459952309
             2.8253937    0.23472694665786
             0.6401217    0.81375731841339
 s    1 1.00
             0.1612778                   1

24 0
 s    3 1.00
             18.731137    0.03349459952309
             2.8253937    0.23472694665786
             0.6401217    0.81375731841339
 s    1 1.00
             0.1612778                   1

25 0
 s    3 1.00
             18.731137    0.03349459952309
             2.8253937    0.23472694665786
             0.6401217    0.81375731841339
 s    1 1.00
             0.1612778                   1

26 0
 s    3 1.00
             18.731137    0.03349459952309
             2.8253937    0.23472694665786
             0.6401217    0.81375731841339
 s    1 1.00
             0.1612778                   1

27 0
 s    3 1.00
             18.731137    0.03349459952309
             2.8253937    0.23472694665786
             0.6401217    0.81375731841339
 s    1 1.00
             0.1612778                   1

28 0
 s    3 1.00
             18.731137    0.03349459952309
             2.8253937    0.23472694665786
             0.6401217    0.81375731841339
 s    1 1.00
             0.1612778                   1

29 0
 s    3 1.00
             18.731137    0.03349459952309
             2.8253937    0.23472694665786
             0.6401217    0.81375731841339
 s    1 1.00
             0.1612778                   1

30 0
 s    3 1.00
             18.731137    0.03349459952309
             2.8253937    0.23472694665786
             0.6401217    0.81375731841339
 s    1 1.00
             0.1612778                   1

31 0
 s    3 1.00
             18.731137    0.03349459952309
             2.8253937    0.23472694665786
             0.6401217    0.81375731841339
 s    1 1.00
             0.1612778                   1

32 0
 s    3 1.00
             18.731137    0.03349459952309
             2.8253937    0.23472694665786
             0.6401217    0.81375731841339
 s    1 1.00
             0.1612778                   1

33 0
 s    6 1.00
             3047.5249  0.0018347001629433
             457.36951    0.01403730124668
             103.94869   0.068842606114048
             29.210155    0.23218442062076
              9.286663    0.46794134155879
              3.163927    0.36231203217765
 s    3 1.00
             7.8682724   -0.11933240861517
             1.8812885   -0.16085421161283
             0.5442493     1.1434564825515
 s    1 1.00
             0.1687144                   1
 p    3 1.00
             7.8682724   0.068999095584993
             1.8812885    0.31642397975315
             0.5442493    0.74430825237435
 p    1 1.00
             0.1687144                   1
 d    1 1.00
                   0.8                   1

34 0
 s    6 1.00
             3047.5249  0.0018347001629433
             457.36951    0.01403730124668
             103.94869   0.068842606114048
             29.210155    0.23218442062076
              9.286663    0.46794134155879
              3.163927    0.36231203217765
 s    3 1.00
             7.8682724   -0.11933240861517
             1.8812885   -0.16085421161283
             0.5442493     1.1434564825515
 s    1 1.00
             0.1687144                   1
 p    3 1.00
             7.8682724   0.068999095584993
             1.8812885    0.31642397975315
             0.5442493    0.74430825237435
 p    1 1.00
             0.1687144                   1
 d    1 1.00
                   0.8                   1

35 0
 s    3 1.00
             18.731137    0.03349459952309
             2.8253937    0.23472694665786
             0.6401217    0.81375731841339
 s    1 1.00
             0.1612778                   1

36 0
 s    6 1.00
             3047.5249  0.0018347001629433
             457.36951    0.01403730124668
             103.94869   0.068842606114048
             29.210155    0.23218442062076
              9.286663    0.46794134155879
              3.163927    0.36231203217765
 s    3 1.00
             7.8682724   -0.11933240861517
             1.8812885   -0.16085421161283
             0.5442493     1.1434564825515
 s    1 1.00
             0.1687144                   1
 p    3 1.00
             7.8682724   0.068999095584993
             1.8812885    0.31642397975315
             0.5442493    0.74430825237435
 p    1 1.00
             0.1687144                   1
 d    1 1.00
                   0.8                   1

37 0
 s    3 1.00
             18.731137    0.03349459952309
             2.8253937    0.23472694665786
             0.6401217    0.81375731841339
 s    1 1.00
             0.1612778                   1

38 0
 s    3 1.00
             18.731137    0.03349459952309
             2.8253937    0.23472694665786
             0.6401217    0.81375731841339
 s    1 1.00
             0.1612778                   1

39 0
 s    6 1.00
             3047.5249  0.0018347001629433
             457.36951    0.01403730124668
             103.94869   0.068842606114048
             29.210155    0.23218442062076
              9.286663    0.46794134155879
              3.163927    0.36231203217765
 s    3 1.00
             7.8682724   -0.11933240861517
             1.8812885   -0.16085421161283
             0.5442493     1.1434564825515
 s    1 1.00
             0.1687144                   1
 p    3 1.00
             7.8682724   0.068999095584993
             1.8812885    0.31642397975315
             0.5442493    0.74430825237435
 p    1 1.00
             0.1687144                   1
 d    1 1.00
                   0.8                   1

40 0
 s    6 1.00
             3047.5249  0.0018347001629433
             457.36951    0.01403730124668
             103.94869   0.068842606114048
             29.210155    0.23218442062076
              9.286663    0.46794134155879
              3.163927    0.36231203217765
 s    3 1.00
             7.8682724   -0.11933240861517
             1.8812885   -0.16085421161283
             0.5442493     1.1434564825515
 s    1 1.00
             0.1687144                   1
 p    3 1.00
             7.8682724   0.068999095584993
             1.8812885    0.31642397975315
             0.5442493    0.74430825237435
 p    1 1.00
             0.1687144                   1
 d    1 1.00
                   0.8                   1

41 0
 s    3 1.00
             18.731137    0.03349459952309
             2.8253937    0.23472694665786
             0.6401217    0.81375731841339
 s    1 1.00
             0.1612778                   1

42 0
 s    6 1.00
             5484.6717   0.001831099805527
             825.23495   0.013950098518422
             188.04696    0.06844509273075
               52.9645    0.23271427528445
              16.89757    0.47019295006289
             5.7996353    0.35852086192309
 s    3 1.00
             15.539616   -0.11077750382508
             3.5999336   -0.14802630511126
             1.0137618     1.1307670390447
 s    1 1.00
             0.2700058                   1
 p    3 1.00
             15.539616   0.070874299543311
             3.5999336    0.33975279781076
             1.0137618    0.72715859531445
 p    1 1.00
             0.2700058                   1
 d    1 1.00
                   0.8                   1

43 0
 s    3 1.00
             18.731137    0.03349459952309
             2.8253937    0.23472694665786
             0.6401217    0.81375731841339
 s    1 1.00
             0.1612778                   1

[5d]
[7f]
[9g]

[MO]
 Sym= A
 Ene=               0
 Spin= Alpha
 Occup=    1.00000
   1    3.8767737113065e-06
   2    2.3326362627555e-05
   3    -0.00041363932962023
   4    7.4120075686121e-06
   5    -2.4522268442699e-05
   6    5.1883465753634e-06
   7    8.4378627531052e-05
   8    0.00015542435906001
   9    -1.469055968344e-05
  10    -9.0266319043003e-06
  11    -1.2255259489587e-06
  12    -4.6180410721694e-06
  13    8.8519430334453e-06
  14    -5.9606131408762e-06
  15    -1.8793884373983e-06
  16    4.1371116168155e-06
  17    -1.6556566563795e-07
  18    8.0236593206204e-05
  19    0.00087901900472786
  20    4.9328158782808e-05
  21    5.6332723152375e-06
  22    -6.1852077409458e-05
  23    0.00052444624058047
  24    -0.00011410612712932
  25    -0.00025352739038525
  26    2.5819733852714e-05
  27    -2.5802950981419e-05
  28    1.9652949853995e-05
  29    3.208945986706e-05
  30    2.0194712055336e-05
  31    2.8917732746515e-06
  32    9.7793517114469e-05
  33    5.3179465574871e-05
  34    0.00034009159419855
  35     -0.00433302852863
  36    -0.0001012902654812
  37    4.5561239460208e-06
  38    0.00010419907014606
  39    -0.0014012485210884
  40    0.0015549451147541
  41    -0.00017563320436437
  42    1.7134542415219e-05
  43    9.7594669544193e-05
  44    -3.746831275377e-06
  45    -4.8093129990164e-05
  46    9.0792331268574e-05
  47    -2.0713826246869e-05
  48    -0.00030415903036962
  49    4.7496059157077e-05
  50    0.00019423343609742
  51    0.0035961226577426
  52    0.00031739903172844
  53    -0.0001591518229272
  54    -0.00016907476040015
  55    -0.0029947499364507
  56     0.001963464794301
  57    0.0011332975456884
  58    -0.00010395834605603
  59    7.4016180876555e-06
  60    0.00016219285929179
  61    7.2611948319304e-05
  62    -9.4645636900877e-05
  63    0.00030081187301289
  64    0.00010005066108181
  65    -3.1784613717189e-08
  66    -4.6810512190072e-07
  67    -8.7781952170462e-09
  68    -2.5444830542623e-07
  69    2.0005940394193e-06
  70    -1.5777007689165e-08
  71    -2.7173773280668e-08
  72    1.7340807221124e-07
  73    -3.6125772201249e-07
  74    7.548329433571e-07
  75    -2.4643600442877e-08
  76    -1.2396596264442e-07
  77    -1.3554342522076e-07
  78    8.5348502434358e-10
  79    -2.8010011752013e-09
  80    -1.3940018966033e-07
  81    3.0746302487699e-08
  82    -2.2003462610894e-07
  83    -6.2780084127445e-08
  84    -9.4459129089536e-07
  85    -1.3647444117446e-05
  86    7.1024549416833e-07
  87    -2.7834744440549e-07
  88    7.7525569476016e-07
  89    1.7867522352196e-06
  90    -9.0362398655968e-07
  91    4.7724269813121e-06
  92    1.7642689731617e-07
  93    -1.500098618769e-07
  94    1.3312173187861e-07
  95    1.8878180553213e-07
  96    -1.7393220883311e-07
  97    2.6084918872274e-07
  98    5.8175023562796e-08
  99    3.3757906254191e-07
 100    -1.1651662562893e-08
 101    1.981706524543e-07
 102    7.8058191908075e-07
 103    -1.6620224473437e-05
 104    9.086096432059e-07
 105    -8.1670544381507e-07
 106    -4.321040093907e-07
 107    -9.3884742572425e-06
 108    9.1134999820403e-06
 109    4.0519037652409e-05
 110    -6.4167128699306e-07
 111    -9.1949754959958e-07
 112    3.6937568616937e-07
 113    9.2828297710224e-09
 114    -1.4398925094319e-07
 115    -4.5121102203854e-07
 116    -3.9691191703017e-06
 117    3.3924259204312e-05
 118    -6.0578468347781e-07
 119    3.3196461222622e-07
 120    1.1071621954266e-06
 121    -1.0936008668132e-05
 122    6.7641786650099e-06
 123    3.1740757121939e-06
 124    -3.1290698807327e-07
 125    -3.0336442902362e-07
 126    2.6212690160574e-07
 127    3.7174953101195e-07
 128    -4.3963414745706e-07
 129    -1.0748170805307e-06
 130    -8.1934490062059e-06
 131    6.0363402330103e-05
 132    -9.9267965410627e-07
 133    8.7479927988138e-07
 134    3.0854793118034e-06
 135    8.4752439958083e-06
 136    -1.06789730108e-05
 137    -9.083111947756e-05
 138    2.6411391941065e-06
 139    1.6547765368343e-06
 140    -4.8076455655157e-07
 141    4.5105956855665e-07
 142    -6.8557107967755e-07
 143    -6.6725337764838e-07
 144    -5.5895956797538e-06
 145    4.2618059506703e-05
 146    -1.2949187547647e-07
 147    -2.4557749449939e-09
 148    -7.4455969087503e-07
 149    2.2158118214311e-05
 150    -1.0818181566378e-05
 151    -1.8955658870836e-06
 152     -6.0644883906e-07
 153    -4.5908180257398e-07
 154    2.805085303386e-07
 155    7.5984979148688e-07
 156    -8.1963158310409e-07
 157    -2.5628444556491e-08
 158    -4.1938787243225e-07
 159    4.4106307142913e-06
 160    2.8869962897214e-07
 161    1.6813909099723e-08
 162    -1.0645460511002e-07
 163    -5.1000124596676e-06
 164    -1.3578685888918e-06
 165    -5.0108575579025e-08
 166    3.8437842868535e-07
 167    -3.5340544110349e-07
 168    5.8733323852483e-08
 169    -2.4871722122697e-07
 170    3.0837023969634e-07
 171    8.2196831127263e-09
 172    -2.6879781503383e-07
 173    1.0777760501019e-07
 174    -2.0008950172547e-07
 175    -1.6155779073394e-07
 176    1.2240068407909e-07
 177    -3.4515024903965e-06
 178    2.2730252050802e-06
 179    -1.3978769207121e-06
 180    1.1209093624582e-07
 181    -1.6251019368948e-07
 182    1.652263395412e-07
 183    -5.4443119110677e-07
 184    -7.2215279734231e-08
 185    -8.4768541102367e-08
 186    -1.3626421327396e-06
 187    -7.9411984630557e-06
 188    1.4942054694379e-07
 189    1.8689919388205e-07
 190    1.4024432847987e-06
 191    2.2072185881978e-06
 192      1.8503891736e-06
 193    1.1764079285392e-07
 194    -6.9662156227373e-08
 195    -2.5939086371895e-07
 196    2.3281629368784e-08
 197    2.7897525580946e-07
 198    -2.1429466094283e-07
 199    -8.8260276332379e-08
 200    -8.2637500192708e-07
 201    1.3382097374544e-07
 202    2.8538574225339e-06
 203    -9.2126588729437e-07
 204    8.3888509414505e-07
 205    -8.8746993880308e-07
 206    -1.7778588574995e-06
 207    -6.0787927809018e-07
 208    -4.9502089390014e-06
 209    6.2458687651168e-07
 210    -4.7247023491334e-06
 211    2.9228841223774e-07
 212    1.9317617242339e-06
 213    -4.0056622647095e-07
 214    -9.339353053509e-07
 215    4.2276275007941e-07
 216    -3.077442622181e-06
 217    -1.5858047725246e-07
 218    -3.2749618729582e-07
 219    2.8211644256366e-07
 220    1.7901085997786e-06
 221    5.6666280781911e-07
 222    8.9550507394602e-07
 223    -0.00011310394203068
 224    4.3811257711073e-07
 225    -2.9972166396679e-06
 226    4.922320177115e-06
 227    -2.9994515829831e-05
 228    1.3499053706863e-05
 229    -4.3810420257931e-05
 230    -2.7157575582837e-06
 231    -2.1858841162599e-06
 232    3.3654780865557e-07
 233    8.2323130991322e-07
 234    1.3937408228332e-06
 235    -1.3934575669361e-06
 236    -1.0265024006523e-05
 237    0.00014278319860879
 238    1.5166880314685e-06
 239    4.6463707727849e-06
 240    -2.2589451169588e-06
 241    -7.4512732468947e-05
 242    -1.9507816641727e-05
 243    -3.324716450893e-05
 244    2.2725317730848e-06
 245    3.4553085001719e-06
 246    -1.6115420669817e-06
 247    2.4103410649637e-06
 248    -1.9402319030396e-07
 249    -4.1054339594892e-06
 250    8.5159688883408e-06
 251    -1.3836822617399e-06
 252    -2.3108291291411e-05
 253    0.0001757763433388
 254    3.6744249062529e-06
 255    -1.9570171895131e-06
 256    9.9923729681213e-06
 257    4.9673620622999e-05
 258    3.3855845134334e-05
 259    -0.0002747347429531
 260    3.2713653362284e-06
 261    -1.1326731777457e-05
 262    -1.0928015758088e-06
 263    8.399093391869e-06
 264    -9.716448219795e-07
 265    2.4548513195099e-06
 266    2.2969093919262e-05
 267    -1.1327693623617e-05
 268    6.638305062216e-06
 269    -8.1148116039258e-06
 270    -4.3923425773566e-05
 271    0.0030316323927378
 272    7.2240845213855e-05
 273    -0.00015896677250362
 274    8.3398486328409e-05
 275    0.0023216821647967
 276    0.00067910714314618
 277    -0.0030677654515528
 278    5.7954839140232e-05
 279    -0.00028181372283649
 280    0.00016808155445169