[Molden Format]
made by pyscf v[2.0.1]
[Atoms] (AU)
C   1   6     0.69100024066471     0.64692934207205    -3.48223131169301
H   2   1     2.68052439830868     1.13355088658700    -3.25784032593313
C   3   6    -0.36286361513219     0.85440132524594    -5.97030179418974
H   4   1    -2.35448549047279     0.36322488579172    -6.17995817793143
C   5   6     0.93697958957450     1.61209284601821    -8.05828437677121
H   6   1     1.25179717896080     3.62344259528190    -8.36861463213972
C   7   6     1.93299030663405    -0.10622024085708    -9.90534865945394
H   8   1     1.60367989661651    -2.11561190296467    -9.56827000221191
H   9   1     1.55630230933075    -1.92953025305990    12.99630010416247
C   10   6     0.75233899775814    -2.21270439606481    11.10705728102219
H   11   1    -0.43433408177274    -3.90944857546550    11.22216085340412
C   12   6     2.86362581178706    -2.63237380607947     9.17926416456045
H   13   1     4.39038949912609    -1.24955421540245     9.49899813497433
H   14   1     3.74629220191363    -4.48798724300892     9.47414880959024
C   15   6     2.02478325613682    -2.42177285709634     6.44560829588644
C   16   6     3.88048732735477    -3.58795445234514     4.61402886975252
C   17   6    -0.18412382258602    -1.30464291234259     5.76021113872346
C   18   6    -2.10044360464350    -0.26837831858460     7.71610340967100
C   19   6    -3.08956938670431     2.35282328359417     6.88693925039594
C   20   6    -4.37372924086464    -2.09766595989678     7.93610724222001
C   21   6    -0.83850430601230     0.06372213486173    10.33002307638377
H   22   1     0.38411922151109     1.74281358582432    10.27380136542181
H   23   1    -2.30980003007874     0.45460143924521    11.73986301809809
H   24   1     4.58527064644668    -5.38706904487420     5.36778158031719
H   25   1     5.54944938085014    -2.37631462192748     4.35398898413318
H   26   1     3.06633019150423    -3.94118377050688     2.75255466040884
H   27   1    -4.17727778763735     2.26573369139522     5.12914900961283
H   28   1    -1.52662344944051     3.68001877445626     6.59540397144508
H   29   1    -4.32916174397830     3.13643051467482     8.35225460090378
H   30   1    -5.32329548508442    -2.36691813602939     6.11583672749896
H   31   1    -5.77989366602257    -1.33896741843465     9.25748940450990
H   32   1    -3.79310905208926    -3.96389819310853     8.61386170102686
C   33   6    -1.01100794811226    -1.06331657314144     3.11929490449947
C   34   6     0.37686231036534    -0.33275864505552     1.09165013605873
H   35   1    -3.01671213906703    -1.40297922279997     2.77827895090944
C   36   6    -0.64382707979370    -0.11591880174385    -1.42063131251064
H   37   1     2.35569259782137     0.17174499283897     1.33641070251401
H   38   1    -2.63317482980319    -0.60229203511219    -1.66119700387645
C   39   6     3.23483881481583     0.56109494848388   -12.01167590238676
C   40   6     4.17213386166354    -1.33546547775814   -13.78129708499957
H   41   1     3.62751071831436     2.52907164005278   -12.45960989181140
O   42   8     5.35190984410731    -0.86987395658954   -15.70799822813352
H   43   1     3.72751838268070    -3.32497850208065   -13.24806737881206
[GTO]
1 0
 s    6 1.00
             3047.5249  0.0018347001629433
             457.36951    0.01403730124668
             103.94869   0.068842606114048
             29.210155    0.23218442062076
              9.286663    0.46794134155879
              3.163927    0.36231203217765
 s    3 1.00
             7.8682724   -0.11933240861517
             1.8812885   -0.16085421161283
             0.5442493     1.1434564825515
 s    1 1.00
             0.1687144                   1
 p    3 1.00
             7.8682724   0.068999095584993
             1.8812885    0.31642397975315
             0.5442493    0.74430825237435
 p    1 1.00
             0.1687144                   1
 d    1 1.00
                   0.8                   1

2 0
 s    3 1.00
             18.731137    0.03349459952309
             2.8253937    0.23472694665786
             0.6401217    0.81375731841339
 s    1 1.00
             0.1612778                   1

3 0
 s    6 1.00
             3047.5249  0.0018347001629433
             457.36951    0.01403730124668
             103.94869   0.068842606114048
             29.210155    0.23218442062076
              9.286663    0.46794134155879
              3.163927    0.36231203217765
 s    3 1.00
             7.8682724   -0.11933240861517
             1.8812885   -0.16085421161283
             0.5442493     1.1434564825515
 s    1 1.00
             0.1687144                   1
 p    3 1.00
             7.8682724   0.068999095584993
             1.8812885    0.31642397975315
             0.5442493    0.74430825237435
 p    1 1.00
             0.1687144                   1
 d    1 1.00
                   0.8                   1

4 0
 s    3 1.00
             18.731137    0.03349459952309
             2.8253937    0.23472694665786
             0.6401217    0.81375731841339
 s    1 1.00
             0.1612778                   1

5 0
 s    6 1.00
             3047.5249  0.0018347001629433
             457.36951    0.01403730124668
             103.94869   0.068842606114048
             29.210155    0.23218442062076
              9.286663    0.46794134155879
              3.163927    0.36231203217765
 s    3 1.00
             7.8682724   -0.11933240861517
             1.8812885   -0.16085421161283
             0.5442493     1.1434564825515
 s    1 1.00
             0.1687144                   1
 p    3 1.00
             7.8682724   0.068999095584993
             1.8812885    0.31642397975315
             0.5442493    0.74430825237435
 p    1 1.00
             0.1687144                   1
 d    1 1.00
                   0.8                   1

6 0
 s    3 1.00
             18.731137    0.03349459952309
             2.8253937    0.23472694665786
             0.6401217    0.81375731841339
 s    1 1.00
             0.1612778                   1

7 0
 s    6 1.00
             3047.5249  0.0018347001629433
             457.36951    0.01403730124668
             103.94869   0.068842606114048
             29.210155    0.23218442062076
              9.286663    0.46794134155879
              3.163927    0.36231203217765
 s    3 1.00
             7.8682724   -0.11933240861517
             1.8812885   -0.16085421161283
             0.5442493     1.1434564825515
 s    1 1.00
             0.1687144                   1
 p    3 1.00
             7.8682724   0.068999095584993
             1.8812885    0.31642397975315
             0.5442493    0.74430825237435
 p    1 1.00
             0.1687144                   1
 d    1 1.00
                   0.8                   1

8 0
 s    3 1.00
             18.731137    0.03349459952309
             2.8253937    0.23472694665786
             0.6401217    0.81375731841339
 s    1 1.00
             0.1612778                   1

9 0
 s    3 1.00
             18.731137    0.03349459952309
             2.8253937    0.23472694665786
             0.6401217    0.81375731841339
 s    1 1.00
             0.1612778                   1

10 0
 s    6 1.00
             3047.5249  0.0018347001629433
             457.36951    0.01403730124668
             103.94869   0.068842606114048
             29.210155    0.23218442062076
              9.286663    0.46794134155879
              3.163927    0.36231203217765
 s    3 1.00
             7.8682724   -0.11933240861517
             1.8812885   -0.16085421161283
             0.5442493     1.1434564825515
 s    1 1.00
             0.1687144                   1
 p    3 1.00
             7.8682724   0.068999095584993
             1.8812885    0.31642397975315
             0.5442493    0.74430825237435
 p    1 1.00
             0.1687144                   1
 d    1 1.00
                   0.8                   1

11 0
 s    3 1.00
             18.731137    0.03349459952309
             2.8253937    0.23472694665786
             0.6401217    0.81375731841339
 s    1 1.00
             0.1612778                   1

12 0
 s    6 1.00
             3047.5249  0.0018347001629433
             457.36951    0.01403730124668
             103.94869   0.068842606114048
             29.210155    0.23218442062076
              9.286663    0.46794134155879
              3.163927    0.36231203217765
 s    3 1.00
             7.8682724   -0.11933240861517
             1.8812885   -0.16085421161283
             0.5442493     1.1434564825515
 s    1 1.00
             0.1687144                   1
 p    3 1.00
             7.8682724   0.068999095584993
             1.8812885    0.31642397975315
             0.5442493    0.74430825237435
 p    1 1.00
             0.1687144                   1
 d    1 1.00
                   0.8                   1

13 0
 s    3 1.00
             18.731137    0.03349459952309
             2.8253937    0.23472694665786
             0.6401217    0.81375731841339
 s    1 1.00
             0.1612778                   1

14 0
 s    3 1.00
             18.731137    0.03349459952309
             2.8253937    0.23472694665786
             0.6401217    0.81375731841339
 s    1 1.00
             0.1612778                   1

15 0
 s    6 1.00
             3047.5249  0.0018347001629433
             457.36951    0.01403730124668
             103.94869   0.068842606114048
             29.210155    0.23218442062076
              9.286663    0.46794134155879
              3.163927    0.36231203217765
 s    3 1.00
             7.8682724   -0.11933240861517
             1.8812885   -0.16085421161283
             0.5442493     1.1434564825515
 s    1 1.00
             0.1687144                   1
 p    3 1.00
             7.8682724   0.068999095584993
             1.8812885    0.31642397975315
             0.5442493    0.74430825237435
 p    1 1.00
             0.1687144                   1
 d    1 1.00
                   0.8                   1

16 0
 s    6 1.00
             3047.5249  0.0018347001629433
             457.36951    0.01403730124668
             103.94869   0.068842606114048
             29.210155    0.23218442062076
              9.286663    0.46794134155879
              3.163927    0.36231203217765
 s    3 1.00
             7.8682724   -0.11933240861517
             1.8812885   -0.16085421161283
             0.5442493     1.1434564825515
 s    1 1.00
             0.1687144                   1
 p    3 1.00
             7.8682724   0.068999095584993
             1.8812885    0.31642397975315
             0.5442493    0.74430825237435
 p    1 1.00
             0.1687144                   1
 d    1 1.00
                   0.8                   1

17 0
 s    6 1.00
             3047.5249  0.0018347001629433
             457.36951    0.01403730124668
             103.94869   0.068842606114048
             29.210155    0.23218442062076
              9.286663    0.46794134155879
              3.163927    0.36231203217765
 s    3 1.00
             7.8682724   -0.11933240861517
             1.8812885   -0.16085421161283
             0.5442493     1.1434564825515
 s    1 1.00
             0.1687144                   1
 p    3 1.00
             7.8682724   0.068999095584993
             1.8812885    0.31642397975315
             0.5442493    0.74430825237435
 p    1 1.00
             0.1687144                   1
 d    1 1.00
                   0.8                   1

18 0
 s    6 1.00
             3047.5249  0.0018347001629433
             457.36951    0.01403730124668
             103.94869   0.068842606114048
             29.210155    0.23218442062076
              9.286663    0.46794134155879
              3.163927    0.36231203217765
 s    3 1.00
             7.8682724   -0.11933240861517
             1.8812885   -0.16085421161283
             0.5442493     1.1434564825515
 s    1 1.00
             0.1687144                   1
 p    3 1.00
             7.8682724   0.068999095584993
             1.8812885    0.31642397975315
             0.5442493    0.74430825237435
 p    1 1.00
             0.1687144                   1
 d    1 1.00
                   0.8                   1

19 0
 s    6 1.00
             3047.5249  0.0018347001629433
             457.36951    0.01403730124668
             103.94869   0.068842606114048
             29.210155    0.23218442062076
              9.286663    0.46794134155879
              3.163927    0.36231203217765
 s    3 1.00
             7.8682724   -0.11933240861517
             1.8812885   -0.16085421161283
             0.5442493     1.1434564825515
 s    1 1.00
             0.1687144                   1
 p    3 1.00
             7.8682724   0.068999095584993
             1.8812885    0.31642397975315
             0.5442493    0.74430825237435
 p    1 1.00
             0.1687144                   1
 d    1 1.00
                   0.8                   1

20 0
 s    6 1.00
             3047.5249  0.0018347001629433
             457.36951    0.01403730124668
             103.94869   0.068842606114048
             29.210155    0.23218442062076
              9.286663    0.46794134155879
              3.163927    0.36231203217765
 s    3 1.00
             7.8682724   -0.11933240861517
             1.8812885   -0.16085421161283
             0.5442493     1.1434564825515
 s    1 1.00
             0.1687144                   1
 p    3 1.00
             7.8682724   0.068999095584993
             1.8812885    0.31642397975315
             0.5442493    0.74430825237435
 p    1 1.00
             0.1687144                   1
 d    1 1.00
                   0.8                   1

21 0
 s    6 1.00
             3047.5249  0.0018347001629433
             457.36951    0.01403730124668
             103.94869   0.068842606114048
             29.210155    0.23218442062076
              9.286663    0.46794134155879
              3.163927    0.36231203217765
 s    3 1.00
             7.8682724   -0.11933240861517
             1.8812885   -0.16085421161283
             0.5442493     1.1434564825515
 s    1 1.00
             0.1687144                   1
 p    3 1.00
             7.8682724   0.068999095584993
             1.8812885    0.31642397975315
             0.5442493    0.74430825237435
 p    1 1.00
             0.1687144                   1
 d    1 1.00
                   0.8                   1

22 0
 s    3 1.00
             18.731137    0.03349459952309
             2.8253937    0.23472694665786
             0.6401217    0.81375731841339
 s    1 1.00
             0.1612778                   1

23 0
 s    3 1.00
             18.731137    0.03349459952309
             2.8253937    0.23472694665786
             0.6401217    0.81375731841339
 s    1 1.00
             0.1612778                   1

24 0
 s    3 1.00
             18.731137    0.03349459952309
             2.8253937    0.23472694665786
             0.6401217    0.81375731841339
 s    1 1.00
             0.1612778                   1

25 0
 s    3 1.00
             18.731137    0.03349459952309
             2.8253937    0.23472694665786
             0.6401217    0.81375731841339
 s    1 1.00
             0.1612778                   1

26 0
 s    3 1.00
             18.731137    0.03349459952309
             2.8253937    0.23472694665786
             0.6401217    0.81375731841339
 s    1 1.00
             0.1612778                   1

27 0
 s    3 1.00
             18.731137    0.03349459952309
             2.8253937    0.23472694665786
             0.6401217    0.81375731841339
 s    1 1.00
             0.1612778                   1

28 0
 s    3 1.00
             18.731137    0.03349459952309
             2.8253937    0.23472694665786
             0.6401217    0.81375731841339
 s    1 1.00
             0.1612778                   1

29 0
 s    3 1.00
             18.731137    0.03349459952309
             2.8253937    0.23472694665786
             0.6401217    0.81375731841339
 s    1 1.00
             0.1612778                   1

30 0
 s    3 1.00
             18.731137    0.03349459952309
             2.8253937    0.23472694665786
             0.6401217    0.81375731841339
 s    1 1.00
             0.1612778                   1

31 0
 s    3 1.00
             18.731137    0.03349459952309
             2.8253937    0.23472694665786
             0.6401217    0.81375731841339
 s    1 1.00
             0.1612778                   1

32 0
 s    3 1.00
             18.731137    0.03349459952309
             2.8253937    0.23472694665786
             0.6401217    0.81375731841339
 s    1 1.00
             0.1612778                   1

33 0
 s    6 1.00
             3047.5249  0.0018347001629433
             457.36951    0.01403730124668
             103.94869   0.068842606114048
             29.210155    0.23218442062076
              9.286663    0.46794134155879
              3.163927    0.36231203217765
 s    3 1.00
             7.8682724   -0.11933240861517
             1.8812885   -0.16085421161283
             0.5442493     1.1434564825515
 s    1 1.00
             0.1687144                   1
 p    3 1.00
             7.8682724   0.068999095584993
             1.8812885    0.31642397975315
             0.5442493    0.74430825237435
 p    1 1.00
             0.1687144                   1
 d    1 1.00
                   0.8                   1

34 0
 s    6 1.00
             3047.5249  0.0018347001629433
             457.36951    0.01403730124668
             103.94869   0.068842606114048
             29.210155    0.23218442062076
              9.286663    0.46794134155879
              3.163927    0.36231203217765
 s    3 1.00
             7.8682724   -0.11933240861517
             1.8812885   -0.16085421161283
             0.5442493     1.1434564825515
 s    1 1.00
             0.1687144                   1
 p    3 1.00
             7.8682724   0.068999095584993
             1.8812885    0.31642397975315
             0.5442493    0.74430825237435
 p    1 1.00
             0.1687144                   1
 d    1 1.00
                   0.8                   1

35 0
 s    3 1.00
             18.731137    0.03349459952309
             2.8253937    0.23472694665786
             0.6401217    0.81375731841339
 s    1 1.00
             0.1612778                   1

36 0
 s    6 1.00
             3047.5249  0.0018347001629433
             457.36951    0.01403730124668
             103.94869   0.068842606114048
             29.210155    0.23218442062076
              9.286663    0.46794134155879
              3.163927    0.36231203217765
 s    3 1.00
             7.8682724   -0.11933240861517
             1.8812885   -0.16085421161283
             0.5442493     1.1434564825515
 s    1 1.00
             0.1687144                   1
 p    3 1.00
             7.8682724   0.068999095584993
             1.8812885    0.31642397975315
             0.5442493    0.74430825237435
 p    1 1.00
             0.1687144                   1
 d    1 1.00
                   0.8                   1

37 0
 s    3 1.00
             18.731137    0.03349459952309
             2.8253937    0.23472694665786
             0.6401217    0.81375731841339
 s    1 1.00
             0.1612778                   1

38 0
 s    3 1.00
             18.731137    0.03349459952309
             2.8253937    0.23472694665786
             0.6401217    0.81375731841339
 s    1 1.00
             0.1612778                   1

39 0
 s    6 1.00
             3047.5249  0.0018347001629433
             457.36951    0.01403730124668
             103.94869   0.068842606114048
             29.210155    0.23218442062076
              9.286663    0.46794134155879
              3.163927    0.36231203217765
 s    3 1.00
             7.8682724   -0.11933240861517
             1.8812885   -0.16085421161283
             0.5442493     1.1434564825515
 s    1 1.00
             0.1687144                   1
 p    3 1.00
             7.8682724   0.068999095584993
             1.8812885    0.31642397975315
             0.5442493    0.74430825237435
 p    1 1.00
             0.1687144                   1
 d    1 1.00
                   0.8                   1

40 0
 s    6 1.00
             3047.5249  0.0018347001629433
             457.36951    0.01403730124668
             103.94869   0.068842606114048
             29.210155    0.23218442062076
              9.286663    0.46794134155879
              3.163927    0.36231203217765
 s    3 1.00
             7.8682724   -0.11933240861517
             1.8812885   -0.16085421161283
             0.5442493     1.1434564825515
 s    1 1.00
             0.1687144                   1
 p    3 1.00
             7.8682724   0.068999095584993
             1.8812885    0.31642397975315
             0.5442493    0.74430825237435
 p    1 1.00
             0.1687144                   1
 d    1 1.00
                   0.8                   1

41 0
 s    3 1.00
             18.731137    0.03349459952309
             2.8253937    0.23472694665786
             0.6401217    0.81375731841339
 s    1 1.00
             0.1612778                   1

42 0
 s    6 1.00
             5484.6717   0.001831099805527
             825.23495   0.013950098518422
             188.04696    0.06844509273075
               52.9645    0.23271427528445
              16.89757    0.47019295006289
             5.7996353    0.35852086192309
 s    3 1.00
             15.539616   -0.11077750382508
             3.5999336   -0.14802630511126
             1.0137618     1.1307670390447
 s    1 1.00
             0.2700058                   1
 p    3 1.00
             15.539616   0.070874299543311
             3.5999336    0.33975279781076
             1.0137618    0.72715859531445
 p    1 1.00
             0.2700058                   1
 d    1 1.00
                   0.8                   1

43 0
 s    3 1.00
             18.731137    0.03349459952309
             2.8253937    0.23472694665786
             0.6401217    0.81375731841339
 s    1 1.00
             0.1612778                   1

[5d]
[7f]
[9g]

[MO]
 Sym= A
 Ene=               0
 Spin= Alpha
 Occup=    1.00000
   1    8.5276489922511e-07
   2    1.9230387289307e-05
   3    -6.6967212822099e-05
   4    6.1723905871841e-06
   5    -6.376365083505e-06
   6    -1.4907543426424e-05
   7    1.5638486746366e-06
   8    -5.3246117307784e-05
   9    0.00033476281534788
  10    3.9667660152786e-07
  11    -1.0913059898007e-05
  12    -3.0897969862201e-06
  13    -1.3258228980594e-05
  14    7.1280707627528e-06
  15    1.1878471545679e-05
  16    -2.3000411886831e-05
  17    -7.6783149118955e-06
  18    -0.00015260657667964
  19    -0.00044818807311321
  20    -4.9369616637157e-05
  21    1.0827295017381e-05
  22    6.8601007874808e-05
  23    -0.00014689928857018
  24    6.9778996184828e-05
  25    0.00064148676857247
  26    -2.2529312622841e-05
  27    2.2326304124767e-05
  28    -5.8408929548968e-06
  29    -4.2003441098054e-05
  30    9.4796774472651e-06
  31    9.6262681373859e-06
  32    -2.1694161823126e-05
  33    -5.3022608975444e-05
  34    -0.00034877135395412
  35     0.004294762339448
  36    7.4481991586877e-05
  37    -1.6907825261217e-05
  38    -0.0001347670102754
  39    0.00022897961652311
  40    -0.0018696395452397
  41    -0.00063213347584991
  42    3.8838403184649e-05
  43    -9.6808927258604e-05
  44    7.7331481060417e-05
  45    -3.6906220596383e-05
  46    -3.4461048423345e-05
  47    1.3298364638572e-05
  48    0.00027101958444566
  49    -4.8450910308395e-05
  50    -0.00019654480848837
  51    -0.003481165186162
  52    -0.00016081627539713
  53    0.00021294519595823
  54    0.00029299991404545
  55    0.0012861367611328
  56    -0.0025060440336247
  57    -0.0024200183202199
  58    2.8688488211519e-06
  59    -4.4954211311805e-05
  60    -0.00018670113487444
  61    -1.508265054662e-05
  62    0.00011700162155352
  63    -0.00030043124493112
  64    -7.5743607279821e-05
  65    2.2240052583111e-07
  66    3.3630577802854e-07
  67    3.8369036460663e-08
  68    5.1766387578489e-07
  69    -2.871277522977e-06
  70    -2.1444914454251e-07
  71    2.9987281238106e-07
  72    -8.5069371402956e-08
  73    -1.7574735553661e-07
  74    -1.5996637438786e-06
  75    -1.9251431304007e-07
  76    5.0975329832512e-08
  77    1.1585582447356e-07
  78    -4.7483769725378e-08
  79    -7.4951343829625e-08
  80    9.4179372795614e-08
  81    -7.2497888686136e-08
  82    -1.8032660413035e-07
  83    -2.2047970167097e-08
  84    1.1912355922397e-07
  85    1.1587904981342e-05
  86    -5.3566635993944e-07
  87    -1.1613381581713e-07
  88    -7.8758623151944e-07
  89    -3.1305491026757e-06
  90    4.5146755397306e-06
  91    -2.638185156693e-06
  92    -1.5650944947854e-07
  93    2.5137306220977e-07
  94    -3.0840455372006e-07
  95    -2.7098939186145e-08
  96    1.3754596013516e-07
  97    -6.038682714162e-07
  98    -8.7194135609144e-07
  99    7.4228509091673e-08
 100    1.0934858616193e-06
 101    9.0557323735472e-08
 102    1.0528779617321e-06
 103    -1.48061817234e-05
 104    -6.6938771113361e-08
 105    9.0625140039668e-07
 106    4.7605324585377e-07
 107    1.7702876376441e-05
 108    -1.5666893335041e-05
 109    -2.5672314498462e-05
 110    5.4114466699546e-07
 111    4.7502611841882e-07
 112    -2.1334346491095e-07
 113    -4.4044102458308e-07
 114    4.4397957664014e-07
 115    4.6137576073418e-07
 116    4.3255995475405e-06
 117    -3.3540753235626e-05
 118    5.9416311490253e-07
 119    -9.8869295695351e-07
 120    -7.6759632445694e-07
 121    7.0830464044339e-06
 122    -1.5795797581126e-07
 123    -1.2309300520403e-06
 124    4.9302507176502e-08
 125    1.4182335402967e-07
 126    1.6083991955007e-07
 127    -3.1333875334167e-08
 128    2.8694866800889e-07
 129    8.7374600609336e-07
 130    8.1052292051638e-06
 131    -4.1875673871395e-05
 132    -8.8312552506537e-08
 133    6.3112523935404e-07
 134    -3.3048595431492e-06
 135    2.2736721844409e-05
 136    -3.1738229029238e-06
 137    6.9449782735929e-05
 138    -2.1735395841649e-06
 139    -1.3037342825387e-06
 140    -2.1155770532191e-07
 141    -3.6844021252249e-07
 142    -9.7752457199074e-08
 143    2.9308845923321e-07
 144    2.8758212377983e-06
 145    -1.4198411231352e-05
 146    -2.7244292671258e-07
 147    -6.6992925708122e-07
 148    -2.977274526177e-07
 149    -9.131184481774e-06
 150    7.4841857159987e-06
 151    1.0872298890593e-06
 152    9.4451279372644e-07
 153    3.0319222989304e-07
 154    5.6519563894008e-08
 155    -6.4763253404427e-07
 156    5.7892065684273e-07
 157    -7.3481361378832e-08
 158    -6.3362028339384e-07
 159    -2.1738307466696e-06
 160    -7.0086901289572e-07
 161    1.7752845615518e-07
 162    -3.4921008116879e-08
 163    5.0810974166381e-06
 164    4.9187493261321e-07
 165    -6.8141725741712e-07
 166    -3.3593010751526e-07
 167    7.4113109463262e-08
 168    4.6451829232226e-09
 169    1.1520625945046e-07
 170    -2.0716027005141e-07
 171    -2.9209624204262e-08
 172    3.5720605997949e-07
 173    2.1035152281074e-06
 174    6.3072346672152e-07
 175    1.2383931527125e-07
 176    -6.9590108545881e-07
 177    5.8381862412684e-07
 178    -1.1235497917547e-06
 179    2.0004618064469e-06
 180    -1.5654361753244e-07
 181    -1.7217674536464e-07
 182    1.5508867536109e-08
 183    3.6214029847688e-07
 184    -1.4231604076566e-07
 185    2.6863497350817e-07
 186    2.6725731793658e-06
 187    -2.0904677626181e-06
 188    2.1928303588509e-07
 189    -1.1431273196316e-07
 190    -9.6913199250372e-07
 191    -2.2145333892928e-06
 192    -1.2329502789492e-06
 193    5.3493782588354e-06
 194    -3.3645689164993e-07
 195    4.3208063261237e-08
 196    -8.9113371461869e-08
 197    -5.9195102726446e-08
 198    8.0589915623794e-08
 199    6.9530382289875e-07
 200    1.3305091907367e-06
 201    -6.619856373922e-08
 202    -2.9791379988755e-06
 203    1.614025951037e-06
 204    1.9522059778872e-06
 205    3.3384351425376e-07
 206    2.152876252497e-06
 207    -1.512778301342e-06
 208    1.3184995180302e-05
 209    -8.9150789114246e-07
 210    3.7798630213309e-06
 211    -3.1832609798575e-07
 212    -2.5073362237126e-06
 213    1.9037107969539e-07
 214    1.8974291445995e-06
 215    4.329941271794e-07
 216    -2.2718244713833e-07
 217    -2.9414294658272e-07
 218    -8.6707792095355e-07
 219    -2.030020934576e-07
 220    -1.0724287035351e-06
 221    6.2958447206308e-07
 222    7.6600842114814e-06
 223    2.994177121778e-06
 224    2.0382449698733e-07
 225    2.6248089459039e-08
 226    -3.2364399297121e-06
 227    -1.5482277260116e-05
 228    -2.336821032814e-05
 229    7.8943418467622e-05
 230    1.0726109840892e-06
 231    3.4359809440444e-06
 232    1.8536877221065e-06
 233    -1.5790954054748e-06
 234    -2.6397724704071e-06
 235    1.2345930637107e-06
 236    1.1676789295575e-05
 237    -4.3124447170338e-05
 238    9.8918462113912e-07
 239    -3.131220965596e-06
 240    -2.7893012214403e-06
 241    2.2158353997619e-05
 242    9.9521108494745e-06
 243    9.5641587725516e-05
 244    -2.612732742806e-06
 245    -6.440211294231e-06
 246    -2.2819376839491e-06
 247    -2.4120816604668e-06
 248    -2.0384736427947e-06
 249    3.0469226461603e-06
 250    -1.1215294448037e-05
 251    1.2141471692039e-06
 252    2.4077275006364e-05
 253    -0.0001784524645874
 254    -4.1880573407924e-06
 255    1.1590203082487e-05
 256    -7.4803355428218e-06
 257    -7.958584209938e-05
 258    -0.00010275277136685
 259    0.00021419512075213
 260    -6.5015533184241e-07
 261    1.073303125728e-05
 262    5.8965482782837e-06
 263    -6.1421442484824e-06
 264    -6.841095406212e-06
 265    4.3718160228097e-06
 266    -2.5938043597962e-05
 267    7.904934275043e-06
 268    -3.5774484932609e-05
 269    8.5323641749211e-06
 270      4.7280737319e-05
 271    -0.0030827815034618
 272    2.0320337459814e-05
 273    0.00019296598603247
 274    -1.5534558613734e-05
 275    -0.0019859619422173
 276    -0.00058127994165632
 277     0.003272075470773
 278    -0.0002434155062744
 279    0.00019235211646773