[Molden Format]
made by pyscf v[2.0.1]
[Atoms] (AU)
C   1   6     0.69100024066471     0.64692934207205    -3.48223131169301
H   2   1     2.68052439830868     1.13355088658700    -3.25784032593313
C   3   6    -0.36286361513219     0.85440132524594    -5.97030179418974
H   4   1    -2.35448549047279     0.36322488579172    -6.17995817793143
C   5   6     0.93697958957450     1.61209284601821    -8.05828437677121
H   6   1     1.11826626333964     3.62551264984471    -8.45099117670825
C   7   6     2.10097243920823    -0.10888483292738    -9.80174075747215
H   8   1     1.90436861547379    -2.12023320363586    -9.38275759847606
H   9   1     1.55630230933075    -1.92953025305990    12.99630010416247
C   10   6     0.75233899775814    -2.21270439606481    11.10705728102219
H   11   1    -0.43433408177274    -3.90944857546550    11.22216085340412
C   12   6     2.86362581178706    -2.63237380607947     9.17926416456045
H   13   1     4.39038949912609    -1.24955421540245     9.49899813497433
H   14   1     3.74629220191363    -4.48798724300892     9.47414880959024
C   15   6     2.02478325613682    -2.42177285709634     6.44560829588644
C   16   6     3.88048732735477    -3.58795445234514     4.61402886975252
C   17   6    -0.18412382258602    -1.30464291234259     5.76021113872346
C   18   6    -2.10044360464350    -0.26837831858460     7.71610340967100
C   19   6    -3.08956938670431     2.35282328359417     6.88693925039594
C   20   6    -4.37372924086464    -2.09766595989678     7.93610724222001
C   21   6    -0.83850430601230     0.06372213486173    10.33002307638377
H   22   1     0.38411922151109     1.74281358582432    10.27380136542181
H   23   1    -2.30980003007874     0.45460143924521    11.73986301809809
H   24   1     4.58527064644668    -5.38706904487420     5.36778158031719
H   25   1     5.54944938085014    -2.37631462192748     4.35398898413318
H   26   1     3.06633019150423    -3.94118377050688     2.75255466040884
H   27   1    -4.17727778763735     2.26573369139522     5.12914900961283
H   28   1    -1.52662344944051     3.68001877445626     6.59540397144508
H   29   1    -4.32916174397830     3.13643051467482     8.35225460090378
H   30   1    -5.32329548508442    -2.36691813602939     6.11583672749896
H   31   1    -5.77989366602257    -1.33896741843465     9.25748940450990
H   32   1    -3.79310905208926    -3.96389819310853     8.61386170102686
C   33   6    -1.01100794811226    -1.06331657314144     3.11929490449947
C   34   6     0.37686231036534    -0.33275864505552     1.09165013605873
H   35   1    -3.01671213906703    -1.40297922279997     2.77827895090944
C   36   6    -0.64382707979370    -0.11591880174385    -1.42063131251064
H   37   1     2.35569259782137     0.17174499283897     1.33641070251401
H   38   1    -2.63317482980319    -0.60229203511219    -1.66119700387645
C   39   6     3.40965399787931     0.55809653308114   -11.90393532262733
C   40   6     4.52549279160481    -1.34135539088305   -13.56345596406470
H   41   1     3.67536210453709     2.52791097593625   -12.43024189111277
O   42   8     5.72170846290986    -0.87635365493868   -15.48013684009233
H   43   1     4.20717735374393    -3.33265649371778   -12.95224886476863
[GTO]
1 0
 s    6 1.00
             3047.5249  0.0018347001629433
             457.36951    0.01403730124668
             103.94869   0.068842606114048
             29.210155    0.23218442062076
              9.286663    0.46794134155879
              3.163927    0.36231203217765
 s    3 1.00
             7.8682724   -0.11933240861517
             1.8812885   -0.16085421161283
             0.5442493     1.1434564825515
 s    1 1.00
             0.1687144                   1
 p    3 1.00
             7.8682724   0.068999095584993
             1.8812885    0.31642397975315
             0.5442493    0.74430825237435
 p    1 1.00
             0.1687144                   1
 d    1 1.00
                   0.8                   1

2 0
 s    3 1.00
             18.731137    0.03349459952309
             2.8253937    0.23472694665786
             0.6401217    0.81375731841339
 s    1 1.00
             0.1612778                   1

3 0
 s    6 1.00
             3047.5249  0.0018347001629433
             457.36951    0.01403730124668
             103.94869   0.068842606114048
             29.210155    0.23218442062076
              9.286663    0.46794134155879
              3.163927    0.36231203217765
 s    3 1.00
             7.8682724   -0.11933240861517
             1.8812885   -0.16085421161283
             0.5442493     1.1434564825515
 s    1 1.00
             0.1687144                   1
 p    3 1.00
             7.8682724   0.068999095584993
             1.8812885    0.31642397975315
             0.5442493    0.74430825237435
 p    1 1.00
             0.1687144                   1
 d    1 1.00
                   0.8                   1

4 0
 s    3 1.00
             18.731137    0.03349459952309
             2.8253937    0.23472694665786
             0.6401217    0.81375731841339
 s    1 1.00
             0.1612778                   1

5 0
 s    6 1.00
             3047.5249  0.0018347001629433
             457.36951    0.01403730124668
             103.94869   0.068842606114048
             29.210155    0.23218442062076
              9.286663    0.46794134155879
              3.163927    0.36231203217765
 s    3 1.00
             7.8682724   -0.11933240861517
             1.8812885   -0.16085421161283
             0.5442493     1.1434564825515
 s    1 1.00
             0.1687144                   1
 p    3 1.00
             7.8682724   0.068999095584993
             1.8812885    0.31642397975315
             0.5442493    0.74430825237435
 p    1 1.00
             0.1687144                   1
 d    1 1.00
                   0.8                   1

6 0
 s    3 1.00
             18.731137    0.03349459952309
             2.8253937    0.23472694665786
             0.6401217    0.81375731841339
 s    1 1.00
             0.1612778                   1

7 0
 s    6 1.00
             3047.5249  0.0018347001629433
             457.36951    0.01403730124668
             103.94869   0.068842606114048
             29.210155    0.23218442062076
              9.286663    0.46794134155879
              3.163927    0.36231203217765
 s    3 1.00
             7.8682724   -0.11933240861517
             1.8812885   -0.16085421161283
             0.5442493     1.1434564825515
 s    1 1.00
             0.1687144                   1
 p    3 1.00
             7.8682724   0.068999095584993
             1.8812885    0.31642397975315
             0.5442493    0.74430825237435
 p    1 1.00
             0.1687144                   1
 d    1 1.00
                   0.8                   1

8 0
 s    3 1.00
             18.731137    0.03349459952309
             2.8253937    0.23472694665786
             0.6401217    0.81375731841339
 s    1 1.00
             0.1612778                   1

9 0
 s    3 1.00
             18.731137    0.03349459952309
             2.8253937    0.23472694665786
             0.6401217    0.81375731841339
 s    1 1.00
             0.1612778                   1

10 0
 s    6 1.00
             3047.5249  0.0018347001629433
             457.36951    0.01403730124668
             103.94869   0.068842606114048
             29.210155    0.23218442062076
              9.286663    0.46794134155879
              3.163927    0.36231203217765
 s    3 1.00
             7.8682724   -0.11933240861517
             1.8812885   -0.16085421161283
             0.5442493     1.1434564825515
 s    1 1.00
             0.1687144                   1
 p    3 1.00
             7.8682724   0.068999095584993
             1.8812885    0.31642397975315
             0.5442493    0.74430825237435
 p    1 1.00
             0.1687144                   1
 d    1 1.00
                   0.8                   1

11 0
 s    3 1.00
             18.731137    0.03349459952309
             2.8253937    0.23472694665786
             0.6401217    0.81375731841339
 s    1 1.00
             0.1612778                   1

12 0
 s    6 1.00
             3047.5249  0.0018347001629433
             457.36951    0.01403730124668
             103.94869   0.068842606114048
             29.210155    0.23218442062076
              9.286663    0.46794134155879
              3.163927    0.36231203217765
 s    3 1.00
             7.8682724   -0.11933240861517
             1.8812885   -0.16085421161283
             0.5442493     1.1434564825515
 s    1 1.00
             0.1687144                   1
 p    3 1.00
             7.8682724   0.068999095584993
             1.8812885    0.31642397975315
             0.5442493    0.74430825237435
 p    1 1.00
             0.1687144                   1
 d    1 1.00
                   0.8                   1

13 0
 s    3 1.00
             18.731137    0.03349459952309
             2.8253937    0.23472694665786
             0.6401217    0.81375731841339
 s    1 1.00
             0.1612778                   1

14 0
 s    3 1.00
             18.731137    0.03349459952309
             2.8253937    0.23472694665786
             0.6401217    0.81375731841339
 s    1 1.00
             0.1612778                   1

15 0
 s    6 1.00
             3047.5249  0.0018347001629433
             457.36951    0.01403730124668
             103.94869   0.068842606114048
             29.210155    0.23218442062076
              9.286663    0.46794134155879
              3.163927    0.36231203217765
 s    3 1.00
             7.8682724   -0.11933240861517
             1.8812885   -0.16085421161283
             0.5442493     1.1434564825515
 s    1 1.00
             0.1687144                   1
 p    3 1.00
             7.8682724   0.068999095584993
             1.8812885    0.31642397975315
             0.5442493    0.74430825237435
 p    1 1.00
             0.1687144                   1
 d    1 1.00
                   0.8                   1

16 0
 s    6 1.00
             3047.5249  0.0018347001629433
             457.36951    0.01403730124668
             103.94869   0.068842606114048
             29.210155    0.23218442062076
              9.286663    0.46794134155879
              3.163927    0.36231203217765
 s    3 1.00
             7.8682724   -0.11933240861517
             1.8812885   -0.16085421161283
             0.5442493     1.1434564825515
 s    1 1.00
             0.1687144                   1
 p    3 1.00
             7.8682724   0.068999095584993
             1.8812885    0.31642397975315
             0.5442493    0.74430825237435
 p    1 1.00
             0.1687144                   1
 d    1 1.00
                   0.8                   1

17 0
 s    6 1.00
             3047.5249  0.0018347001629433
             457.36951    0.01403730124668
             103.94869   0.068842606114048
             29.210155    0.23218442062076
              9.286663    0.46794134155879
              3.163927    0.36231203217765
 s    3 1.00
             7.8682724   -0.11933240861517
             1.8812885   -0.16085421161283
             0.5442493     1.1434564825515
 s    1 1.00
             0.1687144                   1
 p    3 1.00
             7.8682724   0.068999095584993
             1.8812885    0.31642397975315
             0.5442493    0.74430825237435
 p    1 1.00
             0.1687144                   1
 d    1 1.00
                   0.8                   1

18 0
 s    6 1.00
             3047.5249  0.0018347001629433
             457.36951    0.01403730124668
             103.94869   0.068842606114048
             29.210155    0.23218442062076
              9.286663    0.46794134155879
              3.163927    0.36231203217765
 s    3 1.00
             7.8682724   -0.11933240861517
             1.8812885   -0.16085421161283
             0.5442493     1.1434564825515
 s    1 1.00
             0.1687144                   1
 p    3 1.00
             7.8682724   0.068999095584993
             1.8812885    0.31642397975315
             0.5442493    0.74430825237435
 p    1 1.00
             0.1687144                   1
 d    1 1.00
                   0.8                   1

19 0
 s    6 1.00
             3047.5249  0.0018347001629433
             457.36951    0.01403730124668
             103.94869   0.068842606114048
             29.210155    0.23218442062076
              9.286663    0.46794134155879
              3.163927    0.36231203217765
 s    3 1.00
             7.8682724   -0.11933240861517
             1.8812885   -0.16085421161283
             0.5442493     1.1434564825515
 s    1 1.00
             0.1687144                   1
 p    3 1.00
             7.8682724   0.068999095584993
             1.8812885    0.31642397975315
             0.5442493    0.74430825237435
 p    1 1.00
             0.1687144                   1
 d    1 1.00
                   0.8                   1

20 0
 s    6 1.00
             3047.5249  0.0018347001629433
             457.36951    0.01403730124668
             103.94869   0.068842606114048
             29.210155    0.23218442062076
              9.286663    0.46794134155879
              3.163927    0.36231203217765
 s    3 1.00
             7.8682724   -0.11933240861517
             1.8812885   -0.16085421161283
             0.5442493     1.1434564825515
 s    1 1.00
             0.1687144                   1
 p    3 1.00
             7.8682724   0.068999095584993
             1.8812885    0.31642397975315
             0.5442493    0.74430825237435
 p    1 1.00
             0.1687144                   1
 d    1 1.00
                   0.8                   1

21 0
 s    6 1.00
             3047.5249  0.0018347001629433
             457.36951    0.01403730124668
             103.94869   0.068842606114048
             29.210155    0.23218442062076
              9.286663    0.46794134155879
              3.163927    0.36231203217765
 s    3 1.00
             7.8682724   -0.11933240861517
             1.8812885   -0.16085421161283
             0.5442493     1.1434564825515
 s    1 1.00
             0.1687144                   1
 p    3 1.00
             7.8682724   0.068999095584993
             1.8812885    0.31642397975315
             0.5442493    0.74430825237435
 p    1 1.00
             0.1687144                   1
 d    1 1.00
                   0.8                   1

22 0
 s    3 1.00
             18.731137    0.03349459952309
             2.8253937    0.23472694665786
             0.6401217    0.81375731841339
 s    1 1.00
             0.1612778                   1

23 0
 s    3 1.00
             18.731137    0.03349459952309
             2.8253937    0.23472694665786
             0.6401217    0.81375731841339
 s    1 1.00
             0.1612778                   1

24 0
 s    3 1.00
             18.731137    0.03349459952309
             2.8253937    0.23472694665786
             0.6401217    0.81375731841339
 s    1 1.00
             0.1612778                   1

25 0
 s    3 1.00
             18.731137    0.03349459952309
             2.8253937    0.23472694665786
             0.6401217    0.81375731841339
 s    1 1.00
             0.1612778                   1

26 0
 s    3 1.00
             18.731137    0.03349459952309
             2.8253937    0.23472694665786
             0.6401217    0.81375731841339
 s    1 1.00
             0.1612778                   1

27 0
 s    3 1.00
             18.731137    0.03349459952309
             2.8253937    0.23472694665786
             0.6401217    0.81375731841339
 s    1 1.00
             0.1612778                   1

28 0
 s    3 1.00
             18.731137    0.03349459952309
             2.8253937    0.23472694665786
             0.6401217    0.81375731841339
 s    1 1.00
             0.1612778                   1

29 0
 s    3 1.00
             18.731137    0.03349459952309
             2.8253937    0.23472694665786
             0.6401217    0.81375731841339
 s    1 1.00
             0.1612778                   1

30 0
 s    3 1.00
             18.731137    0.03349459952309
             2.8253937    0.23472694665786
             0.6401217    0.81375731841339
 s    1 1.00
             0.1612778                   1

31 0
 s    3 1.00
             18.731137    0.03349459952309
             2.8253937    0.23472694665786
             0.6401217    0.81375731841339
 s    1 1.00
             0.1612778                   1

32 0
 s    3 1.00
             18.731137    0.03349459952309
             2.8253937    0.23472694665786
             0.6401217    0.81375731841339
 s    1 1.00
             0.1612778                   1

33 0
 s    6 1.00
             3047.5249  0.0018347001629433
             457.36951    0.01403730124668
             103.94869   0.068842606114048
             29.210155    0.23218442062076
              9.286663    0.46794134155879
              3.163927    0.36231203217765
 s    3 1.00
             7.8682724   -0.11933240861517
             1.8812885   -0.16085421161283
             0.5442493     1.1434564825515
 s    1 1.00
             0.1687144                   1
 p    3 1.00
             7.8682724   0.068999095584993
             1.8812885    0.31642397975315
             0.5442493    0.74430825237435
 p    1 1.00
             0.1687144                   1
 d    1 1.00
                   0.8                   1

34 0
 s    6 1.00
             3047.5249  0.0018347001629433
             457.36951    0.01403730124668
             103.94869   0.068842606114048
             29.210155    0.23218442062076
              9.286663    0.46794134155879
              3.163927    0.36231203217765
 s    3 1.00
             7.8682724   -0.11933240861517
             1.8812885   -0.16085421161283
             0.5442493     1.1434564825515
 s    1 1.00
             0.1687144                   1
 p    3 1.00
             7.8682724   0.068999095584993
             1.8812885    0.31642397975315
             0.5442493    0.74430825237435
 p    1 1.00
             0.1687144                   1
 d    1 1.00
                   0.8                   1

35 0
 s    3 1.00
             18.731137    0.03349459952309
             2.8253937    0.23472694665786
             0.6401217    0.81375731841339
 s    1 1.00
             0.1612778                   1

36 0
 s    6 1.00
             3047.5249  0.0018347001629433
             457.36951    0.01403730124668
             103.94869   0.068842606114048
             29.210155    0.23218442062076
              9.286663    0.46794134155879
              3.163927    0.36231203217765
 s    3 1.00
             7.8682724   -0.11933240861517
             1.8812885   -0.16085421161283
             0.5442493     1.1434564825515
 s    1 1.00
             0.1687144                   1
 p    3 1.00
             7.8682724   0.068999095584993
             1.8812885    0.31642397975315
             0.5442493    0.74430825237435
 p    1 1.00
             0.1687144                   1
 d    1 1.00
                   0.8                   1

37 0
 s    3 1.00
             18.731137    0.03349459952309
             2.8253937    0.23472694665786
             0.6401217    0.81375731841339
 s    1 1.00
             0.1612778                   1

38 0
 s    3 1.00
             18.731137    0.03349459952309
             2.8253937    0.23472694665786
             0.6401217    0.81375731841339
 s    1 1.00
             0.1612778                   1

39 0
 s    6 1.00
             3047.5249  0.0018347001629433
             457.36951    0.01403730124668
             103.94869   0.068842606114048
             29.210155    0.23218442062076
              9.286663    0.46794134155879
              3.163927    0.36231203217765
 s    3 1.00
             7.8682724   -0.11933240861517
             1.8812885   -0.16085421161283
             0.5442493     1.1434564825515
 s    1 1.00
             0.1687144                   1
 p    3 1.00
             7.8682724   0.068999095584993
             1.8812885    0.31642397975315
             0.5442493    0.74430825237435
 p    1 1.00
             0.1687144                   1
 d    1 1.00
                   0.8                   1

40 0
 s    6 1.00
             3047.5249  0.0018347001629433
             457.36951    0.01403730124668
             103.94869   0.068842606114048
             29.210155    0.23218442062076
              9.286663    0.46794134155879
              3.163927    0.36231203217765
 s    3 1.00
             7.8682724   -0.11933240861517
             1.8812885   -0.16085421161283
             0.5442493     1.1434564825515
 s    1 1.00
             0.1687144                   1
 p    3 1.00
             7.8682724   0.068999095584993
             1.8812885    0.31642397975315
             0.5442493    0.74430825237435
 p    1 1.00
             0.1687144                   1
 d    1 1.00
                   0.8                   1

41 0
 s    3 1.00
             18.731137    0.03349459952309
             2.8253937    0.23472694665786
             0.6401217    0.81375731841339
 s    1 1.00
             0.1612778                   1

42 0
 s    6 1.00
             5484.6717   0.001831099805527
             825.23495   0.013950098518422
             188.04696    0.06844509273075
               52.9645    0.23271427528445
              16.89757    0.47019295006289
             5.7996353    0.35852086192309
 s    3 1.00
             15.539616   -0.11077750382508
             3.5999336   -0.14802630511126
             1.0137618     1.1307670390447
 s    1 1.00
             0.2700058                   1
 p    3 1.00
             15.539616   0.070874299543311
             3.5999336    0.33975279781076
             1.0137618    0.72715859531445
 p    1 1.00
             0.2700058                   1
 d    1 1.00
                   0.8                   1

43 0
 s    3 1.00
             18.731137    0.03349459952309
             2.8253937    0.23472694665786
             0.6401217    0.81375731841339
 s    1 1.00
             0.1612778                   1

[5d]
[7f]
[9g]

[MO]
 Sym= A
 Ene=               0
 Spin= Alpha
 Occup=    1.00000
   1    -6.2711346094008e-07
   2    -1.7506100188802e-05
   3    3.3904306035226e-05
   4    -5.860106647352e-06
   5    1.2880054093455e-06
   6    1.5142172077519e-05
   7    1.6236039346416e-05
   8    8.1584838140693e-05
   9    -0.00036063664222695
  10    2.672934066165e-08
  11    1.1182597432598e-05
  12    2.4823211606522e-06
  13    1.3696777620797e-05
  14    -7.4249340407899e-06
  15    -1.2953132192788e-05
  16    1.9339719914347e-05
  17    8.1815435986307e-06
  18    0.00015793516213136
  19    0.00042119758334243
  20    5.1812909176501e-05
  21    -9.1531432451901e-06
  22    -6.84373661172e-05
  23    0.00015538897678487
  24    -8.5816874301194e-05
  25    -0.00061732332070371
  26    2.1725814192119e-05
  27    -2.2792701870743e-05
  28    8.8804248410783e-06
  29    4.1900385351138e-05
  30    -5.0675809081768e-06
  31    -1.0334835321688e-05
  32    2.6791580951049e-05
  33    5.3241642339201e-05
  34    0.00035219001997505
  35    -0.0042866542769075
  36    -7.8785130719484e-05
  37    1.6522029051104e-05
  38    0.00013377798632922
  39    -0.0003856438260589
  40      0.00187703078717
  41    0.00054821493327514
  42    -2.8967370592487e-05
  43    0.00010240499775433
  44    -7.0029208324958e-05
  45    3.1756456150577e-05
  46    4.6383434171338e-05
  47    -1.3871650568908e-05
  48    -0.00027122756256177
  49    4.8414828563212e-05
  50    0.00019626594334504
  51     0.003483613712014
  52    0.00018384538127144
  53    -0.00021331297867215
  54    -0.000279084583734
  55    -0.0015292638001799
  56     0.002511574858368
  57    0.0022806170489148
  58    -1.5114778258127e-05
  59    3.7650691730391e-05
  60    0.00018698724930653
  61    2.2132590570964e-05
  62    -0.00011719747797615
  63    0.00030019781709655
  64    7.5640571760659e-05
  65    -2.2011893240872e-07
  66    -3.0353537474466e-07
  67    -4.0644766671498e-08
  68    -5.5558159905834e-07
  69    2.8519198573668e-06
  70    2.257931162123e-07
  71    -3.2330108536524e-07
  72    1.1207411199462e-07
  73    2.366363466161e-07
  74    1.6554021952148e-06
  75    1.0645605287397e-07
  76    -5.1064886150864e-08
  77    -1.1785225704079e-07
  78    4.8668494613812e-08
  79    7.4230900877576e-08
  80    -9.8633261351784e-08
  81    8.4477049980124e-08
  82    2.0558015022752e-07
  83    2.3551657125451e-08
  84    -1.4396816293998e-07
  85    -1.2664328813013e-05
  86    5.9671218912041e-07
  87    9.1561200490562e-08
  88    8.4631043765493e-07
  89    3.2866979931741e-06
  90    -4.7254762735449e-06
  91    2.9804865049296e-06
  92    1.6403994690128e-07
  93    -2.6832865424225e-07
  94    3.3984465750318e-07
  95    3.3329601181223e-08
  96    -1.4846601552959e-07
  97    6.539765894902e-07
  98    8.816785503395e-07
  99    -5.4895560080873e-08
 100    -1.1169969168374e-06
 101    -8.34869864089e-08
 102    -9.8165280815958e-07
 103    1.4896352335836e-05
 104    1.1344182573716e-07
 105    -9.5400303569407e-07
 106    -5.6922517764746e-07
 107    -1.8816949237676e-05
 108    1.7015570739228e-05
 109    2.8254218257886e-05
 110    -5.6276705453443e-07
 111    -4.9958859091947e-07
 112    2.1965889695904e-07
 113    3.8648533907729e-07
 114    -4.9017557675276e-07
 115    -4.7159662147515e-07
 116    -4.374957179986e-06
 117    3.4980939869524e-05
 118    -6.3361246483714e-07
 119    1.0088524313565e-06
 120    7.963652066237e-07
 121    -7.7326752644067e-06
 122    5.5700400366431e-07
 123    2.0917700479496e-06
 124    -5.9507675364629e-08
 125    -1.9410958440884e-07
 126    -1.5008409623064e-07
 127    7.0082914911341e-08
 128    -3.263757277676e-07
 129    -9.1912925519707e-07
 130    -8.3818684102339e-06
 131    4.6981523004551e-05
 132    1.6444313192073e-07
 133    -4.483962192555e-07
 134    3.3285779207106e-06
 135    -2.4419488342802e-05
 136    1.9537334827731e-06
 137    -7.5793344099259e-05
 138    2.3313529911166e-06
 139    1.4506170237829e-06
 140    2.4411939550887e-07
 141    3.9134629552724e-07
 142    9.7131866896678e-08
 143    -3.5292374532041e-07
 144    -3.4299528006227e-06
 145    1.6779159642608e-05
 146    2.4104092974956e-07
 147    5.8515942850573e-07
 148    4.0678978000664e-07
 149    1.0454450009875e-05
 150    -6.7180740824327e-06
 151    -2.2285323148191e-06
 152    -9.7931067076276e-07
 153    -3.4205437595415e-07
 154    -1.0109451319224e-07
 155    6.8227918892956e-07
 156    -6.7130923979486e-07
 157    9.4505634489106e-08
 158    7.8055771481544e-07
 159    1.1198646397329e-06
 160    7.1001439356968e-07
 161    -1.2976724341374e-07
 162    -2.9483138992522e-08
 163    -5.7639835841555e-06
 164    -4.5554282080017e-08
 165    7.7893421878911e-07
 166    4.0460749087076e-07
 167    -1.2651820122631e-07
 168     6.72848309654e-09
 169    -1.0918442444728e-07
 170    2.5630503474614e-07
 171    2.8359029098112e-08
 172    -3.8702454989555e-07
 173    -1.808615466275e-06
 174    -6.3910390796685e-07
 175    -1.4412938478151e-07
 176    7.4144796230652e-07
 177    -3.818169243792e-07
 178    1.4133475228923e-06
 179    -1.837716611948e-06
 180    1.4748324407864e-07
 181    2.0472196780726e-07
 182    8.5604629372723e-09
 183    -3.6687459697089e-07
 184    1.6881980802597e-07
 185    -2.8912378688759e-07
 186    -2.8841235058357e-06
 187    2.3195648186633e-06
 188    -2.3144570313188e-07
 189    1.2104341356469e-07
 190    1.0482710630723e-06
 191    2.2048749753263e-06
 192    9.5840773448476e-07
 193    -5.5641437833354e-06
 194    3.2889316456411e-07
 195    -3.3496887325767e-08
 196    1.4693103746134e-07
 197    6.9485079076913e-08
 198    -8.2745535495464e-08
 199    -7.2771425415356e-07
 200    -1.2608008714353e-06
 201    5.165969189448e-08
 202    3.1378223708657e-06
 203    -1.6519172118055e-06
 204    -1.9333029814028e-06
 205    -3.0057986707757e-07
 206    -2.2530925644232e-06
 207    1.3444231916115e-06
 208    -1.2308570147018e-05
 209    1.013133432213e-06
 210    -4.0245246532375e-06
 211    4.175463464615e-07
 212    2.7005357665157e-06
 213    -2.023919335278e-07
 214    -2.0463291459444e-06
 215    -4.8050748027055e-07
 216    5.6671010455793e-07
 217    2.9250686059772e-07
 218    8.3984885715357e-07
 219    2.4365301173989e-07
 220    1.0784701276835e-06
 221    -6.8811411794783e-07
 222    -8.1318280408649e-06
 223    -2.9491541371229e-06
 224    7.7201427587805e-08
 225    -3.4973839404419e-07
 226    3.5308160430322e-06
 227    1.4111613387795e-05
 228    2.5739283789449e-05
 229    -8.917245022286e-05
 230    -1.0416421217019e-06
 231    -3.8426553784611e-06
 232    -1.9578634994709e-06
 233    1.7327454766579e-06
 234    2.7411396721457e-06
 235    -1.0402698664334e-06
 236    -1.0580022388631e-05
 237    2.8333557729701e-05
 238    -9.4467137770997e-07
 239    3.1515156651695e-06
 240    3.1177176798751e-06
 241    -1.9951978742124e-05
 242    -8.3115371242029e-06
 243    -9.2299296701062e-05
 244    1.9909567867687e-06
 245    6.6701010520877e-06
 246    2.1429275953976e-06
 247    2.5275366778325e-06
 248    1.7163913018487e-06
 249    -3.6729184977597e-06
 250    1.0922075153664e-05
 251    -1.4120911393911e-06
 252    -2.667237732684e-05
 253    0.00022516975936198
 254    3.8241364726396e-06
 255    -1.0486961541352e-05
 256    6.9574837865625e-06
 257    9.8224741953717e-05
 258    0.00010149184851563
 259    -0.00022774228363783
 260    1.591360412314e-06
 261    -1.152026098264e-05
 262    -5.7320104415484e-06
 263    7.0350823931717e-06
 264    6.2677402053072e-06
 265    -4.3006420985373e-06
 266    2.6904268843647e-05
 267    -7.6866479418939e-06
 268    3.7498062684958e-05
 269    -8.5663964387956e-06
 270    -4.7831633327272e-05
 271     0.003088292253567
 272    -7.3413164907276e-06
 273    -0.00019308512363381
 274    2.3566253993225e-05
 275    0.0020272925650469
 276    0.00057836507765844
 277    -0.0032422062471129
 278    0.00022387010232948
 279    -0.00020377726031526
 280    0.00014693214226832