[Molden Format]
made by pyscf v[2.0.1]
[Atoms] (AU)
C   1   6     0.69100024066471     0.64692934207205    -3.48223131169301
H   2   1     2.68052439830868     1.13355088658700    -3.25784032593313
C   3   6    -0.36286361513219     0.85440132524594    -5.97030179418974
H   4   1    -2.35448549047279     0.36322488579172    -6.17995817793143
C   5   6     0.93697958957450     1.61209284601821    -8.05828437677121
H   6   1     0.88481995546627     3.59633991549139    -8.60690604548455
C   7   6     2.39466048338875    -0.07229584893402    -9.60563204708460
H   8   1     2.43004158789144    -2.05446799383120    -9.03164251308345
H   9   1     1.55630230933075    -1.92953025305990    12.99630010416247
C   10   6     0.75233899775814    -2.21270439606481    11.10705728102219
H   11   1    -0.43433408177274    -3.90944857546550    11.22216085340412
C   12   6     2.86362581178706    -2.63237380607947     9.17926416456045
H   13   1     4.39038949912609    -1.24955421540245     9.49899813497433
H   14   1     3.74629220191363    -4.48798724300892     9.47414880959024
C   15   6     2.02478325613682    -2.42177285709634     6.44560829588644
C   16   6     3.88048732735477    -3.58795445234514     4.61402886975252
C   17   6    -0.18412382258602    -1.30464291234259     5.76021113872346
C   18   6    -2.10044360464350    -0.26837831858460     7.71610340967100
C   19   6    -3.08956938670431     2.35282328359417     6.88693925039594
C   20   6    -4.37372924086464    -2.09766595989678     7.93610724222001
C   21   6    -0.83850430601230     0.06372213486173    10.33002307638377
H   22   1     0.38411922151109     1.74281358582432    10.27380136542181
H   23   1    -2.30980003007874     0.45460143924521    11.73986301809809
H   24   1     4.58527064644668    -5.38706904487420     5.36778158031719
H   25   1     5.54944938085014    -2.37631462192748     4.35398898413318
H   26   1     3.06633019150423    -3.94118377050688     2.75255466040884
H   27   1    -4.17727778763735     2.26573369139522     5.12914900961283
H   28   1    -1.52662344944051     3.68001877445626     6.59540397144508
H   29   1    -4.32916174397830     3.13643051467482     8.35225460090378
H   30   1    -5.32329548508442    -2.36691813602939     6.11583672749896
H   31   1    -5.77989366602257    -1.33896741843465     9.25748940450990
H   32   1    -3.79310905208926    -3.96389819310853     8.61386170102686
C   33   6    -1.01100794811226    -1.06331657314144     3.11929490449947
C   34   6     0.37686231036534    -0.33275864505552     1.09165013605873
H   35   1    -3.01671213906703    -1.40297922279997     2.77827895090944
C   36   6    -0.64382707979370    -0.11591880174385    -1.42063131251064
H   37   1     2.35569259782137     0.17174499283897     1.33641070251401
H   38   1    -2.63317482980319    -0.60229203511219    -1.66119700387645
C   39   6     3.71533383510959     0.59576232705089   -11.69997054074953
C   40   6     5.14333780052268    -1.26490852400141   -13.15108433486960
H   41   1     3.75910290759049     2.53760054456126   -12.37459410036833
O   42   8     6.36836167706676    -0.79692659131490   -15.04874962161569
H   43   1     5.04579305514285    -3.22830651971947   -12.39231411193817
[GTO]
1 0
 s    6 1.00
             3047.5249  0.0018347001629433
             457.36951    0.01403730124668
             103.94869   0.068842606114048
             29.210155    0.23218442062076
              9.286663    0.46794134155879
              3.163927    0.36231203217765
 s    3 1.00
             7.8682724   -0.11933240861517
             1.8812885   -0.16085421161283
             0.5442493     1.1434564825515
 s    1 1.00
             0.1687144                   1
 p    3 1.00
             7.8682724   0.068999095584993
             1.8812885    0.31642397975315
             0.5442493    0.74430825237435
 p    1 1.00
             0.1687144                   1
 d    1 1.00
                   0.8                   1

2 0
 s    3 1.00
             18.731137    0.03349459952309
             2.8253937    0.23472694665786
             0.6401217    0.81375731841339
 s    1 1.00
             0.1612778                   1

3 0
 s    6 1.00
             3047.5249  0.0018347001629433
             457.36951    0.01403730124668
             103.94869   0.068842606114048
             29.210155    0.23218442062076
              9.286663    0.46794134155879
              3.163927    0.36231203217765
 s    3 1.00
             7.8682724   -0.11933240861517
             1.8812885   -0.16085421161283
             0.5442493     1.1434564825515
 s    1 1.00
             0.1687144                   1
 p    3 1.00
             7.8682724   0.068999095584993
             1.8812885    0.31642397975315
             0.5442493    0.74430825237435
 p    1 1.00
             0.1687144                   1
 d    1 1.00
                   0.8                   1

4 0
 s    3 1.00
             18.731137    0.03349459952309
             2.8253937    0.23472694665786
             0.6401217    0.81375731841339
 s    1 1.00
             0.1612778                   1

5 0
 s    6 1.00
             3047.5249  0.0018347001629433
             457.36951    0.01403730124668
             103.94869   0.068842606114048
             29.210155    0.23218442062076
              9.286663    0.46794134155879
              3.163927    0.36231203217765
 s    3 1.00
             7.8682724   -0.11933240861517
             1.8812885   -0.16085421161283
             0.5442493     1.1434564825515
 s    1 1.00
             0.1687144                   1
 p    3 1.00
             7.8682724   0.068999095584993
             1.8812885    0.31642397975315
             0.5442493    0.74430825237435
 p    1 1.00
             0.1687144                   1
 d    1 1.00
                   0.8                   1

6 0
 s    3 1.00
             18.731137    0.03349459952309
             2.8253937    0.23472694665786
             0.6401217    0.81375731841339
 s    1 1.00
             0.1612778                   1

7 0
 s    6 1.00
             3047.5249  0.0018347001629433
             457.36951    0.01403730124668
             103.94869   0.068842606114048
             29.210155    0.23218442062076
              9.286663    0.46794134155879
              3.163927    0.36231203217765
 s    3 1.00
             7.8682724   -0.11933240861517
             1.8812885   -0.16085421161283
             0.5442493     1.1434564825515
 s    1 1.00
             0.1687144                   1
 p    3 1.00
             7.8682724   0.068999095584993
             1.8812885    0.31642397975315
             0.5442493    0.74430825237435
 p    1 1.00
             0.1687144                   1
 d    1 1.00
                   0.8                   1

8 0
 s    3 1.00
             18.731137    0.03349459952309
             2.8253937    0.23472694665786
             0.6401217    0.81375731841339
 s    1 1.00
             0.1612778                   1

9 0
 s    3 1.00
             18.731137    0.03349459952309
             2.8253937    0.23472694665786
             0.6401217    0.81375731841339
 s    1 1.00
             0.1612778                   1

10 0
 s    6 1.00
             3047.5249  0.0018347001629433
             457.36951    0.01403730124668
             103.94869   0.068842606114048
             29.210155    0.23218442062076
              9.286663    0.46794134155879
              3.163927    0.36231203217765
 s    3 1.00
             7.8682724   -0.11933240861517
             1.8812885   -0.16085421161283
             0.5442493     1.1434564825515
 s    1 1.00
             0.1687144                   1
 p    3 1.00
             7.8682724   0.068999095584993
             1.8812885    0.31642397975315
             0.5442493    0.74430825237435
 p    1 1.00
             0.1687144                   1
 d    1 1.00
                   0.8                   1

11 0
 s    3 1.00
             18.731137    0.03349459952309
             2.8253937    0.23472694665786
             0.6401217    0.81375731841339
 s    1 1.00
             0.1612778                   1

12 0
 s    6 1.00
             3047.5249  0.0018347001629433
             457.36951    0.01403730124668
             103.94869   0.068842606114048
             29.210155    0.23218442062076
              9.286663    0.46794134155879
              3.163927    0.36231203217765
 s    3 1.00
             7.8682724   -0.11933240861517
             1.8812885   -0.16085421161283
             0.5442493     1.1434564825515
 s    1 1.00
             0.1687144                   1
 p    3 1.00
             7.8682724   0.068999095584993
             1.8812885    0.31642397975315
             0.5442493    0.74430825237435
 p    1 1.00
             0.1687144                   1
 d    1 1.00
                   0.8                   1

13 0
 s    3 1.00
             18.731137    0.03349459952309
             2.8253937    0.23472694665786
             0.6401217    0.81375731841339
 s    1 1.00
             0.1612778                   1

14 0
 s    3 1.00
             18.731137    0.03349459952309
             2.8253937    0.23472694665786
             0.6401217    0.81375731841339
 s    1 1.00
             0.1612778                   1

15 0
 s    6 1.00
             3047.5249  0.0018347001629433
             457.36951    0.01403730124668
             103.94869   0.068842606114048
             29.210155    0.23218442062076
              9.286663    0.46794134155879
              3.163927    0.36231203217765
 s    3 1.00
             7.8682724   -0.11933240861517
             1.8812885   -0.16085421161283
             0.5442493     1.1434564825515
 s    1 1.00
             0.1687144                   1
 p    3 1.00
             7.8682724   0.068999095584993
             1.8812885    0.31642397975315
             0.5442493    0.74430825237435
 p    1 1.00
             0.1687144                   1
 d    1 1.00
                   0.8                   1

16 0
 s    6 1.00
             3047.5249  0.0018347001629433
             457.36951    0.01403730124668
             103.94869   0.068842606114048
             29.210155    0.23218442062076
              9.286663    0.46794134155879
              3.163927    0.36231203217765
 s    3 1.00
             7.8682724   -0.11933240861517
             1.8812885   -0.16085421161283
             0.5442493     1.1434564825515
 s    1 1.00
             0.1687144                   1
 p    3 1.00
             7.8682724   0.068999095584993
             1.8812885    0.31642397975315
             0.5442493    0.74430825237435
 p    1 1.00
             0.1687144                   1
 d    1 1.00
                   0.8                   1

17 0
 s    6 1.00
             3047.5249  0.0018347001629433
             457.36951    0.01403730124668
             103.94869   0.068842606114048
             29.210155    0.23218442062076
              9.286663    0.46794134155879
              3.163927    0.36231203217765
 s    3 1.00
             7.8682724   -0.11933240861517
             1.8812885   -0.16085421161283
             0.5442493     1.1434564825515
 s    1 1.00
             0.1687144                   1
 p    3 1.00
             7.8682724   0.068999095584993
             1.8812885    0.31642397975315
             0.5442493    0.74430825237435
 p    1 1.00
             0.1687144                   1
 d    1 1.00
                   0.8                   1

18 0
 s    6 1.00
             3047.5249  0.0018347001629433
             457.36951    0.01403730124668
             103.94869   0.068842606114048
             29.210155    0.23218442062076
              9.286663    0.46794134155879
              3.163927    0.36231203217765
 s    3 1.00
             7.8682724   -0.11933240861517
             1.8812885   -0.16085421161283
             0.5442493     1.1434564825515
 s    1 1.00
             0.1687144                   1
 p    3 1.00
             7.8682724   0.068999095584993
             1.8812885    0.31642397975315
             0.5442493    0.74430825237435
 p    1 1.00
             0.1687144                   1
 d    1 1.00
                   0.8                   1

19 0
 s    6 1.00
             3047.5249  0.0018347001629433
             457.36951    0.01403730124668
             103.94869   0.068842606114048
             29.210155    0.23218442062076
              9.286663    0.46794134155879
              3.163927    0.36231203217765
 s    3 1.00
             7.8682724   -0.11933240861517
             1.8812885   -0.16085421161283
             0.5442493     1.1434564825515
 s    1 1.00
             0.1687144                   1
 p    3 1.00
             7.8682724   0.068999095584993
             1.8812885    0.31642397975315
             0.5442493    0.74430825237435
 p    1 1.00
             0.1687144                   1
 d    1 1.00
                   0.8                   1

20 0
 s    6 1.00
             3047.5249  0.0018347001629433
             457.36951    0.01403730124668
             103.94869   0.068842606114048
             29.210155    0.23218442062076
              9.286663    0.46794134155879
              3.163927    0.36231203217765
 s    3 1.00
             7.8682724   -0.11933240861517
             1.8812885   -0.16085421161283
             0.5442493     1.1434564825515
 s    1 1.00
             0.1687144                   1
 p    3 1.00
             7.8682724   0.068999095584993
             1.8812885    0.31642397975315
             0.5442493    0.74430825237435
 p    1 1.00
             0.1687144                   1
 d    1 1.00
                   0.8                   1

21 0
 s    6 1.00
             3047.5249  0.0018347001629433
             457.36951    0.01403730124668
             103.94869   0.068842606114048
             29.210155    0.23218442062076
              9.286663    0.46794134155879
              3.163927    0.36231203217765
 s    3 1.00
             7.8682724   -0.11933240861517
             1.8812885   -0.16085421161283
             0.5442493     1.1434564825515
 s    1 1.00
             0.1687144                   1
 p    3 1.00
             7.8682724   0.068999095584993
             1.8812885    0.31642397975315
             0.5442493    0.74430825237435
 p    1 1.00
             0.1687144                   1
 d    1 1.00
                   0.8                   1

22 0
 s    3 1.00
             18.731137    0.03349459952309
             2.8253937    0.23472694665786
             0.6401217    0.81375731841339
 s    1 1.00
             0.1612778                   1

23 0
 s    3 1.00
             18.731137    0.03349459952309
             2.8253937    0.23472694665786
             0.6401217    0.81375731841339
 s    1 1.00
             0.1612778                   1

24 0
 s    3 1.00
             18.731137    0.03349459952309
             2.8253937    0.23472694665786
             0.6401217    0.81375731841339
 s    1 1.00
             0.1612778                   1

25 0
 s    3 1.00
             18.731137    0.03349459952309
             2.8253937    0.23472694665786
             0.6401217    0.81375731841339
 s    1 1.00
             0.1612778                   1

26 0
 s    3 1.00
             18.731137    0.03349459952309
             2.8253937    0.23472694665786
             0.6401217    0.81375731841339
 s    1 1.00
             0.1612778                   1

27 0
 s    3 1.00
             18.731137    0.03349459952309
             2.8253937    0.23472694665786
             0.6401217    0.81375731841339
 s    1 1.00
             0.1612778                   1

28 0
 s    3 1.00
             18.731137    0.03349459952309
             2.8253937    0.23472694665786
             0.6401217    0.81375731841339
 s    1 1.00
             0.1612778                   1

29 0
 s    3 1.00
             18.731137    0.03349459952309
             2.8253937    0.23472694665786
             0.6401217    0.81375731841339
 s    1 1.00
             0.1612778                   1

30 0
 s    3 1.00
             18.731137    0.03349459952309
             2.8253937    0.23472694665786
             0.6401217    0.81375731841339
 s    1 1.00
             0.1612778                   1

31 0
 s    3 1.00
             18.731137    0.03349459952309
             2.8253937    0.23472694665786
             0.6401217    0.81375731841339
 s    1 1.00
             0.1612778                   1

32 0
 s    3 1.00
             18.731137    0.03349459952309
             2.8253937    0.23472694665786
             0.6401217    0.81375731841339
 s    1 1.00
             0.1612778                   1

33 0
 s    6 1.00
             3047.5249  0.0018347001629433
             457.36951    0.01403730124668
             103.94869   0.068842606114048
             29.210155    0.23218442062076
              9.286663    0.46794134155879
              3.163927    0.36231203217765
 s    3 1.00
             7.8682724   -0.11933240861517
             1.8812885   -0.16085421161283
             0.5442493     1.1434564825515
 s    1 1.00
             0.1687144                   1
 p    3 1.00
             7.8682724   0.068999095584993
             1.8812885    0.31642397975315
             0.5442493    0.74430825237435
 p    1 1.00
             0.1687144                   1
 d    1 1.00
                   0.8                   1

34 0
 s    6 1.00
             3047.5249  0.0018347001629433
             457.36951    0.01403730124668
             103.94869   0.068842606114048
             29.210155    0.23218442062076
              9.286663    0.46794134155879
              3.163927    0.36231203217765
 s    3 1.00
             7.8682724   -0.11933240861517
             1.8812885   -0.16085421161283
             0.5442493     1.1434564825515
 s    1 1.00
             0.1687144                   1
 p    3 1.00
             7.8682724   0.068999095584993
             1.8812885    0.31642397975315
             0.5442493    0.74430825237435
 p    1 1.00
             0.1687144                   1
 d    1 1.00
                   0.8                   1

35 0
 s    3 1.00
             18.731137    0.03349459952309
             2.8253937    0.23472694665786
             0.6401217    0.81375731841339
 s    1 1.00
             0.1612778                   1

36 0
 s    6 1.00
             3047.5249  0.0018347001629433
             457.36951    0.01403730124668
             103.94869   0.068842606114048
             29.210155    0.23218442062076
              9.286663    0.46794134155879
              3.163927    0.36231203217765
 s    3 1.00
             7.8682724   -0.11933240861517
             1.8812885   -0.16085421161283
             0.5442493     1.1434564825515
 s    1 1.00
             0.1687144                   1
 p    3 1.00
             7.8682724   0.068999095584993
             1.8812885    0.31642397975315
             0.5442493    0.74430825237435
 p    1 1.00
             0.1687144                   1
 d    1 1.00
                   0.8                   1

37 0
 s    3 1.00
             18.731137    0.03349459952309
             2.8253937    0.23472694665786
             0.6401217    0.81375731841339
 s    1 1.00
             0.1612778                   1

38 0
 s    3 1.00
             18.731137    0.03349459952309
             2.8253937    0.23472694665786
             0.6401217    0.81375731841339
 s    1 1.00
             0.1612778                   1

39 0
 s    6 1.00
             3047.5249  0.0018347001629433
             457.36951    0.01403730124668
             103.94869   0.068842606114048
             29.210155    0.23218442062076
              9.286663    0.46794134155879
              3.163927    0.36231203217765
 s    3 1.00
             7.8682724   -0.11933240861517
             1.8812885   -0.16085421161283
             0.5442493     1.1434564825515
 s    1 1.00
             0.1687144                   1
 p    3 1.00
             7.8682724   0.068999095584993
             1.8812885    0.31642397975315
             0.5442493    0.74430825237435
 p    1 1.00
             0.1687144                   1
 d    1 1.00
                   0.8                   1

40 0
 s    6 1.00
             3047.5249  0.0018347001629433
             457.36951    0.01403730124668
             103.94869   0.068842606114048
             29.210155    0.23218442062076
              9.286663    0.46794134155879
              3.163927    0.36231203217765
 s    3 1.00
             7.8682724   -0.11933240861517
             1.8812885   -0.16085421161283
             0.5442493     1.1434564825515
 s    1 1.00
             0.1687144                   1
 p    3 1.00
             7.8682724   0.068999095584993
             1.8812885    0.31642397975315
             0.5442493    0.74430825237435
 p    1 1.00
             0.1687144                   1
 d    1 1.00
                   0.8                   1

41 0
 s    3 1.00
             18.731137    0.03349459952309
             2.8253937    0.23472694665786
             0.6401217    0.81375731841339
 s    1 1.00
             0.1612778                   1

42 0
 s    6 1.00
             5484.6717   0.001831099805527
             825.23495   0.013950098518422
             188.04696    0.06844509273075
               52.9645    0.23271427528445
              16.89757    0.47019295006289
             5.7996353    0.35852086192309
 s    3 1.00
             15.539616   -0.11077750382508
             3.5999336   -0.14802630511126
             1.0137618     1.1307670390447
 s    1 1.00
             0.2700058                   1
 p    3 1.00
             15.539616   0.070874299543311
             3.5999336    0.33975279781076
             1.0137618    0.72715859531445
 p    1 1.00
             0.2700058                   1
 d    1 1.00
                   0.8                   1

43 0
 s    3 1.00
             18.731137    0.03349459952309
             2.8253937    0.23472694665786
             0.6401217    0.81375731841339
 s    1 1.00
             0.1612778                   1

[5d]
[7f]
[9g]

[MO]
 Sym= A
 Ene=               0
 Spin= Alpha
 Occup=    1.00000
   1    4.7742909958585e-07
   2    1.5704788023567e-05
   3    5.3645776288272e-05
   4    5.9827732956398e-06
   5    1.7867025983066e-06
   6    -1.1034730891042e-05
   7    -4.4367630292326e-05
   8    -0.00012992054233832
   9    0.00035584043057506
  10    1.8651130815347e-07
  11    -1.0321041739252e-05
  12    -1.1814486688236e-06
  13    -1.3739417673255e-05
  14    7.7635345412702e-06
  15    1.3707304029213e-05
  16    -1.3016273917854e-05
  17    -9.7166567887861e-06
  18    -0.00014958722026457
  19    -0.00039224540603666
  20    -4.9948384901239e-05
  21    1.6273900302304e-05
  22    5.7567138242776e-05
  23    -0.0001856312518948
  24    0.00011910357143073
  25    0.00053267533234075
  26    -2.0869393737333e-05
  27    2.4231026026878e-05
  28    -1.4689419459484e-05
  29    -4.1155081309895e-05
  30    -2.6068801817923e-06
  31    6.7148172140195e-06
  32    -4.448839752198e-05
  33    -3.952227026482e-05
  34    -0.00036382917387293
  35    0.0041907094038488
  36    6.6254990161674e-05
  37    -2.6845069838439e-06
  38    -0.000120346771702
  39    0.00065300280684965
  40    -0.0018195985649061
  41    -0.00039488211454111
  42    1.4831591660472e-05
  43    -0.00011155376958407
  44    5.5605515609033e-05
  45    -1.5643281644673e-05
  46    -6.6563127697524e-05
  47    1.120253331421e-05
  48    0.00026606019699349
  49    -3.3587314796052e-05
  50    -5.4456745479237e-05
  51    -0.0033679534288806
  52    -0.00015757831747402
  53    0.00022226684345905
  54    0.00015678607003115
  55    0.0019570877099706
  56    -0.0024638579314255
  57    -0.0020120962166966
  58    3.5406076460694e-05
  59    -2.4342699336025e-05
  60    -0.00019456543112654
  61    -4.1053983122877e-05
  62    0.00012042995735533
  63    -0.00025205291466558
  64    -5.0018893545761e-05
  65    1.3805023051289e-07
  66     1.24520898844e-07
  67    2.4161795050898e-08
  68    6.2855183849761e-07
  69    -2.7417729857404e-06
  70    -6.5057274657536e-08
  71    2.4936529000083e-07
  72    -2.8456578241795e-07
  73    -1.5190684202676e-07
  74    -1.8304495808857e-06
  75    5.6892935201417e-08
  76    5.2787770926163e-08
  77    1.092979513395e-07
  78    -3.8529589372335e-08
  79    -6.7977988632376e-08
  80    9.6423701212487e-08
  81    -1.2354017457407e-07
  82    -3.3587422698213e-07
  83    -2.4701547104445e-08
  84    2.5470120550394e-07
  85    1.4135248787392e-05
  86    -8.5679097243372e-07
  87    -2.1580391012666e-07
  88    -8.1074556935078e-07
  89    -3.3996212441848e-06
  90    4.6143122914366e-06
  91    -3.5668346238262e-06
  92    -1.6047888480283e-07
  93    2.4057252269663e-07
  94    -3.954718715076e-07
  95    -7.1595342809264e-08
  96    1.2698861023141e-07
  97    -9.7218094496445e-07
  98    -1.3293127158908e-06
  99    1.6296993106976e-07
 100    1.3281518991769e-06
 101    6.5848841594134e-08
 102    6.9305029919175e-07
 103    -1.2051762811516e-05
 104    5.0754708288746e-07
 105    2.0012075103957e-06
 106    4.9405225540793e-07
 107    1.942285527082e-05
 108    -1.6856180252516e-05
 109    -3.237757925982e-05
 110    5.9727608401647e-07
 111    5.5114606305974e-07
 112    -2.3992202528941e-07
 113    -3.0668715100005e-07
 114    4.6795898773201e-07
 115    3.9104515439013e-07
 116    4.5698117299194e-06
 117    -3.588421554089e-05
 118    5.6972419848976e-07
 119    -8.922202723868e-07
 120    -8.7741188822051e-07
 121    8.6851109735875e-06
 122    -1.6106814834396e-06
 123    -3.0925119015652e-06
 124    9.8785201164491e-08
 125    2.8379537632442e-07
 126    1.4460366571532e-07
 127    -1.6949020339087e-07
 128    3.6864952301052e-07
 129    9.8809943198602e-07
 130    8.5884633206498e-06
 131    -5.402042986548e-05
 132    3.6442129206479e-07
 133    1.050671013774e-06
 134    -3.1968640290656e-06
 135    2.3241752582592e-05
 136    1.3742537789043e-06
 137    8.3974453309877e-05
 138    -2.4666374678692e-06
 139    -1.7030483195091e-06
 140    -1.9222762248596e-07
 141    -4.014871116462e-07
 142    1.1953356556273e-08
 143    3.964911480967e-07
 144    4.4214495134252e-06
 145    -2.1802031663166e-05
 146    -8.4545628077559e-08
 147    -7.3451085322659e-07
 148    -7.2952435293927e-07
 149    -1.2786019735306e-05
 150    5.8954859136232e-06
 151    3.596781953505e-06
 152    9.4910303134273e-07
 153    3.8313037820547e-07
 154    1.0517975479549e-07
 155    -6.9932344630006e-07
 156    8.1059658910139e-07
 157    -1.017403154394e-07
 158    -8.6961432771677e-07
 159    2.5997900240843e-08
 160    -8.1098881620707e-07
 161    1.9052070288817e-07
 162    8.8350924182263e-09
 163    6.2946496743679e-06
 164    -3.0256425629497e-07
 165    -9.1225841963015e-07
 166    -4.9369688834382e-07
 167    2.1107046028668e-07
 168    -1.9802145925217e-08
 169    1.1467339115772e-07
 170    -3.2294675171198e-07
 171    -9.6211895583615e-08
 172    5.584188037345e-07
 173    1.6619458623471e-06
 174    8.097470182343e-07
 175    2.4024378231691e-07
 176    -8.9540504155267e-07
 177    4.3839705175541e-07
 178    -1.798046199829e-06
 179    1.4375779299677e-06
 180    -1.3799632694849e-07
 181    -2.0365243284565e-07
 182    -6.0825488212968e-08
 183    3.8948439070777e-07
 184    -1.6754021395293e-07
 185    3.2132376994107e-07
 186    2.896812925912e-06
 187    -1.7990575330926e-06
 188    2.3485230754407e-07
 189    -1.0339255836721e-07
 190    -9.0608466964234e-07
 191    -1.9429533767566e-06
 192    -7.3511338544016e-07
 193    5.4503993979232e-06
 194    -2.7450321245155e-07
 195    1.8976073762482e-08
 196    -1.9255661854756e-07
 197    -9.9688164931604e-08
 198    9.2970223979841e-08
 199    6.7785748978807e-07
 200    1.0909017725326e-06
 201    1.1003353708776e-07
 202    -2.9563941947311e-06
 203    1.6718377081485e-06
 204    1.6778427125576e-06
 205    2.2649521146165e-07
 206    1.9685285534841e-06
 207    -9.2217381047767e-07
 208    1.0561295559403e-05
 209    -1.0917447366922e-06
 210    4.2139698904094e-06
 211    -5.2641253034994e-07
 212    -2.8206463247811e-06
 213    2.680836371563e-07
 214    2.1071709399985e-06
 215    4.7574583093633e-07
 216    -8.2775792319131e-07
 217    -3.1909812725331e-07
 218    -7.8967865512296e-07
 219    -2.9555141162905e-07
 220    -1.2571047004587e-06
 221    -9.1006020829398e-08
 222    9.2084019319649e-06
 223    1.5207175491616e-05
 224    1.1156786178172e-06
 225    1.2803848001635e-06
 226    -5.6804697315818e-06
 227    -7.172007302017e-06
 228    -2.7387451889376e-05
 229    9.5019548896822e-05
 230    1.1650268925397e-06
 231    4.2485334380417e-06
 232    1.9049057982712e-06
 233    -1.8927386030873e-06
 234    -2.7537797924877e-06
 235    -1.6658103818122e-06
 236    -4.0933543897721e-07
 237    -3.0927307880424e-05
 238    -6.0002029314009e-06
 239    -6.2627578643136e-06
 240    3.0601313625506e-06
 241    2.0341995121808e-05
 242    6.8563502297707e-06
 243    8.4586341914362e-05
 244    -1.0498691050293e-06
 245    -6.9120342012432e-06
 246    -1.545577192131e-06
 247    -3.1085216081322e-06
 248    -1.3034973584668e-06
 249    4.0217520594558e-06
 250    -1.0906063033676e-05
 251    1.4184363892347e-05
 252    3.0627717607187e-05
 253    -0.00027180878055372
 254    -4.5156966206855e-06
 255    6.5020323670838e-06
 256    -1.5710804925075e-05
 257    -0.00011577923568563
 258    -9.3394539656797e-05
 259    0.00024524474519191
 260    -3.0197450093162e-06
 261    1.1626583748568e-05
 262    5.045945692426e-06
 263    -8.06369319863e-06
 264    -4.6997958648734e-06
 265    -3.9374417442827e-06
 266    -3.2224691539906e-05
 267    9.426406601785e-06
 268    -3.6151417427445e-05
 269    -0.00026709964428321
 270    -0.00010137830492279
 271    -0.0031821271024179
 272    -0.00023858761952545
 273    0.00041723111834307
 274    0.00023122742480369
 275    -0.0021669420408581
 276    -0.00051975582018637
 277    0.0032766969997748
 278    -0.00017839338406499
 279    0.00022555092225153