[Molden Format]
made by pyscf v[2.0.1]
[Atoms] (AU)
C   1   6     0.69100024066471     0.64692934207205    -3.48223131169301
H   2   1     2.68052439830868     1.13355088658700    -3.25784032593313
C   3   6    -0.36286361513219     0.85440132524594    -5.97030179418974
H   4   1    -2.35448549047279     0.36322488579172    -6.17995817793143
C   5   6     0.93697958957450     1.61209284601821    -8.05828437677121
H   6   1     0.98787445190838     3.61459623416997    -8.53612607551025
C   7   6     2.26501037377666    -0.09521284299527    -9.69466000525781
H   8   1     2.19798542548318    -2.09561092109775    -9.19103573591963
H   9   1     1.55630230933075    -1.92953025305990    12.99630010416247
C   10   6     0.75233899775814    -2.21270439606481    11.10705728102219
H   11   1    -0.43433408177274    -3.90944857546550    11.22216085340412
C   12   6     2.86362581178706    -2.63237380607947     9.17926416456045
H   13   1     4.39038949912609    -1.24955421540245     9.49899813497433
H   14   1     3.74629220191363    -4.48798724300892     9.47414880959024
C   15   6     2.02478325613682    -2.42177285709634     6.44560829588644
C   16   6     3.88048732735477    -3.58795445234514     4.61402886975252
C   17   6    -0.18412382258602    -1.30464291234259     5.76021113872346
C   18   6    -2.10044360464350    -0.26837831858460     7.71610340967100
C   19   6    -3.08956938670431     2.35282328359417     6.88693925039594
C   20   6    -4.37372924086464    -2.09766595989678     7.93610724222001
C   21   6    -0.83850430601230     0.06372213486173    10.33002307638377
H   22   1     0.38411922151109     1.74281358582432    10.27380136542181
H   23   1    -2.30980003007874     0.45460143924521    11.73986301809809
H   24   1     4.58527064644668    -5.38706904487420     5.36778158031719
H   25   1     5.54944938085014    -2.37631462192748     4.35398898413318
H   26   1     3.06633019150423    -3.94118377050688     2.75255466040884
H   27   1    -4.17727778763735     2.26573369139522     5.12914900961283
H   28   1    -1.52662344944051     3.68001877445626     6.59540397144508
H   29   1    -4.32916174397830     3.13643051467482     8.35225460090378
H   30   1    -5.32329548508442    -2.36691813602939     6.11583672749896
H   31   1    -5.77989366602257    -1.33896741843465     9.25748940450990
H   32   1    -3.79310905208926    -3.96389819310853     8.61386170102686
C   33   6    -1.01100794811226    -1.06331657314144     3.11929490449947
C   34   6     0.37686231036534    -0.33275864505552     1.09165013605873
H   35   1    -3.01671213906703    -1.40297922279997     2.77827895090944
C   36   6    -0.64382707979370    -0.11591880174385    -1.42063131251064
H   37   1     2.35569259782137     0.17174499283897     1.33641070251401
H   38   1    -2.63317482980319    -0.60229203511219    -1.66119700387645
C   39   6     3.58038244524183     0.57209765736826   -11.79257005200741
C   40   6     4.87057751772619    -1.31288245896332   -13.33829616647468
H   41   1     3.72212183925239     2.53140115363455   -12.39986577500592
O   42   8     6.08287300298468    -0.84687400827575   -15.24460146946798
H   43   1     4.67557951371048    -3.29368722109141   -12.64651065729987
[GTO]
1 0
 s    6 1.00
             3047.5249  0.0018347001629433
             457.36951    0.01403730124668
             103.94869   0.068842606114048
             29.210155    0.23218442062076
              9.286663    0.46794134155879
              3.163927    0.36231203217765
 s    3 1.00
             7.8682724   -0.11933240861517
             1.8812885   -0.16085421161283
             0.5442493     1.1434564825515
 s    1 1.00
             0.1687144                   1
 p    3 1.00
             7.8682724   0.068999095584993
             1.8812885    0.31642397975315
             0.5442493    0.74430825237435
 p    1 1.00
             0.1687144                   1
 d    1 1.00
                   0.8                   1

2 0
 s    3 1.00
             18.731137    0.03349459952309
             2.8253937    0.23472694665786
             0.6401217    0.81375731841339
 s    1 1.00
             0.1612778                   1

3 0
 s    6 1.00
             3047.5249  0.0018347001629433
             457.36951    0.01403730124668
             103.94869   0.068842606114048
             29.210155    0.23218442062076
              9.286663    0.46794134155879
              3.163927    0.36231203217765
 s    3 1.00
             7.8682724   -0.11933240861517
             1.8812885   -0.16085421161283
             0.5442493     1.1434564825515
 s    1 1.00
             0.1687144                   1
 p    3 1.00
             7.8682724   0.068999095584993
             1.8812885    0.31642397975315
             0.5442493    0.74430825237435
 p    1 1.00
             0.1687144                   1
 d    1 1.00
                   0.8                   1

4 0
 s    3 1.00
             18.731137    0.03349459952309
             2.8253937    0.23472694665786
             0.6401217    0.81375731841339
 s    1 1.00
             0.1612778                   1

5 0
 s    6 1.00
             3047.5249  0.0018347001629433
             457.36951    0.01403730124668
             103.94869   0.068842606114048
             29.210155    0.23218442062076
              9.286663    0.46794134155879
              3.163927    0.36231203217765
 s    3 1.00
             7.8682724   -0.11933240861517
             1.8812885   -0.16085421161283
             0.5442493     1.1434564825515
 s    1 1.00
             0.1687144                   1
 p    3 1.00
             7.8682724   0.068999095584993
             1.8812885    0.31642397975315
             0.5442493    0.74430825237435
 p    1 1.00
             0.1687144                   1
 d    1 1.00
                   0.8                   1

6 0
 s    3 1.00
             18.731137    0.03349459952309
             2.8253937    0.23472694665786
             0.6401217    0.81375731841339
 s    1 1.00
             0.1612778                   1

7 0
 s    6 1.00
             3047.5249  0.0018347001629433
             457.36951    0.01403730124668
             103.94869   0.068842606114048
             29.210155    0.23218442062076
              9.286663    0.46794134155879
              3.163927    0.36231203217765
 s    3 1.00
             7.8682724   -0.11933240861517
             1.8812885   -0.16085421161283
             0.5442493     1.1434564825515
 s    1 1.00
             0.1687144                   1
 p    3 1.00
             7.8682724   0.068999095584993
             1.8812885    0.31642397975315
             0.5442493    0.74430825237435
 p    1 1.00
             0.1687144                   1
 d    1 1.00
                   0.8                   1

8 0
 s    3 1.00
             18.731137    0.03349459952309
             2.8253937    0.23472694665786
             0.6401217    0.81375731841339
 s    1 1.00
             0.1612778                   1

9 0
 s    3 1.00
             18.731137    0.03349459952309
             2.8253937    0.23472694665786
             0.6401217    0.81375731841339
 s    1 1.00
             0.1612778                   1

10 0
 s    6 1.00
             3047.5249  0.0018347001629433
             457.36951    0.01403730124668
             103.94869   0.068842606114048
             29.210155    0.23218442062076
              9.286663    0.46794134155879
              3.163927    0.36231203217765
 s    3 1.00
             7.8682724   -0.11933240861517
             1.8812885   -0.16085421161283
             0.5442493     1.1434564825515
 s    1 1.00
             0.1687144                   1
 p    3 1.00
             7.8682724   0.068999095584993
             1.8812885    0.31642397975315
             0.5442493    0.74430825237435
 p    1 1.00
             0.1687144                   1
 d    1 1.00
                   0.8                   1

11 0
 s    3 1.00
             18.731137    0.03349459952309
             2.8253937    0.23472694665786
             0.6401217    0.81375731841339
 s    1 1.00
             0.1612778                   1

12 0
 s    6 1.00
             3047.5249  0.0018347001629433
             457.36951    0.01403730124668
             103.94869   0.068842606114048
             29.210155    0.23218442062076
              9.286663    0.46794134155879
              3.163927    0.36231203217765
 s    3 1.00
             7.8682724   -0.11933240861517
             1.8812885   -0.16085421161283
             0.5442493     1.1434564825515
 s    1 1.00
             0.1687144                   1
 p    3 1.00
             7.8682724   0.068999095584993
             1.8812885    0.31642397975315
             0.5442493    0.74430825237435
 p    1 1.00
             0.1687144                   1
 d    1 1.00
                   0.8                   1

13 0
 s    3 1.00
             18.731137    0.03349459952309
             2.8253937    0.23472694665786
             0.6401217    0.81375731841339
 s    1 1.00
             0.1612778                   1

14 0
 s    3 1.00
             18.731137    0.03349459952309
             2.8253937    0.23472694665786
             0.6401217    0.81375731841339
 s    1 1.00
             0.1612778                   1

15 0
 s    6 1.00
             3047.5249  0.0018347001629433
             457.36951    0.01403730124668
             103.94869   0.068842606114048
             29.210155    0.23218442062076
              9.286663    0.46794134155879
              3.163927    0.36231203217765
 s    3 1.00
             7.8682724   -0.11933240861517
             1.8812885   -0.16085421161283
             0.5442493     1.1434564825515
 s    1 1.00
             0.1687144                   1
 p    3 1.00
             7.8682724   0.068999095584993
             1.8812885    0.31642397975315
             0.5442493    0.74430825237435
 p    1 1.00
             0.1687144                   1
 d    1 1.00
                   0.8                   1

16 0
 s    6 1.00
             3047.5249  0.0018347001629433
             457.36951    0.01403730124668
             103.94869   0.068842606114048
             29.210155    0.23218442062076
              9.286663    0.46794134155879
              3.163927    0.36231203217765
 s    3 1.00
             7.8682724   -0.11933240861517
             1.8812885   -0.16085421161283
             0.5442493     1.1434564825515
 s    1 1.00
             0.1687144                   1
 p    3 1.00
             7.8682724   0.068999095584993
             1.8812885    0.31642397975315
             0.5442493    0.74430825237435
 p    1 1.00
             0.1687144                   1
 d    1 1.00
                   0.8                   1

17 0
 s    6 1.00
             3047.5249  0.0018347001629433
             457.36951    0.01403730124668
             103.94869   0.068842606114048
             29.210155    0.23218442062076
              9.286663    0.46794134155879
              3.163927    0.36231203217765
 s    3 1.00
             7.8682724   -0.11933240861517
             1.8812885   -0.16085421161283
             0.5442493     1.1434564825515
 s    1 1.00
             0.1687144                   1
 p    3 1.00
             7.8682724   0.068999095584993
             1.8812885    0.31642397975315
             0.5442493    0.74430825237435
 p    1 1.00
             0.1687144                   1
 d    1 1.00
                   0.8                   1

18 0
 s    6 1.00
             3047.5249  0.0018347001629433
             457.36951    0.01403730124668
             103.94869   0.068842606114048
             29.210155    0.23218442062076
              9.286663    0.46794134155879
              3.163927    0.36231203217765
 s    3 1.00
             7.8682724   -0.11933240861517
             1.8812885   -0.16085421161283
             0.5442493     1.1434564825515
 s    1 1.00
             0.1687144                   1
 p    3 1.00
             7.8682724   0.068999095584993
             1.8812885    0.31642397975315
             0.5442493    0.74430825237435
 p    1 1.00
             0.1687144                   1
 d    1 1.00
                   0.8                   1

19 0
 s    6 1.00
             3047.5249  0.0018347001629433
             457.36951    0.01403730124668
             103.94869   0.068842606114048
             29.210155    0.23218442062076
              9.286663    0.46794134155879
              3.163927    0.36231203217765
 s    3 1.00
             7.8682724   -0.11933240861517
             1.8812885   -0.16085421161283
             0.5442493     1.1434564825515
 s    1 1.00
             0.1687144                   1
 p    3 1.00
             7.8682724   0.068999095584993
             1.8812885    0.31642397975315
             0.5442493    0.74430825237435
 p    1 1.00
             0.1687144                   1
 d    1 1.00
                   0.8                   1

20 0
 s    6 1.00
             3047.5249  0.0018347001629433
             457.36951    0.01403730124668
             103.94869   0.068842606114048
             29.210155    0.23218442062076
              9.286663    0.46794134155879
              3.163927    0.36231203217765
 s    3 1.00
             7.8682724   -0.11933240861517
             1.8812885   -0.16085421161283
             0.5442493     1.1434564825515
 s    1 1.00
             0.1687144                   1
 p    3 1.00
             7.8682724   0.068999095584993
             1.8812885    0.31642397975315
             0.5442493    0.74430825237435
 p    1 1.00
             0.1687144                   1
 d    1 1.00
                   0.8                   1

21 0
 s    6 1.00
             3047.5249  0.0018347001629433
             457.36951    0.01403730124668
             103.94869   0.068842606114048
             29.210155    0.23218442062076
              9.286663    0.46794134155879
              3.163927    0.36231203217765
 s    3 1.00
             7.8682724   -0.11933240861517
             1.8812885   -0.16085421161283
             0.5442493     1.1434564825515
 s    1 1.00
             0.1687144                   1
 p    3 1.00
             7.8682724   0.068999095584993
             1.8812885    0.31642397975315
             0.5442493    0.74430825237435
 p    1 1.00
             0.1687144                   1
 d    1 1.00
                   0.8                   1

22 0
 s    3 1.00
             18.731137    0.03349459952309
             2.8253937    0.23472694665786
             0.6401217    0.81375731841339
 s    1 1.00
             0.1612778                   1

23 0
 s    3 1.00
             18.731137    0.03349459952309
             2.8253937    0.23472694665786
             0.6401217    0.81375731841339
 s    1 1.00
             0.1612778                   1

24 0
 s    3 1.00
             18.731137    0.03349459952309
             2.8253937    0.23472694665786
             0.6401217    0.81375731841339
 s    1 1.00
             0.1612778                   1

25 0
 s    3 1.00
             18.731137    0.03349459952309
             2.8253937    0.23472694665786
             0.6401217    0.81375731841339
 s    1 1.00
             0.1612778                   1

26 0
 s    3 1.00
             18.731137    0.03349459952309
             2.8253937    0.23472694665786
             0.6401217    0.81375731841339
 s    1 1.00
             0.1612778                   1

27 0
 s    3 1.00
             18.731137    0.03349459952309
             2.8253937    0.23472694665786
             0.6401217    0.81375731841339
 s    1 1.00
             0.1612778                   1

28 0
 s    3 1.00
             18.731137    0.03349459952309
             2.8253937    0.23472694665786
             0.6401217    0.81375731841339
 s    1 1.00
             0.1612778                   1

29 0
 s    3 1.00
             18.731137    0.03349459952309
             2.8253937    0.23472694665786
             0.6401217    0.81375731841339
 s    1 1.00
             0.1612778                   1

30 0
 s    3 1.00
             18.731137    0.03349459952309
             2.8253937    0.23472694665786
             0.6401217    0.81375731841339
 s    1 1.00
             0.1612778                   1

31 0
 s    3 1.00
             18.731137    0.03349459952309
             2.8253937    0.23472694665786
             0.6401217    0.81375731841339
 s    1 1.00
             0.1612778                   1

32 0
 s    3 1.00
             18.731137    0.03349459952309
             2.8253937    0.23472694665786
             0.6401217    0.81375731841339
 s    1 1.00
             0.1612778                   1

33 0
 s    6 1.00
             3047.5249  0.0018347001629433
             457.36951    0.01403730124668
             103.94869   0.068842606114048
             29.210155    0.23218442062076
              9.286663    0.46794134155879
              3.163927    0.36231203217765
 s    3 1.00
             7.8682724   -0.11933240861517
             1.8812885   -0.16085421161283
             0.5442493     1.1434564825515
 s    1 1.00
             0.1687144                   1
 p    3 1.00
             7.8682724   0.068999095584993
             1.8812885    0.31642397975315
             0.5442493    0.74430825237435
 p    1 1.00
             0.1687144                   1
 d    1 1.00
                   0.8                   1

34 0
 s    6 1.00
             3047.5249  0.0018347001629433
             457.36951    0.01403730124668
             103.94869   0.068842606114048
             29.210155    0.23218442062076
              9.286663    0.46794134155879
              3.163927    0.36231203217765
 s    3 1.00
             7.8682724   -0.11933240861517
             1.8812885   -0.16085421161283
             0.5442493     1.1434564825515
 s    1 1.00
             0.1687144                   1
 p    3 1.00
             7.8682724   0.068999095584993
             1.8812885    0.31642397975315
             0.5442493    0.74430825237435
 p    1 1.00
             0.1687144                   1
 d    1 1.00
                   0.8                   1

35 0
 s    3 1.00
             18.731137    0.03349459952309
             2.8253937    0.23472694665786
             0.6401217    0.81375731841339
 s    1 1.00
             0.1612778                   1

36 0
 s    6 1.00
             3047.5249  0.0018347001629433
             457.36951    0.01403730124668
             103.94869   0.068842606114048
             29.210155    0.23218442062076
              9.286663    0.46794134155879
              3.163927    0.36231203217765
 s    3 1.00
             7.8682724   -0.11933240861517
             1.8812885   -0.16085421161283
             0.5442493     1.1434564825515
 s    1 1.00
             0.1687144                   1
 p    3 1.00
             7.8682724   0.068999095584993
             1.8812885    0.31642397975315
             0.5442493    0.74430825237435
 p    1 1.00
             0.1687144                   1
 d    1 1.00
                   0.8                   1

37 0
 s    3 1.00
             18.731137    0.03349459952309
             2.8253937    0.23472694665786
             0.6401217    0.81375731841339
 s    1 1.00
             0.1612778                   1

38 0
 s    3 1.00
             18.731137    0.03349459952309
             2.8253937    0.23472694665786
             0.6401217    0.81375731841339
 s    1 1.00
             0.1612778                   1

39 0
 s    6 1.00
             3047.5249  0.0018347001629433
             457.36951    0.01403730124668
             103.94869   0.068842606114048
             29.210155    0.23218442062076
              9.286663    0.46794134155879
              3.163927    0.36231203217765
 s    3 1.00
             7.8682724   -0.11933240861517
             1.8812885   -0.16085421161283
             0.5442493     1.1434564825515
 s    1 1.00
             0.1687144                   1
 p    3 1.00
             7.8682724   0.068999095584993
             1.8812885    0.31642397975315
             0.5442493    0.74430825237435
 p    1 1.00
             0.1687144                   1
 d    1 1.00
                   0.8                   1

40 0
 s    6 1.00
             3047.5249  0.0018347001629433
             457.36951    0.01403730124668
             103.94869   0.068842606114048
             29.210155    0.23218442062076
              9.286663    0.46794134155879
              3.163927    0.36231203217765
 s    3 1.00
             7.8682724   -0.11933240861517
             1.8812885   -0.16085421161283
             0.5442493     1.1434564825515
 s    1 1.00
             0.1687144                   1
 p    3 1.00
             7.8682724   0.068999095584993
             1.8812885    0.31642397975315
             0.5442493    0.74430825237435
 p    1 1.00
             0.1687144                   1
 d    1 1.00
                   0.8                   1

41 0
 s    3 1.00
             18.731137    0.03349459952309
             2.8253937    0.23472694665786
             0.6401217    0.81375731841339
 s    1 1.00
             0.1612778                   1

42 0
 s    6 1.00
             5484.6717   0.001831099805527
             825.23495   0.013950098518422
             188.04696    0.06844509273075
               52.9645    0.23271427528445
              16.89757    0.47019295006289
             5.7996353    0.35852086192309
 s    3 1.00
             15.539616   -0.11077750382508
             3.5999336   -0.14802630511126
             1.0137618     1.1307670390447
 s    1 1.00
             0.2700058                   1
 p    3 1.00
             15.539616   0.070874299543311
             3.5999336    0.33975279781076
             1.0137618    0.72715859531445
 p    1 1.00
             0.2700058                   1
 d    1 1.00
                   0.8                   1

43 0
 s    3 1.00
             18.731137    0.03349459952309
             2.8253937    0.23472694665786
             0.6401217    0.81375731841339
 s    1 1.00
             0.1612778                   1

[5d]
[7f]
[9g]

[MO]
 Sym= A
 Ene=               0
 Spin= Alpha
 Occup=    1.00000
   1     7.94888831081e-07
   2    1.8653796400264e-05
   3    1.4131326461913e-05
   4    7.1422395719521e-06
   5    -2.7946363541891e-06
   6    -1.170757687175e-05
   7    -3.1697651835458e-05
   8    -0.00011285201392489
   9    0.00036554077093289
  10    -1.6693404636853e-07
  11    -1.1017249124237e-05
  12    -2.0437092582142e-06
  13    -1.3875303864903e-05
  14    7.7482558465231e-06
  15    1.4181492354114e-05
  16    -1.6549661839061e-05
  17    -9.9652803993952e-06
  18    -0.00015212603911289
  19    -0.00037711415134231
  20    -4.907250776095e-05
  21    1.879614039014e-05
  22    5.8285744660894e-05
  23    -0.00016271158168448
  24    0.00011012938374886
  25    0.0005638194259061
  26    -2.1032088258607e-05
  27    2.3826096778281e-05
  28    -1.2711695179763e-05
  29    -4.1877169980708e-05
  30    9.229858922839e-07
  31    7.0325647650179e-06
  32    -3.8822199603112e-05
  33    -3.9509660471175e-05
  34    -0.00036369278490683
  35    0.0041958727411795
  36    6.3949670191481e-05
  37    -2.8092783199839e-06
  38    -0.00012183928074534
  39    0.00053206852291048
  40    -0.0018344733062459
  41    -0.00046953579517835
  42    2.1975394542183e-05
  43    -0.00010954955494164
  44    6.3058435117328e-05
  45    -2.2812374349186e-05
  46    -5.8420568591436e-05
  47    1.0338011918623e-05
  48    0.00026407850526189
  49    -3.3674798879858e-05
  50    -5.4426603703135e-05
  51    -0.0033615421268956
  52    -0.00014124834411536
  53    0.00022515196555845
  54    0.00016865858633155
  55     0.001771640701127
  56    -0.0024937833688956
  57    -0.0021390796354124
  58    2.4511193108471e-05
  59    -2.9588122945349e-05
  60    -0.00019588917094658
  61    -3.471635582786e-05
  62    0.00012184472131169
  63    -0.00025187676647414
  64    -4.9426714204651e-05
  65    1.2954451705739e-07
  66    5.8558485569683e-08
  67    1.7355640381615e-08
  68    6.6769724607856e-07
  69    -2.8396319526204e-06
  70    -1.0427617488598e-08
  71    2.2580962902987e-07
  72    -3.2505191130158e-07
  73    -9.8136263173355e-08
  74    -1.9251485085491e-06
  75    6.3229346323758e-08
  76    4.6800550471542e-08
  77    1.0282475960367e-07
  78    -3.8653884563973e-08
  79    -7.4324516352044e-08
  80    8.8093920109832e-08
  81    -1.3054350420955e-07
  82    -3.9403530226386e-07
  83    -3.558440997073e-08
  84    2.0007294061758e-07
  85    1.3740004013868e-05
  86    -9.2928260031225e-07
  87    -3.2545798904835e-07
  88    -7.9212298060689e-07
  89    -3.5148979722988e-06
  90    4.7611725318927e-06
  91    -3.3554430639412e-06
  92    -1.4766375374978e-07
  93    2.2522295356703e-07
  94    -4.13373026564e-07
  95    -6.6777115174396e-08
  96    1.0345019883504e-07
  97    -1.123274547681e-06
  98    -1.5973463357755e-06
  99    2.5805306696202e-07
 100     1.51065927566e-06
 101    1.1604022442847e-07
 102    7.7599622756786e-07
 103    -1.4159625023374e-05
 104    9.7259492332306e-07
 105    2.4836007131453e-06
 106    4.7953515232323e-07
 107    1.9737505439836e-05
 108    -1.6365381106975e-05
 109    -3.0599254828438e-05
 110    5.8087043779033e-07
 111    5.1167939916065e-07
 112    -2.3385752326717e-07
 113    -3.7380506694253e-07
 114    4.5294688864635e-07
 115    4.0653074326742e-07
 116    4.5388253157031e-06
 117    -3.5464772221661e-05
 118    5.5855762253036e-07
 119    -9.979655120949e-07
 120    -7.038458898913e-07
 121    8.2323706536107e-06
 122    -1.0058833788389e-06
 123    -2.4738725945341e-06
 124    7.7494367142968e-08
 125    2.6420535657171e-07
 126    1.7639442464553e-07
 127    -1.5486109187281e-07
 128    3.2438521748575e-07
 129    9.5748733960649e-07
 130    8.4946387209281e-06
 131    -5.123754320781e-05
 132    4.2822498450025e-07
 133    1.6745022879393e-06
 134    -3.1433309272737e-06
 135    2.4740957446314e-05
 136    3.9743117264088e-07
 137    8.044541405781e-05
 138    -2.3755309305665e-06
 139    -1.6407173465698e-06
 140    -1.8905752550686e-07
 141    -3.62061892218e-07
 142    -9.8848201471418e-09
 143    3.2575162311634e-07
 144    4.0952922526119e-06
 145    -1.8950279683651e-05
 146    -4.0890811488645e-08
 147    -8.9747743506885e-07
 148    -9.2500124235175e-07
 149    -1.1423049813919e-05
 150    5.975785692732e-06
 151    2.9576660150377e-06
 152    9.5647291164865e-07
 153     3.44227344586e-07
 154    1.037428381963e-07
 155    -6.6822916967407e-07
 156    7.7079178466553e-07
 157    -1.0182663846168e-07
 158    -8.721379563134e-07
 159    -2.3680776046752e-07
 160    -8.7780222583859e-07
 161    2.684302068579e-07
 162    -1.2463638561552e-07
 163    5.9269827099476e-06
 164    -1.0748825403585e-07
 165    -9.591173722099e-07
 166    -4.6875339973019e-07
 167    1.7572265540419e-07
 168    -9.6392023939553e-09
 169    1.1274461041979e-07
 170    -3.0121703961434e-07
 171    -1.149499523693e-07
 172    5.7601700332458e-07
 173    2.0499573111069e-06
 174    8.9131853573521e-07
 175    2.4756454365218e-07
 176    -8.9993675115836e-07
 177    3.8724893457142e-07
 178    -1.6134298057416e-06
 179    1.5555785935804e-06
 180    -1.4462975023885e-07
 181    -2.1363772746431e-07
 182    -4.3391204635219e-08
 183    3.7747204235076e-07
 184    -1.6895748609111e-07
 185    3.3772921316282e-07
 186    2.8637304090354e-06
 187    -2.3183290348438e-06
 188    2.5038993712318e-07
 189    -8.9259891848245e-08
 190    -7.3646234142659e-07
 191    -1.9190328285449e-06
 192    -8.5102922185068e-07
 193    5.7489728840067e-06
 194    -3.0101531947628e-07
 195    -3.9777284104864e-10
 196    -1.701938216085e-07
 197    -7.9353871330897e-08
 198    8.2560021993331e-08
 199    6.868262096222e-07
 200    1.1576602262725e-06
 201    1.779453159807e-07
 202    -2.7790013428094e-06
 203    1.8170316493571e-06
 204    2.060577062757e-06
 205    8.7817270080219e-08
 206    1.7442307864682e-06
 207    -1.12586120492e-06
 208    1.1596694594976e-05
 209    -1.0113197186092e-06
 210    4.0040308959672e-06
 211    -4.795917992433e-07
 212    -2.7832120370393e-06
 213    2.4394754051461e-07
 214    2.0858008513145e-06
 215    4.9128587764754e-07
 216    -9.4783383518632e-07
 217    -3.5072460456091e-07
 218    -8.8744927537213e-07
 219    -2.6743179434011e-07
 220    -1.2555237183825e-06
 221    -7.0237605171242e-08
 222    9.5926855547981e-06
 223    8.7641791359417e-06
 224    1.5493563476801e-06
 225    6.4725041448375e-08
 226    -5.7277849980024e-06
 227    -1.0090022646249e-05
 228    -2.7631804519509e-05
 229    9.3425677270861e-05
 230    1.0926888396932e-06
 231    4.166913548945e-06
 232    2.0738107983556e-06
 233    -1.8472562443489e-06
 234    -2.8083712169374e-06
 235    -1.71435076083e-06
 236    -6.4751457291931e-07
 237    -3.0572466351994e-05
 238    -5.6666365165016e-06
 239    -7.9756888066062e-06
 240    3.0810505860673e-06
 241    1.7925058745696e-05
 242    5.859342422086e-06
 243    8.9154862934891e-05
 244    -1.2850937290044e-06
 245    -6.9999110410275e-06
 246    -1.8196598254046e-06
 247    -3.0932935509843e-06
 248    -1.5387283780219e-06
 249    3.7469887188618e-06
 250    -1.1028869885456e-05
 251    1.4558783559297e-05
 252    2.9891128247302e-05
 253    -0.00025514437825235
 254    -5.1675690810851e-06
 255    5.7632527807468e-06
 256    -1.6528200570965e-05
 257    -0.00011107042639667
 258    -9.9484774586918e-05
 259    0.00023580536002815
 260    -2.5859504673999e-06
 261    1.1305227790812e-05
 262    5.4131703873183e-06
 263    -7.550469698898e-06
 264    -5.4504278863499e-06
 265    -3.8990219216773e-06
 266    -3.1973005078178e-05
 267    9.9194704217658e-06
 268    -3.6795260138524e-05
 269    -0.00026690409055961
 270    -0.0001011799794601
 271    -0.0031854397877679
 272    -0.00020943318291871
 273    0.00042135663553763
 274    0.00025040067010589
 275    -0.0021268226146823
 276    -0.00051371071348664
 277    0.0033028396518523
 278    -0.00019692557435065
 279    0.00021595225037474
 280    -0.00017059491507411