[Molden Format]
made by pyscf v[2.0.1]
[Atoms] (AU)
C   1   6     0.69100024066471     0.64692934207205    -3.48223131169301
H   2   1     2.68052439830868     1.13355088658700    -3.25784032593313
C   3   6    -0.36286361513219     0.85440132524594    -5.97030179418974
H   4   1    -2.35448549047279     0.36322488579172    -6.17995817793143
C   5   6     0.93697958957450     1.61209284601821    -8.05828437677121
H   6   1     2.50035468987728     2.93484935641869    -7.84122146962088
C   7   6     0.36255105159660     0.76050131278393   -10.56848504450332
H   8   1    -1.20802221204617    -0.56532983436663   -10.75608465244450
H   9   1     1.55630230933075    -1.92953025305990    12.99630010416247
C   10   6     0.75233899775814    -2.21270439606481    11.10705728102219
H   11   1    -0.43433408177274    -3.90944857546550    11.22216085340412
C   12   6     2.86362581178706    -2.63237380607947     9.17926416456045
H   13   1     4.39038949912609    -1.24955421540245     9.49899813497433
H   14   1     3.74629220191363    -4.48798724300892     9.47414880959024
C   15   6     2.02478325613682    -2.42177285709634     6.44560829588644
C   16   6     3.88048732735477    -3.58795445234514     4.61402886975252
C   17   6    -0.18412382258602    -1.30464291234259     5.76021113872346
C   18   6    -2.10044360464350    -0.26837831858460     7.71610340967100
C   19   6    -3.08956938670431     2.35282328359417     6.88693925039594
C   20   6    -4.37372924086464    -2.09766595989678     7.93610724222001
C   21   6    -0.83850430601230     0.06372213486173    10.33002307638377
H   22   1     0.38411922151109     1.74281358582432    10.27380136542181
H   23   1    -2.30980003007874     0.45460143924521    11.73986301809809
H   24   1     4.58527064644668    -5.38706904487420     5.36778158031719
H   25   1     5.54944938085014    -2.37631462192748     4.35398898413318
H   26   1     3.06633019150423    -3.94118377050688     2.75255466040884
H   27   1    -4.17727778763735     2.26573369139522     5.12914900961283
H   28   1    -1.52662344944051     3.68001877445626     6.59540397144508
H   29   1    -4.32916174397830     3.13643051467482     8.35225460090378
H   30   1    -5.32329548508442    -2.36691813602939     6.11583672749896
H   31   1    -5.77989366602257    -1.33896741843465     9.25748940450990
H   32   1    -3.79310905208926    -3.96389819310853     8.61386170102686
C   33   6    -1.01100794811226    -1.06331657314144     3.11929490449947
C   34   6     0.37686231036534    -0.33275864505552     1.09165013605873
H   35   1    -3.01671213906703    -1.40297922279997     2.77827895090944
C   36   6    -0.64382707979370    -0.11591880174385    -1.42063131251064
H   37   1     2.35569259782137     0.17174499283897     1.33641070251401
H   38   1    -2.63317482980319    -0.60229203511219    -1.66119700387645
C   39   6     1.60144441070444     1.46482489722556   -12.70057441592292
C   40   6     0.86980516734608     0.48994136718256   -15.17470632539007
H   41   1     3.18180515535191     2.77908821383906   -12.64635086980665
O   42   8     1.89724046327418     1.04291297454121   -17.16453627851552
H   43   1    -0.75645459108880    -0.84958730954869   -15.14122439828819
[GTO]
1 0
 s    6 1.00
             3047.5249  0.0018347001629433
             457.36951    0.01403730124668
             103.94869   0.068842606114048
             29.210155    0.23218442062076
              9.286663    0.46794134155879
              3.163927    0.36231203217765
 s    3 1.00
             7.8682724   -0.11933240861517
             1.8812885   -0.16085421161283
             0.5442493     1.1434564825515
 s    1 1.00
             0.1687144                   1
 p    3 1.00
             7.8682724   0.068999095584993
             1.8812885    0.31642397975315
             0.5442493    0.74430825237435
 p    1 1.00
             0.1687144                   1
 d    1 1.00
                   0.8                   1

2 0
 s    3 1.00
             18.731137    0.03349459952309
             2.8253937    0.23472694665786
             0.6401217    0.81375731841339
 s    1 1.00
             0.1612778                   1

3 0
 s    6 1.00
             3047.5249  0.0018347001629433
             457.36951    0.01403730124668
             103.94869   0.068842606114048
             29.210155    0.23218442062076
              9.286663    0.46794134155879
              3.163927    0.36231203217765
 s    3 1.00
             7.8682724   -0.11933240861517
             1.8812885   -0.16085421161283
             0.5442493     1.1434564825515
 s    1 1.00
             0.1687144                   1
 p    3 1.00
             7.8682724   0.068999095584993
             1.8812885    0.31642397975315
             0.5442493    0.74430825237435
 p    1 1.00
             0.1687144                   1
 d    1 1.00
                   0.8                   1

4 0
 s    3 1.00
             18.731137    0.03349459952309
             2.8253937    0.23472694665786
             0.6401217    0.81375731841339
 s    1 1.00
             0.1612778                   1

5 0
 s    6 1.00
             3047.5249  0.0018347001629433
             457.36951    0.01403730124668
             103.94869   0.068842606114048
             29.210155    0.23218442062076
              9.286663    0.46794134155879
              3.163927    0.36231203217765
 s    3 1.00
             7.8682724   -0.11933240861517
             1.8812885   -0.16085421161283
             0.5442493     1.1434564825515
 s    1 1.00
             0.1687144                   1
 p    3 1.00
             7.8682724   0.068999095584993
             1.8812885    0.31642397975315
             0.5442493    0.74430825237435
 p    1 1.00
             0.1687144                   1
 d    1 1.00
                   0.8                   1

6 0
 s    3 1.00
             18.731137    0.03349459952309
             2.8253937    0.23472694665786
             0.6401217    0.81375731841339
 s    1 1.00
             0.1612778                   1

7 0
 s    6 1.00
             3047.5249  0.0018347001629433
             457.36951    0.01403730124668
             103.94869   0.068842606114048
             29.210155    0.23218442062076
              9.286663    0.46794134155879
              3.163927    0.36231203217765
 s    3 1.00
             7.8682724   -0.11933240861517
             1.8812885   -0.16085421161283
             0.5442493     1.1434564825515
 s    1 1.00
             0.1687144                   1
 p    3 1.00
             7.8682724   0.068999095584993
             1.8812885    0.31642397975315
             0.5442493    0.74430825237435
 p    1 1.00
             0.1687144                   1
 d    1 1.00
                   0.8                   1

8 0
 s    3 1.00
             18.731137    0.03349459952309
             2.8253937    0.23472694665786
             0.6401217    0.81375731841339
 s    1 1.00
             0.1612778                   1

9 0
 s    3 1.00
             18.731137    0.03349459952309
             2.8253937    0.23472694665786
             0.6401217    0.81375731841339
 s    1 1.00
             0.1612778                   1

10 0
 s    6 1.00
             3047.5249  0.0018347001629433
             457.36951    0.01403730124668
             103.94869   0.068842606114048
             29.210155    0.23218442062076
              9.286663    0.46794134155879
              3.163927    0.36231203217765
 s    3 1.00
             7.8682724   -0.11933240861517
             1.8812885   -0.16085421161283
             0.5442493     1.1434564825515
 s    1 1.00
             0.1687144                   1
 p    3 1.00
             7.8682724   0.068999095584993
             1.8812885    0.31642397975315
             0.5442493    0.74430825237435
 p    1 1.00
             0.1687144                   1
 d    1 1.00
                   0.8                   1

11 0
 s    3 1.00
             18.731137    0.03349459952309
             2.8253937    0.23472694665786
             0.6401217    0.81375731841339
 s    1 1.00
             0.1612778                   1

12 0
 s    6 1.00
             3047.5249  0.0018347001629433
             457.36951    0.01403730124668
             103.94869   0.068842606114048
             29.210155    0.23218442062076
              9.286663    0.46794134155879
              3.163927    0.36231203217765
 s    3 1.00
             7.8682724   -0.11933240861517
             1.8812885   -0.16085421161283
             0.5442493     1.1434564825515
 s    1 1.00
             0.1687144                   1
 p    3 1.00
             7.8682724   0.068999095584993
             1.8812885    0.31642397975315
             0.5442493    0.74430825237435
 p    1 1.00
             0.1687144                   1
 d    1 1.00
                   0.8                   1

13 0
 s    3 1.00
             18.731137    0.03349459952309
             2.8253937    0.23472694665786
             0.6401217    0.81375731841339
 s    1 1.00
             0.1612778                   1

14 0
 s    3 1.00
             18.731137    0.03349459952309
             2.8253937    0.23472694665786
             0.6401217    0.81375731841339
 s    1 1.00
             0.1612778                   1

15 0
 s    6 1.00
             3047.5249  0.0018347001629433
             457.36951    0.01403730124668
             103.94869   0.068842606114048
             29.210155    0.23218442062076
              9.286663    0.46794134155879
              3.163927    0.36231203217765
 s    3 1.00
             7.8682724   -0.11933240861517
             1.8812885   -0.16085421161283
             0.5442493     1.1434564825515
 s    1 1.00
             0.1687144                   1
 p    3 1.00
             7.8682724   0.068999095584993
             1.8812885    0.31642397975315
             0.5442493    0.74430825237435
 p    1 1.00
             0.1687144                   1
 d    1 1.00
                   0.8                   1

16 0
 s    6 1.00
             3047.5249  0.0018347001629433
             457.36951    0.01403730124668
             103.94869   0.068842606114048
             29.210155    0.23218442062076
              9.286663    0.46794134155879
              3.163927    0.36231203217765
 s    3 1.00
             7.8682724   -0.11933240861517
             1.8812885   -0.16085421161283
             0.5442493     1.1434564825515
 s    1 1.00
             0.1687144                   1
 p    3 1.00
             7.8682724   0.068999095584993
             1.8812885    0.31642397975315
             0.5442493    0.74430825237435
 p    1 1.00
             0.1687144                   1
 d    1 1.00
                   0.8                   1

17 0
 s    6 1.00
             3047.5249  0.0018347001629433
             457.36951    0.01403730124668
             103.94869   0.068842606114048
             29.210155    0.23218442062076
              9.286663    0.46794134155879
              3.163927    0.36231203217765
 s    3 1.00
             7.8682724   -0.11933240861517
             1.8812885   -0.16085421161283
             0.5442493     1.1434564825515
 s    1 1.00
             0.1687144                   1
 p    3 1.00
             7.8682724   0.068999095584993
             1.8812885    0.31642397975315
             0.5442493    0.74430825237435
 p    1 1.00
             0.1687144                   1
 d    1 1.00
                   0.8                   1

18 0
 s    6 1.00
             3047.5249  0.0018347001629433
             457.36951    0.01403730124668
             103.94869   0.068842606114048
             29.210155    0.23218442062076
              9.286663    0.46794134155879
              3.163927    0.36231203217765
 s    3 1.00
             7.8682724   -0.11933240861517
             1.8812885   -0.16085421161283
             0.5442493     1.1434564825515
 s    1 1.00
             0.1687144                   1
 p    3 1.00
             7.8682724   0.068999095584993
             1.8812885    0.31642397975315
             0.5442493    0.74430825237435
 p    1 1.00
             0.1687144                   1
 d    1 1.00
                   0.8                   1

19 0
 s    6 1.00
             3047.5249  0.0018347001629433
             457.36951    0.01403730124668
             103.94869   0.068842606114048
             29.210155    0.23218442062076
              9.286663    0.46794134155879
              3.163927    0.36231203217765
 s    3 1.00
             7.8682724   -0.11933240861517
             1.8812885   -0.16085421161283
             0.5442493     1.1434564825515
 s    1 1.00
             0.1687144                   1
 p    3 1.00
             7.8682724   0.068999095584993
             1.8812885    0.31642397975315
             0.5442493    0.74430825237435
 p    1 1.00
             0.1687144                   1
 d    1 1.00
                   0.8                   1

20 0
 s    6 1.00
             3047.5249  0.0018347001629433
             457.36951    0.01403730124668
             103.94869   0.068842606114048
             29.210155    0.23218442062076
              9.286663    0.46794134155879
              3.163927    0.36231203217765
 s    3 1.00
             7.8682724   -0.11933240861517
             1.8812885   -0.16085421161283
             0.5442493     1.1434564825515
 s    1 1.00
             0.1687144                   1
 p    3 1.00
             7.8682724   0.068999095584993
             1.8812885    0.31642397975315
             0.5442493    0.74430825237435
 p    1 1.00
             0.1687144                   1
 d    1 1.00
                   0.8                   1

21 0
 s    6 1.00
             3047.5249  0.0018347001629433
             457.36951    0.01403730124668
             103.94869   0.068842606114048
             29.210155    0.23218442062076
              9.286663    0.46794134155879
              3.163927    0.36231203217765
 s    3 1.00
             7.8682724   -0.11933240861517
             1.8812885   -0.16085421161283
             0.5442493     1.1434564825515
 s    1 1.00
             0.1687144                   1
 p    3 1.00
             7.8682724   0.068999095584993
             1.8812885    0.31642397975315
             0.5442493    0.74430825237435
 p    1 1.00
             0.1687144                   1
 d    1 1.00
                   0.8                   1

22 0
 s    3 1.00
             18.731137    0.03349459952309
             2.8253937    0.23472694665786
             0.6401217    0.81375731841339
 s    1 1.00
             0.1612778                   1

23 0
 s    3 1.00
             18.731137    0.03349459952309
             2.8253937    0.23472694665786
             0.6401217    0.81375731841339
 s    1 1.00
             0.1612778                   1

24 0
 s    3 1.00
             18.731137    0.03349459952309
             2.8253937    0.23472694665786
             0.6401217    0.81375731841339
 s    1 1.00
             0.1612778                   1

25 0
 s    3 1.00
             18.731137    0.03349459952309
             2.8253937    0.23472694665786
             0.6401217    0.81375731841339
 s    1 1.00
             0.1612778                   1

26 0
 s    3 1.00
             18.731137    0.03349459952309
             2.8253937    0.23472694665786
             0.6401217    0.81375731841339
 s    1 1.00
             0.1612778                   1

27 0
 s    3 1.00
             18.731137    0.03349459952309
             2.8253937    0.23472694665786
             0.6401217    0.81375731841339
 s    1 1.00
             0.1612778                   1

28 0
 s    3 1.00
             18.731137    0.03349459952309
             2.8253937    0.23472694665786
             0.6401217    0.81375731841339
 s    1 1.00
             0.1612778                   1

29 0
 s    3 1.00
             18.731137    0.03349459952309
             2.8253937    0.23472694665786
             0.6401217    0.81375731841339
 s    1 1.00
             0.1612778                   1

30 0
 s    3 1.00
             18.731137    0.03349459952309
             2.8253937    0.23472694665786
             0.6401217    0.81375731841339
 s    1 1.00
             0.1612778                   1

31 0
 s    3 1.00
             18.731137    0.03349459952309
             2.8253937    0.23472694665786
             0.6401217    0.81375731841339
 s    1 1.00
             0.1612778                   1

32 0
 s    3 1.00
             18.731137    0.03349459952309
             2.8253937    0.23472694665786
             0.6401217    0.81375731841339
 s    1 1.00
             0.1612778                   1

33 0
 s    6 1.00
             3047.5249  0.0018347001629433
             457.36951    0.01403730124668
             103.94869   0.068842606114048
             29.210155    0.23218442062076
              9.286663    0.46794134155879
              3.163927    0.36231203217765
 s    3 1.00
             7.8682724   -0.11933240861517
             1.8812885   -0.16085421161283
             0.5442493     1.1434564825515
 s    1 1.00
             0.1687144                   1
 p    3 1.00
             7.8682724   0.068999095584993
             1.8812885    0.31642397975315
             0.5442493    0.74430825237435
 p    1 1.00
             0.1687144                   1
 d    1 1.00
                   0.8                   1

34 0
 s    6 1.00
             3047.5249  0.0018347001629433
             457.36951    0.01403730124668
             103.94869   0.068842606114048
             29.210155    0.23218442062076
              9.286663    0.46794134155879
              3.163927    0.36231203217765
 s    3 1.00
             7.8682724   -0.11933240861517
             1.8812885   -0.16085421161283
             0.5442493     1.1434564825515
 s    1 1.00
             0.1687144                   1
 p    3 1.00
             7.8682724   0.068999095584993
             1.8812885    0.31642397975315
             0.5442493    0.74430825237435
 p    1 1.00
             0.1687144                   1
 d    1 1.00
                   0.8                   1

35 0
 s    3 1.00
             18.731137    0.03349459952309
             2.8253937    0.23472694665786
             0.6401217    0.81375731841339
 s    1 1.00
             0.1612778                   1

36 0
 s    6 1.00
             3047.5249  0.0018347001629433
             457.36951    0.01403730124668
             103.94869   0.068842606114048
             29.210155    0.23218442062076
              9.286663    0.46794134155879
              3.163927    0.36231203217765
 s    3 1.00
             7.8682724   -0.11933240861517
             1.8812885   -0.16085421161283
             0.5442493     1.1434564825515
 s    1 1.00
             0.1687144                   1
 p    3 1.00
             7.8682724   0.068999095584993
             1.8812885    0.31642397975315
             0.5442493    0.74430825237435
 p    1 1.00
             0.1687144                   1
 d    1 1.00
                   0.8                   1

37 0
 s    3 1.00
             18.731137    0.03349459952309
             2.8253937    0.23472694665786
             0.6401217    0.81375731841339
 s    1 1.00
             0.1612778                   1

38 0
 s    3 1.00
             18.731137    0.03349459952309
             2.8253937    0.23472694665786
             0.6401217    0.81375731841339
 s    1 1.00
             0.1612778                   1

39 0
 s    6 1.00
             3047.5249  0.0018347001629433
             457.36951    0.01403730124668
             103.94869   0.068842606114048
             29.210155    0.23218442062076
              9.286663    0.46794134155879
              3.163927    0.36231203217765
 s    3 1.00
             7.8682724   -0.11933240861517
             1.8812885   -0.16085421161283
             0.5442493     1.1434564825515
 s    1 1.00
             0.1687144                   1
 p    3 1.00
             7.8682724   0.068999095584993
             1.8812885    0.31642397975315
             0.5442493    0.74430825237435
 p    1 1.00
             0.1687144                   1
 d    1 1.00
                   0.8                   1

40 0
 s    6 1.00
             3047.5249  0.0018347001629433
             457.36951    0.01403730124668
             103.94869   0.068842606114048
             29.210155    0.23218442062076
              9.286663    0.46794134155879
              3.163927    0.36231203217765
 s    3 1.00
             7.8682724   -0.11933240861517
             1.8812885   -0.16085421161283
             0.5442493     1.1434564825515
 s    1 1.00
             0.1687144                   1
 p    3 1.00
             7.8682724   0.068999095584993
             1.8812885    0.31642397975315
             0.5442493    0.74430825237435
 p    1 1.00
             0.1687144                   1
 d    1 1.00
                   0.8                   1

41 0
 s    3 1.00
             18.731137    0.03349459952309
             2.8253937    0.23472694665786
             0.6401217    0.81375731841339
 s    1 1.00
             0.1612778                   1

42 0
 s    6 1.00
             5484.6717   0.001831099805527
             825.23495   0.013950098518422
             188.04696    0.06844509273075
               52.9645    0.23271427528445
              16.89757    0.47019295006289
             5.7996353    0.35852086192309
 s    3 1.00
             15.539616   -0.11077750382508
             3.5999336   -0.14802630511126
             1.0137618     1.1307670390447
 s    1 1.00
             0.2700058                   1
 p    3 1.00
             15.539616   0.070874299543311
             3.5999336    0.33975279781076
             1.0137618    0.72715859531445
 p    1 1.00
             0.2700058                   1
 d    1 1.00
                   0.8                   1

43 0
 s    3 1.00
             18.731137    0.03349459952309
             2.8253937    0.23472694665786
             0.6401217    0.81375731841339
 s    1 1.00
             0.1612778                   1

[5d]
[7f]
[9g]

[MO]
 Sym= A
 Ene=               0
 Spin= Alpha
 Occup=    1.00000
   1    -1.7949940016771e-06
   2    -3.0935517489616e-05
   3    -0.00013946704099394
   4    -5.7457502764599e-06
   5    -3.5896316846438e-05
   6    2.3119432179358e-05
   7    0.00021106753662634
   8    0.00024286446936451
   9    -0.00059148718901359
  10    1.5913333261934e-05
  11    2.0438183430953e-05
  12    -3.130764720396e-07
  13    5.9180634841631e-07
  14    7.8328854239557e-07
  15    -3.5602260226041e-05
  16    -3.3414835728602e-05
  17    8.8052319618083e-06
  18    3.3253730985753e-05
  19    -0.0015894673999757
  20    -1.2719359544548e-05
  21    1.485685637775e-05
  22    5.2753932348733e-05
  23    -0.00033324879971455
  24    -0.00011861569760104
  25    0.00069298904897432
  26    -4.8890660245419e-05
  27    1.755962707978e-05
  28    2.0076510519488e-05
  29    -2.07295171916e-05
  30    2.8984488018112e-05
  31    5.5876806392678e-06
  32    7.4955647191917e-05
  33    -4.3775027718069e-05
  34    -0.00036310307392857
  35    0.0049038540154341
  36    5.0451502766414e-05
  37    5.6659591836471e-06
  38    -8.4744997667032e-05
  39    -0.0013487509842336
  40    -0.0012401133541795
  41    -0.0012807729450567
  42    0.00014723547374332
  43    1.0188778224574e-05
  44    6.0483092596657e-05
  45     2.12780556173e-06
  46    4.7728115068881e-05
  47    2.9665397378426e-05
  48    0.00030544620239677
  49    -2.8875941361497e-05
  50    -2.6983087258981e-05
  51    -0.0037510293783424
  52    9.0729372036189e-05
  53     0.000125477099815
  54    0.00026709518646515
  55    -0.00098633804614583
  56    -0.0013972829556864
  57    -0.0035634623308683
  58    -0.00010644163643926
  59    -0.00014134214811069
  60    -0.00013332048220044
  61    4.4281925856502e-05
  62    9.8878924309557e-05
  63    -0.00024899112952185
  64    -7.505612630886e-05
  65    -7.6924396944134e-08
  66    1.1890398834536e-06
  67    -1.115934409818e-07
  68    -7.2868250491935e-07
  69    -9.9896692951394e-07
  70    7.289490043024e-07
  71    -7.0036489254687e-07
  72    1.2292767753176e-07
  73    1.7427250342937e-06
  74    -1.9551768315728e-07
  75    -1.8106401090761e-06
  76    1.7672622545317e-07
  77    5.9893607729959e-08
  78    1.0008111253656e-07
  79    5.368289908812e-08
  80    5.8079465125583e-08
  81    5.509105473163e-08
  82    2.6272802328561e-07
  83    1.3254668895313e-07
  84    1.3589067100647e-06
  85    -5.3502301078075e-06
  86    -1.3631126508096e-07
  87    -2.7769455436182e-07
  88    2.6832386659625e-07
  89     2.81249771754e-06
  90    -4.968179709032e-06
  91    -1.4081949818217e-07
  92    -6.7122452075595e-08
  93    -3.6622691293796e-07
  94    5.3465247023987e-07
  95    -2.45319297958e-07
  96    -4.5674539868419e-08
  97    3.2224416556262e-07
  98    -6.5444830707942e-07
  99    4.6254552275053e-08
 100    -4.490036358863e-07
 101    -2.6991621219839e-07
 102    -1.6067557142961e-06
 103    5.1785289175304e-05
 104    9.3892307358483e-07
 105    2.0285446971917e-06
 106    -1.5647233061858e-06
 107    -2.0306173236087e-05
 108    2.3400169829245e-05
 109    -5.0926659648998e-06
 110    5.720005620545e-07
 111    8.6910919938787e-07
 112    -4.0256341151173e-07
 113    -6.1714629990921e-07
 114    -1.1386425480146e-06
 115    3.4275422618122e-07
 116    3.6973993256587e-06
 117    -1.0328339630929e-05
 118    -1.7928596278063e-07
 119    8.0634834276935e-07
 120    -8.8439499843884e-07
 121    3.0256570418299e-06
 122    -6.3644187925821e-06
 123    1.2906837659793e-05
 124    3.680062051557e-07
 125    -4.2116715832397e-07
 126    -3.4326019196027e-07
 127    -7.9695225365027e-08
 128    -1.7017265107968e-07
 129    2.0530057804858e-07
 130    3.847148499691e-06
 131    3.042361718442e-05
 132    4.0831918903111e-06
 133    3.0409094533362e-06
 134    -3.8140844229726e-06
 135    -7.2911417345117e-05
 136    5.2436104791746e-06
 137    -1.7836573209302e-05
 138    5.5371302227763e-07
 139    5.306085904623e-07
 140    1.8751181386346e-06
 141    -2.2134499597286e-07
 142    1.2384205210988e-06
 143    -1.278162678088e-07
 144    -1.5038332089175e-06
 145    -2.2045042992203e-05
 146    -1.441868568894e-07
 147    -1.3810507864754e-06
 148    3.0180124240054e-06
 149    -7.1202835970254e-06
 150    2.7012460224341e-05
 151    -1.3336337718898e-05
 152    -5.0018492722801e-07
 153    8.8188842921945e-08
 154    -1.427241050235e-06
 155    -1.331348039157e-07
 156    -6.5997604078251e-07
 157    4.1907267061873e-07
 158    3.527028553114e-06
 159    -2.2547298350399e-05
 160    -6.8552100275492e-08
 161    8.3658822234534e-07
 162    -1.1934436202494e-06
 163    -7.2509371927271e-06
 164    8.9934085855263e-06
 165    1.0116094474023e-06
 166    7.3364656527893e-07
 167    -2.5866912074233e-07
 168    1.5724879695147e-07
 169    3.4548472898156e-07
 170    5.6064494282445e-07
 171    -4.6474960286398e-08
 172    3.832081894828e-07
 173    3.9162092452988e-06
 174    1.9971383933603e-07
 175    -1.2156431224329e-07
 176    7.9423603862818e-07
 177    8.3862645824081e-06
 178    2.9678672081329e-06
 179    4.3434001612133e-06
 180    -2.711003440352e-07
 181    9.4129815500424e-07
 182    5.3667769028989e-08
 183    5.5245000358748e-07
 184    7.0906232099103e-07
 185    -4.1503360046968e-07
 186    -3.769016875481e-06
 187    1.8560483502807e-05
 188    -7.6047329769594e-07
 189    -6.3259468875879e-08
 190    1.0066145457668e-07
 191    -6.3170031012513e-07
 192    -7.3914673398936e-06
 193    -7.9478974712645e-06
 194    3.0050521802845e-07
 195    5.2123242376919e-07
 196    1.0855619388137e-06
 197    -2.9321968348717e-07
 198    2.3826209318171e-07
 199    -1.1387118629939e-06
 200    1.3880000570123e-06
 201    -1.1417876819412e-07
 202    1.0621919261576e-06
 203    -5.7198064845774e-08
 204    -3.3951148687012e-06
 205    1.7531553648971e-06
 206    1.2912040987368e-07
 207    -8.0931981034423e-07
 208    1.6449516263638e-05
 209    1.7165235020614e-06
 210    3.7940080362289e-07
 211    1.3851557615918e-06
 212    1.9298971856746e-06
 213    2.9912017002088e-07
 214    -2.1872357049128e-06
 215    -1.7655568505818e-06
 216    1.1757998818374e-05
 217    3.6987367053369e-07
 218    -3.5382098813992e-07
 219    5.5795590171552e-07
 220    -1.8636520521571e-06
 221    -2.5556625161666e-06
 222    -1.27654041033e-05
 223    0.00016312647936656
 224    6.4994416002801e-06
 225    -3.6548063660718e-06
 226    -1.32788254943e-06
 227    2.2539080830419e-05
 228    3.0627414130177e-05
 229    -0.00017873739808529
 230    4.4264259319532e-06
 231    -5.8519317531838e-06
 232    -3.6965226882121e-06
 233    2.0237128849927e-06
 234    9.3898783568166e-07
 235    6.9568997130663e-06
 236    3.5402577145851e-05
 237    -0.00051424941978394
 238    -7.9853742778359e-06
 239    -1.0915065464571e-05
 240    5.6390997144627e-06
 241    0.00015805025482982
 242    4.0256016804092e-05
 243    9.464646679739e-05
 244    -1.4274424803496e-05
 245    1.2861580608072e-06
 246    2.880149049849e-06
 247    -1.4461552969289e-06
 248    -3.534538140198e-06
 249    -8.2372917018202e-06
 250    -1.7243010428686e-05
 251    1.5078624744023e-05
 252    -2.3838049569071e-05
 253    0.0007489525880472
 254    -9.3351845119016e-06
 255    8.1812920696755e-06
 256    -1.8882271794682e-05
 257    0.00032611232557982
 258    1.0778781317198e-05
 259    9.1450895300233e-05
 260    1.4219871098575e-05
 261    -2.5326707573627e-06
 262    -2.5161200286229e-06
 263    4.830516381405e-06
 264    -1.7699975233973e-06
 265    -8.151670624182e-06
 266    -1.3298102452718e-05
 267    2.2700819950112e-05
 268    4.0113214110664e-05
 269    -0.00026898663581867
 270    -0.00010955794240232
 271    -0.0031356972332926
 272    0.00019809779270629
 273    0.00023549918814401
 274    0.00043901704861023
 275    -0.0015677408310622
 276    -0.00072628504631603
 277    0.0036703546850237
 278    -0.00036288174490445
 279    7.527684410647e-05
 280    -7.1988789552709e-06