[Molden Format]
made by pyscf v[2.0.1]
[Atoms] (AU)
C   1   6     0.69100024066471     0.64692934207205    -3.48223131169301
H   2   1     2.68052439830868     1.13355088658700    -3.25784032593313
C   3   6    -0.36286361513219     0.85440132524594    -5.97030179418974
H   4   1    -2.35448549047279     0.36322488579172    -6.17995817793143
C   5   6     0.93697958957450     1.61209284601821    -8.05828437677121
H   6   1     2.82520634269342     2.40231158819155    -7.83223822317356
C   7   6    -0.04591716574067     1.43050675384137   -10.57963800872440
H   8   1    -1.93966227025444     0.63380613673234   -10.77641154630544
H   9   1     1.55630230933075    -1.92953025305990    12.99630010416247
C   10   6     0.75233899775814    -2.21270439606481    11.10705728102219
H   11   1    -0.43433408177274    -3.90944857546550    11.22216085340412
C   12   6     2.86362581178706    -2.63237380607947     9.17926416456045
H   13   1     4.39038949912609    -1.24955421540245     9.49899813497433
H   14   1     3.74629220191363    -4.48798724300892     9.47414880959024
C   15   6     2.02478325613682    -2.42177285709634     6.44560829588644
C   16   6     3.88048732735477    -3.58795445234514     4.61402886975252
C   17   6    -0.18412382258602    -1.30464291234259     5.76021113872346
C   18   6    -2.10044360464350    -0.26837831858460     7.71610340967100
C   19   6    -3.08956938670431     2.35282328359417     6.88693925039594
C   20   6    -4.37372924086464    -2.09766595989678     7.93610724222001
C   21   6    -0.83850430601230     0.06372213486173    10.33002307638377
H   22   1     0.38411922151109     1.74281358582432    10.27380136542181
H   23   1    -2.30980003007874     0.45460143924521    11.73986301809809
H   24   1     4.58527064644668    -5.38706904487420     5.36778158031719
H   25   1     5.54944938085014    -2.37631462192748     4.35398898413318
H   26   1     3.06633019150423    -3.94118377050688     2.75255466040884
H   27   1    -4.17727778763735     2.26573369139522     5.12914900961283
H   28   1    -1.52662344944051     3.68001877445626     6.59540397144508
H   29   1    -4.32916174397830     3.13643051467482     8.35225460090378
H   30   1    -5.32329548508442    -2.36691813602939     6.11583672749896
H   31   1    -5.77989366602257    -1.33896741843465     9.25748940450990
H   32   1    -3.79310905208926    -3.96389819310853     8.61386170102686
C   33   6    -1.01100794811226    -1.06331657314144     3.11929490449947
C   34   6     0.37686231036534    -0.33275864505552     1.09165013605873
H   35   1    -3.01671213906703    -1.40297922279997     2.77827895090944
C   36   6    -0.64382707979370    -0.11591880174385    -1.42063131251064
H   37   1     2.35569259782137     0.17174499283897     1.33641070251401
H   38   1    -2.63317482980319    -0.60229203511219    -1.66119700387645
C   39   6     1.17709071185639     2.16235266520763   -12.71162929579923
C   40   6     0.01149368127442     1.89967079998079   -15.19747007607967
H   41   1     3.06674924318564     2.97042403350516   -12.64854490967844
O   42   8     1.00001917973751     2.51860460578581   -17.18758625638360
H   43   1    -1.92257659968242     1.06364005135718   -15.17290072571517
[GTO]
1 0
 s    6 1.00
             3047.5249  0.0018347001629433
             457.36951    0.01403730124668
             103.94869   0.068842606114048
             29.210155    0.23218442062076
              9.286663    0.46794134155879
              3.163927    0.36231203217765
 s    3 1.00
             7.8682724   -0.11933240861517
             1.8812885   -0.16085421161283
             0.5442493     1.1434564825515
 s    1 1.00
             0.1687144                   1
 p    3 1.00
             7.8682724   0.068999095584993
             1.8812885    0.31642397975315
             0.5442493    0.74430825237435
 p    1 1.00
             0.1687144                   1
 d    1 1.00
                   0.8                   1

2 0
 s    3 1.00
             18.731137    0.03349459952309
             2.8253937    0.23472694665786
             0.6401217    0.81375731841339
 s    1 1.00
             0.1612778                   1

3 0
 s    6 1.00
             3047.5249  0.0018347001629433
             457.36951    0.01403730124668
             103.94869   0.068842606114048
             29.210155    0.23218442062076
              9.286663    0.46794134155879
              3.163927    0.36231203217765
 s    3 1.00
             7.8682724   -0.11933240861517
             1.8812885   -0.16085421161283
             0.5442493     1.1434564825515
 s    1 1.00
             0.1687144                   1
 p    3 1.00
             7.8682724   0.068999095584993
             1.8812885    0.31642397975315
             0.5442493    0.74430825237435
 p    1 1.00
             0.1687144                   1
 d    1 1.00
                   0.8                   1

4 0
 s    3 1.00
             18.731137    0.03349459952309
             2.8253937    0.23472694665786
             0.6401217    0.81375731841339
 s    1 1.00
             0.1612778                   1

5 0
 s    6 1.00
             3047.5249  0.0018347001629433
             457.36951    0.01403730124668
             103.94869   0.068842606114048
             29.210155    0.23218442062076
              9.286663    0.46794134155879
              3.163927    0.36231203217765
 s    3 1.00
             7.8682724   -0.11933240861517
             1.8812885   -0.16085421161283
             0.5442493     1.1434564825515
 s    1 1.00
             0.1687144                   1
 p    3 1.00
             7.8682724   0.068999095584993
             1.8812885    0.31642397975315
             0.5442493    0.74430825237435
 p    1 1.00
             0.1687144                   1
 d    1 1.00
                   0.8                   1

6 0
 s    3 1.00
             18.731137    0.03349459952309
             2.8253937    0.23472694665786
             0.6401217    0.81375731841339
 s    1 1.00
             0.1612778                   1

7 0
 s    6 1.00
             3047.5249  0.0018347001629433
             457.36951    0.01403730124668
             103.94869   0.068842606114048
             29.210155    0.23218442062076
              9.286663    0.46794134155879
              3.163927    0.36231203217765
 s    3 1.00
             7.8682724   -0.11933240861517
             1.8812885   -0.16085421161283
             0.5442493     1.1434564825515
 s    1 1.00
             0.1687144                   1
 p    3 1.00
             7.8682724   0.068999095584993
             1.8812885    0.31642397975315
             0.5442493    0.74430825237435
 p    1 1.00
             0.1687144                   1
 d    1 1.00
                   0.8                   1

8 0
 s    3 1.00
             18.731137    0.03349459952309
             2.8253937    0.23472694665786
             0.6401217    0.81375731841339
 s    1 1.00
             0.1612778                   1

9 0
 s    3 1.00
             18.731137    0.03349459952309
             2.8253937    0.23472694665786
             0.6401217    0.81375731841339
 s    1 1.00
             0.1612778                   1

10 0
 s    6 1.00
             3047.5249  0.0018347001629433
             457.36951    0.01403730124668
             103.94869   0.068842606114048
             29.210155    0.23218442062076
              9.286663    0.46794134155879
              3.163927    0.36231203217765
 s    3 1.00
             7.8682724   -0.11933240861517
             1.8812885   -0.16085421161283
             0.5442493     1.1434564825515
 s    1 1.00
             0.1687144                   1
 p    3 1.00
             7.8682724   0.068999095584993
             1.8812885    0.31642397975315
             0.5442493    0.74430825237435
 p    1 1.00
             0.1687144                   1
 d    1 1.00
                   0.8                   1

11 0
 s    3 1.00
             18.731137    0.03349459952309
             2.8253937    0.23472694665786
             0.6401217    0.81375731841339
 s    1 1.00
             0.1612778                   1

12 0
 s    6 1.00
             3047.5249  0.0018347001629433
             457.36951    0.01403730124668
             103.94869   0.068842606114048
             29.210155    0.23218442062076
              9.286663    0.46794134155879
              3.163927    0.36231203217765
 s    3 1.00
             7.8682724   -0.11933240861517
             1.8812885   -0.16085421161283
             0.5442493     1.1434564825515
 s    1 1.00
             0.1687144                   1
 p    3 1.00
             7.8682724   0.068999095584993
             1.8812885    0.31642397975315
             0.5442493    0.74430825237435
 p    1 1.00
             0.1687144                   1
 d    1 1.00
                   0.8                   1

13 0
 s    3 1.00
             18.731137    0.03349459952309
             2.8253937    0.23472694665786
             0.6401217    0.81375731841339
 s    1 1.00
             0.1612778                   1

14 0
 s    3 1.00
             18.731137    0.03349459952309
             2.8253937    0.23472694665786
             0.6401217    0.81375731841339
 s    1 1.00
             0.1612778                   1

15 0
 s    6 1.00
             3047.5249  0.0018347001629433
             457.36951    0.01403730124668
             103.94869   0.068842606114048
             29.210155    0.23218442062076
              9.286663    0.46794134155879
              3.163927    0.36231203217765
 s    3 1.00
             7.8682724   -0.11933240861517
             1.8812885   -0.16085421161283
             0.5442493     1.1434564825515
 s    1 1.00
             0.1687144                   1
 p    3 1.00
             7.8682724   0.068999095584993
             1.8812885    0.31642397975315
             0.5442493    0.74430825237435
 p    1 1.00
             0.1687144                   1
 d    1 1.00
                   0.8                   1

16 0
 s    6 1.00
             3047.5249  0.0018347001629433
             457.36951    0.01403730124668
             103.94869   0.068842606114048
             29.210155    0.23218442062076
              9.286663    0.46794134155879
              3.163927    0.36231203217765
 s    3 1.00
             7.8682724   -0.11933240861517
             1.8812885   -0.16085421161283
             0.5442493     1.1434564825515
 s    1 1.00
             0.1687144                   1
 p    3 1.00
             7.8682724   0.068999095584993
             1.8812885    0.31642397975315
             0.5442493    0.74430825237435
 p    1 1.00
             0.1687144                   1
 d    1 1.00
                   0.8                   1

17 0
 s    6 1.00
             3047.5249  0.0018347001629433
             457.36951    0.01403730124668
             103.94869   0.068842606114048
             29.210155    0.23218442062076
              9.286663    0.46794134155879
              3.163927    0.36231203217765
 s    3 1.00
             7.8682724   -0.11933240861517
             1.8812885   -0.16085421161283
             0.5442493     1.1434564825515
 s    1 1.00
             0.1687144                   1
 p    3 1.00
             7.8682724   0.068999095584993
             1.8812885    0.31642397975315
             0.5442493    0.74430825237435
 p    1 1.00
             0.1687144                   1
 d    1 1.00
                   0.8                   1

18 0
 s    6 1.00
             3047.5249  0.0018347001629433
             457.36951    0.01403730124668
             103.94869   0.068842606114048
             29.210155    0.23218442062076
              9.286663    0.46794134155879
              3.163927    0.36231203217765
 s    3 1.00
             7.8682724   -0.11933240861517
             1.8812885   -0.16085421161283
             0.5442493     1.1434564825515
 s    1 1.00
             0.1687144                   1
 p    3 1.00
             7.8682724   0.068999095584993
             1.8812885    0.31642397975315
             0.5442493    0.74430825237435
 p    1 1.00
             0.1687144                   1
 d    1 1.00
                   0.8                   1

19 0
 s    6 1.00
             3047.5249  0.0018347001629433
             457.36951    0.01403730124668
             103.94869   0.068842606114048
             29.210155    0.23218442062076
              9.286663    0.46794134155879
              3.163927    0.36231203217765
 s    3 1.00
             7.8682724   -0.11933240861517
             1.8812885   -0.16085421161283
             0.5442493     1.1434564825515
 s    1 1.00
             0.1687144                   1
 p    3 1.00
             7.8682724   0.068999095584993
             1.8812885    0.31642397975315
             0.5442493    0.74430825237435
 p    1 1.00
             0.1687144                   1
 d    1 1.00
                   0.8                   1

20 0
 s    6 1.00
             3047.5249  0.0018347001629433
             457.36951    0.01403730124668
             103.94869   0.068842606114048
             29.210155    0.23218442062076
              9.286663    0.46794134155879
              3.163927    0.36231203217765
 s    3 1.00
             7.8682724   -0.11933240861517
             1.8812885   -0.16085421161283
             0.5442493     1.1434564825515
 s    1 1.00
             0.1687144                   1
 p    3 1.00
             7.8682724   0.068999095584993
             1.8812885    0.31642397975315
             0.5442493    0.74430825237435
 p    1 1.00
             0.1687144                   1
 d    1 1.00
                   0.8                   1

21 0
 s    6 1.00
             3047.5249  0.0018347001629433
             457.36951    0.01403730124668
             103.94869   0.068842606114048
             29.210155    0.23218442062076
              9.286663    0.46794134155879
              3.163927    0.36231203217765
 s    3 1.00
             7.8682724   -0.11933240861517
             1.8812885   -0.16085421161283
             0.5442493     1.1434564825515
 s    1 1.00
             0.1687144                   1
 p    3 1.00
             7.8682724   0.068999095584993
             1.8812885    0.31642397975315
             0.5442493    0.74430825237435
 p    1 1.00
             0.1687144                   1
 d    1 1.00
                   0.8                   1

22 0
 s    3 1.00
             18.731137    0.03349459952309
             2.8253937    0.23472694665786
             0.6401217    0.81375731841339
 s    1 1.00
             0.1612778                   1

23 0
 s    3 1.00
             18.731137    0.03349459952309
             2.8253937    0.23472694665786
             0.6401217    0.81375731841339
 s    1 1.00
             0.1612778                   1

24 0
 s    3 1.00
             18.731137    0.03349459952309
             2.8253937    0.23472694665786
             0.6401217    0.81375731841339
 s    1 1.00
             0.1612778                   1

25 0
 s    3 1.00
             18.731137    0.03349459952309
             2.8253937    0.23472694665786
             0.6401217    0.81375731841339
 s    1 1.00
             0.1612778                   1

26 0
 s    3 1.00
             18.731137    0.03349459952309
             2.8253937    0.23472694665786
             0.6401217    0.81375731841339
 s    1 1.00
             0.1612778                   1

27 0
 s    3 1.00
             18.731137    0.03349459952309
             2.8253937    0.23472694665786
             0.6401217    0.81375731841339
 s    1 1.00
             0.1612778                   1

28 0
 s    3 1.00
             18.731137    0.03349459952309
             2.8253937    0.23472694665786
             0.6401217    0.81375731841339
 s    1 1.00
             0.1612778                   1

29 0
 s    3 1.00
             18.731137    0.03349459952309
             2.8253937    0.23472694665786
             0.6401217    0.81375731841339
 s    1 1.00
             0.1612778                   1

30 0
 s    3 1.00
             18.731137    0.03349459952309
             2.8253937    0.23472694665786
             0.6401217    0.81375731841339
 s    1 1.00
             0.1612778                   1

31 0
 s    3 1.00
             18.731137    0.03349459952309
             2.8253937    0.23472694665786
             0.6401217    0.81375731841339
 s    1 1.00
             0.1612778                   1

32 0
 s    3 1.00
             18.731137    0.03349459952309
             2.8253937    0.23472694665786
             0.6401217    0.81375731841339
 s    1 1.00
             0.1612778                   1

33 0
 s    6 1.00
             3047.5249  0.0018347001629433
             457.36951    0.01403730124668
             103.94869   0.068842606114048
             29.210155    0.23218442062076
              9.286663    0.46794134155879
              3.163927    0.36231203217765
 s    3 1.00
             7.8682724   -0.11933240861517
             1.8812885   -0.16085421161283
             0.5442493     1.1434564825515
 s    1 1.00
             0.1687144                   1
 p    3 1.00
             7.8682724   0.068999095584993
             1.8812885    0.31642397975315
             0.5442493    0.74430825237435
 p    1 1.00
             0.1687144                   1
 d    1 1.00
                   0.8                   1

34 0
 s    6 1.00
             3047.5249  0.0018347001629433
             457.36951    0.01403730124668
             103.94869   0.068842606114048
             29.210155    0.23218442062076
              9.286663    0.46794134155879
              3.163927    0.36231203217765
 s    3 1.00
             7.8682724   -0.11933240861517
             1.8812885   -0.16085421161283
             0.5442493     1.1434564825515
 s    1 1.00
             0.1687144                   1
 p    3 1.00
             7.8682724   0.068999095584993
             1.8812885    0.31642397975315
             0.5442493    0.74430825237435
 p    1 1.00
             0.1687144                   1
 d    1 1.00
                   0.8                   1

35 0
 s    3 1.00
             18.731137    0.03349459952309
             2.8253937    0.23472694665786
             0.6401217    0.81375731841339
 s    1 1.00
             0.1612778                   1

36 0
 s    6 1.00
             3047.5249  0.0018347001629433
             457.36951    0.01403730124668
             103.94869   0.068842606114048
             29.210155    0.23218442062076
              9.286663    0.46794134155879
              3.163927    0.36231203217765
 s    3 1.00
             7.8682724   -0.11933240861517
             1.8812885   -0.16085421161283
             0.5442493     1.1434564825515
 s    1 1.00
             0.1687144                   1
 p    3 1.00
             7.8682724   0.068999095584993
             1.8812885    0.31642397975315
             0.5442493    0.74430825237435
 p    1 1.00
             0.1687144                   1
 d    1 1.00
                   0.8                   1

37 0
 s    3 1.00
             18.731137    0.03349459952309
             2.8253937    0.23472694665786
             0.6401217    0.81375731841339
 s    1 1.00
             0.1612778                   1

38 0
 s    3 1.00
             18.731137    0.03349459952309
             2.8253937    0.23472694665786
             0.6401217    0.81375731841339
 s    1 1.00
             0.1612778                   1

39 0
 s    6 1.00
             3047.5249  0.0018347001629433
             457.36951    0.01403730124668
             103.94869   0.068842606114048
             29.210155    0.23218442062076
              9.286663    0.46794134155879
              3.163927    0.36231203217765
 s    3 1.00
             7.8682724   -0.11933240861517
             1.8812885   -0.16085421161283
             0.5442493     1.1434564825515
 s    1 1.00
             0.1687144                   1
 p    3 1.00
             7.8682724   0.068999095584993
             1.8812885    0.31642397975315
             0.5442493    0.74430825237435
 p    1 1.00
             0.1687144                   1
 d    1 1.00
                   0.8                   1

40 0
 s    6 1.00
             3047.5249  0.0018347001629433
             457.36951    0.01403730124668
             103.94869   0.068842606114048
             29.210155    0.23218442062076
              9.286663    0.46794134155879
              3.163927    0.36231203217765
 s    3 1.00
             7.8682724   -0.11933240861517
             1.8812885   -0.16085421161283
             0.5442493     1.1434564825515
 s    1 1.00
             0.1687144                   1
 p    3 1.00
             7.8682724   0.068999095584993
             1.8812885    0.31642397975315
             0.5442493    0.74430825237435
 p    1 1.00
             0.1687144                   1
 d    1 1.00
                   0.8                   1

41 0
 s    3 1.00
             18.731137    0.03349459952309
             2.8253937    0.23472694665786
             0.6401217    0.81375731841339
 s    1 1.00
             0.1612778                   1

42 0
 s    6 1.00
             5484.6717   0.001831099805527
             825.23495   0.013950098518422
             188.04696    0.06844509273075
               52.9645    0.23271427528445
              16.89757    0.47019295006289
             5.7996353    0.35852086192309
 s    3 1.00
             15.539616   -0.11077750382508
             3.5999336   -0.14802630511126
             1.0137618     1.1307670390447
 s    1 1.00
             0.2700058                   1
 p    3 1.00
             15.539616   0.070874299543311
             3.5999336    0.33975279781076
             1.0137618    0.72715859531445
 p    1 1.00
             0.2700058                   1
 d    1 1.00
                   0.8                   1

43 0
 s    3 1.00
             18.731137    0.03349459952309
             2.8253937    0.23472694665786
             0.6401217    0.81375731841339
 s    1 1.00
             0.1612778                   1

[5d]
[7f]
[9g]

[MO]
 Sym= A
 Ene=               0
 Spin= Alpha
 Occup=    1.00000
   1    -4.696247014791e-06
   2    -5.3480335689845e-05
   3    -4.91691185645e-05
   4    -2.0290989437227e-05
   5    -2.5581140382359e-05
   6    4.2105701151654e-05
   7    0.00026288801587067
   8    0.00029829795970731
   9    -0.0010003087606886
  10    2.2837573371419e-05
  11    3.6954055794225e-05
  12    9.9450937239767e-07
  13    7.3165179289236e-06
  14    -2.0861221918413e-06
  15    -5.241465887908e-05
  16    -2.9435939002092e-05
  17    2.0134989378073e-05
  18    9.7077489457287e-05
  19    -0.0022095263991983
  20    -1.2777418866668e-05
  21    -5.1890110671292e-06
  22    6.2257843073305e-05
  23    -0.0004452694148954
  24    -0.00021742907716908
  25    0.00069598916702551
  26    -6.1496592489453e-05
  27    1.2580378129419e-05
  28    2.4455144174944e-05
  29    -3.683231114877e-06
  30    1.2913550896786e-05
  31    4.1049380429409e-06
  32    0.00012276135295451
  33    -6.4226055328532e-05
  34    -0.00039721184904382
  35    0.0055292824060212
  36    3.866478711947e-05
  37    1.7423759424385e-05
  38    -9.4886325837467e-05
  39    -0.0019594477566812
  40    -0.000679036970624
  41    -0.0014235472822208
  42    0.00016303588310383
  43    5.7451338155271e-05
  44    -4.6042017991565e-06
  45    3.6211831656365e-05
  46    3.4275813679545e-05
  47    4.6260567762606e-05
  48    0.00032357321944786
  49    -3.887783931016e-05
  50    -0.00013926689995374
  51    -0.0041671244575317
  52    0.0001032334513908
  53    1.3172567333218e-05
  54    0.0003802107436588
  55    -0.0016931436928871
  56    -0.0003820143427544
  57    -0.0038605119811894
  58    -0.00011283750328287
  59    -0.00018358692171334
  60    -7.1101015126306e-05
  61    5.3229622653957e-05
  62    7.9903222877742e-05
  63    -0.000289679048451
  64    -0.00013074685662497
  65    -1.4816070378277e-07
  66    1.9626632659768e-06
  67    -1.4196900466768e-07
  68    -1.5373169395277e-06
  69    3.1570461649239e-07
  70    8.9576135165453e-07
  71    -9.8738031553841e-07
  72    4.3228385369147e-07
  73    2.0752911435308e-06
  74    7.486735552213e-07
  75    -2.8462834745294e-06
  76    2.5570748661058e-07
  77    6.1318851392237e-08
  78    1.6105437348535e-07
  79    1.3584602469727e-07
  80    7.6554771808286e-08
  81    9.6006414650646e-08
  82    6.7000908508359e-07
  83    3.0334420014614e-07
  84    2.1209364562175e-06
  85    -1.118728911669e-05
  86    4.1536690489951e-07
  87    1.2834100272727e-07
  88    8.1752440729748e-07
  89    5.8045519677116e-06
  90    -9.4152051183281e-06
  91    3.5833049772715e-07
  92    -1.2830148175372e-07
  93    -5.2689314464417e-07
  94    9.8724881058454e-07
  95    -3.450752712063e-07
  96    -7.5524281492806e-09
  97    1.4636043878453e-06
  98    7.8613717604704e-07
  99    -3.841696175968e-07
 100    -1.7154620441582e-06
 101    -7.132008946288e-07
 102    -3.1153293567476e-06
 103    9.1208182137743e-05
 104    -1.1391501755725e-06
 105    1.8831997407165e-07
 106    -2.428706779235e-06
 107    -3.6821834391338e-05
 108    3.7097654912146e-05
 109    -5.65124672305e-06
 110    7.4395120557088e-07
 111    1.1609042077197e-06
 112    -5.1235500390591e-07
 113    -3.8790233566169e-07
 114    -1.744625298619e-06
 115    3.4248298420583e-07
 116    3.8302430651231e-06
 117    -4.4411614162694e-06
 118    -5.424489870868e-07
 119    2.0674306359864e-06
 120    -1.512004945222e-06
 121    4.0197917906954e-06
 122    -1.3426057812772e-05
 123    1.6158649350118e-05
 124    5.8106750473941e-07
 125    -5.358747543545e-07
 126    -7.9290037185158e-07
 127    -2.3721913853421e-07
 128    -1.8126540602825e-07
 129    2.5687861861357e-07
 130    2.1933290810703e-06
 131    4.8965347196679e-05
 132    5.7700453716839e-06
 133    1.1450912244706e-06
 134    -3.4443089815264e-06
 135    -0.00012091502203319
 136    1.2839467813086e-05
 137    -3.6571384192602e-05
 138    1.2715332075093e-06
 139    9.9677820558508e-07
 140    2.771758432402e-06
 141    -3.3932783483889e-07
 142    1.8540743678617e-06
 143    5.5520393657767e-08
 144    -1.6277496794162e-06
 145    -3.9792813514681e-05
 146    -3.3571128430477e-07
 147    -1.0877231960344e-06
 148    5.112679279825e-06
 149    -1.2537102421526e-05
 150    3.5851510022223e-05
 151    -1.5467312661523e-05
 152    -1.1293291658043e-06
 153    2.5039475205923e-07
 154    -2.0786297387078e-06
 155    -7.7890836212176e-08
 156    -1.0052462317644e-06
 157    6.5265829307194e-07
 158    5.2889966416972e-06
 159    -3.0198338846713e-05
 160    5.550788222489e-07
 161    7.2786299914427e-07
 162    -9.1809408157984e-07
 163    -1.0874601626768e-05
 164    1.162970393842e-05
 165    1.7523177087811e-06
 166    1.0490041854948e-06
 167    -2.4693736402751e-07
 168    2.2505558802612e-07
 169    4.2639717800538e-07
 170    8.085677748617e-07
 171    6.8175260813254e-08
 172    2.725152361941e-07
 173    3.2667389494885e-06
 174    -2.2362393821417e-07
 175    -2.2272437692453e-07
 176    1.5743172222775e-06
 177    1.2003687771213e-05
 178    4.0448029073781e-06
 179    4.9218455014017e-06
 180    -2.9179806904005e-07
 181    1.4164041650885e-06
 182    -4.4726545114619e-08
 183    7.0097786734916e-07
 184    1.0787645219436e-06
 185    -7.4565901349728e-07
 186    -6.3162164934856e-06
 187    2.8897921046265e-05
 188    -1.2152496787828e-06
 189    -7.2466969261738e-08
 190    -7.8581399179866e-08
 191    1.2020688189217e-07
 192    -9.4336495885979e-06
 193    -1.4549887413959e-05
 194    6.7384851377574e-07
 195    7.9106331049226e-07
 196    1.4950186909173e-06
 197    -4.950352461195e-07
 198    3.5900055766731e-07
 199    -1.9239531402896e-06
 200    1.1492026905738e-06
 201    -3.8317218330506e-07
 202    1.9790100843492e-06
 203    -1.2894964783404e-06
 204    -7.8620336806216e-06
 205    3.0076015565376e-06
 206    6.950594519553e-07
 207    3.5505891833697e-07
 208    1.2458886375751e-05
 209    2.3989551446825e-06
 210    -4.4794175565803e-07
 211    1.838469713408e-06
 212    3.8748629743904e-06
 213    5.3098364951982e-07
 214    -3.6524542836464e-06
 215    -2.8522413932211e-06
 216    1.730387571618e-05
 217    8.3003225658139e-07
 218    2.7905700543994e-07
 219    7.7803753582982e-07
 220    -2.1504953059375e-06
 221    -3.6623342934996e-06
 222    -2.3884633161543e-05
 223    0.00025683267973461
 224    5.8269982198697e-06
 225    5.5795100888404e-07
 226    7.7178046712075e-07
 227    4.8473343847368e-05
 228    5.5886391185737e-05
 229    -0.00027955183139293
 230    5.7536781595072e-06
 231    -9.3118303737078e-06
 232    -6.7748406693067e-06
 233    3.3084980031272e-06
 234    2.8293959850531e-06
 235    7.4874733783066e-06
 236    4.2179770455333e-05
 237    -0.00073028474175738
 238    -4.3743121930367e-06
 239    -5.4742095452908e-06
 240    1.7688592958966e-05
 241    0.00023194346562967
 242    5.226097045544e-05
 243    8.6443388752466e-05
 244    -1.9162805937081e-05
 245     4.15264898152e-06
 246    6.8475882048542e-06
 247    -1.2745095512083e-06
 248    -2.8117188213837e-06
 249    -1.0826538547199e-05
 250    -1.7933883558672e-05
 251    -6.3277326673029e-06
 252    -4.9583781484814e-05
 253    0.0010771829286883
 254    -9.7563841546561e-06
 255    8.4649716436592e-06
 256    -3.4626723131449e-05
 257    0.0004755870122007
 258    8.7673598661932e-05
 259    8.6647210351876e-05
 260    1.9037977894459e-05
 261    -6.1921488376962e-06
 262    -8.0854241357974e-06
 263    6.4640031292298e-06
 264    3.3334740850167e-06
 265    -9.0528579107672e-06
 266    -3.7144148357807e-06
 267    2.6520885097813e-05
 268    7.048400871557e-05
 269    7.2342227924815e-06
 270    4.4255416259796e-05
 271    -0.0031232164368026
 272    0.00016930597679707
 273    6.9154418543197e-05
 274    3.0934596258343e-05
 275    -0.0013767147430277
 276    -0.00093256351547471
 277    0.0036048475977062
 278    -0.00035601529559489
 279    5.4132185266194e-05
 280    6.9423705936918e-05
 281    0.00011212300475972