[Molden Format]
made by pyscf v[2.0.1]
[Atoms] (AU)
C   1   6     0.69100024066471     0.64692934207205    -3.48223131169301
H   2   1     2.68052439830868     1.13355088658700    -3.25784032593313
C   3   6    -0.36286361513219     0.85440132524594    -5.97030179418974
H   4   1    -2.35448549047279     0.36322488579172    -6.17995817793143
C   5   6     0.93697958957450     1.61209284601821    -8.05828437677121
H   6   1     1.52220939200985     3.58023657898303    -8.21595213017833
C   7   6     1.59282573286669    -0.05175011382745   -10.09734693546315
H   8   1     0.99474836942587    -2.01839690080961    -9.91207388765078
H   9   1     1.55630230933075    -1.92953025305990    12.99630010416247
C   10   6     0.75233899775814    -2.21270439606481    11.10705728102219
H   11   1    -0.43433408177274    -3.90944857546550    11.22216085340412
C   12   6     2.86362581178706    -2.63237380607947     9.17926416456045
H   13   1     4.39038949912609    -1.24955421540245     9.49899813497433
H   14   1     3.74629220191363    -4.48798724300892     9.47414880959024
C   15   6     2.02478325613682    -2.42177285709634     6.44560829588644
C   16   6     3.88048732735477    -3.58795445234514     4.61402886975252
C   17   6    -0.18412382258602    -1.30464291234259     5.76021113872346
C   18   6    -2.10044360464350    -0.26837831858460     7.71610340967100
C   19   6    -3.08956938670431     2.35282328359417     6.88693925039594
C   20   6    -4.37372924086464    -2.09766595989678     7.93610724222001
C   21   6    -0.83850430601230     0.06372213486173    10.33002307638377
H   22   1     0.38411922151109     1.74281358582432    10.27380136542181
H   23   1    -2.30980003007874     0.45460143924521    11.73986301809809
H   24   1     4.58527064644668    -5.38706904487420     5.36778158031719
H   25   1     5.54944938085014    -2.37631462192748     4.35398898413318
H   26   1     3.06633019150423    -3.94118377050688     2.75255466040884
H   27   1    -4.17727778763735     2.26573369139522     5.12914900961283
H   28   1    -1.52662344944051     3.68001877445626     6.59540397144508
H   29   1    -4.32916174397830     3.13643051467482     8.35225460090378
H   30   1    -5.32329548508442    -2.36691813602939     6.11583672749896
H   31   1    -5.77989366602257    -1.33896741843465     9.25748940450990
H   32   1    -3.79310905208926    -3.96389819310853     8.61386170102686
C   33   6    -1.01100794811226    -1.06331657314144     3.11929490449947
C   34   6     0.37686231036534    -0.33275864505552     1.09165013605873
H   35   1    -3.01671213906703    -1.40297922279997     2.77827895090944
C   36   6    -0.64382707979370    -0.11591880174385    -1.42063131251064
H   37   1     2.35569259782137     0.17174499283897     1.33641070251401
H   38   1    -2.63317482980319    -0.60229203511219    -1.66119700387645
C   39   6     2.88089126504443     0.61821658123040   -12.21129238571255
C   40   6     3.45664863859100    -1.22033421200677   -14.18493293343049
H   41   1     3.53070761900678     2.54536442784122   -12.51396089296279
O   42   8     4.60321296142939    -0.74877588551315   -16.13014426558594
H   43   1     2.75622344406002    -3.16930929543288   -13.79624335354022
[GTO]
1 0
 s    6 1.00
             3047.5249  0.0018347001629433
             457.36951    0.01403730124668
             103.94869   0.068842606114048
             29.210155    0.23218442062076
              9.286663    0.46794134155879
              3.163927    0.36231203217765
 s    3 1.00
             7.8682724   -0.11933240861517
             1.8812885   -0.16085421161283
             0.5442493     1.1434564825515
 s    1 1.00
             0.1687144                   1
 p    3 1.00
             7.8682724   0.068999095584993
             1.8812885    0.31642397975315
             0.5442493    0.74430825237435
 p    1 1.00
             0.1687144                   1
 d    1 1.00
                   0.8                   1

2 0
 s    3 1.00
             18.731137    0.03349459952309
             2.8253937    0.23472694665786
             0.6401217    0.81375731841339
 s    1 1.00
             0.1612778                   1

3 0
 s    6 1.00
             3047.5249  0.0018347001629433
             457.36951    0.01403730124668
             103.94869   0.068842606114048
             29.210155    0.23218442062076
              9.286663    0.46794134155879
              3.163927    0.36231203217765
 s    3 1.00
             7.8682724   -0.11933240861517
             1.8812885   -0.16085421161283
             0.5442493     1.1434564825515
 s    1 1.00
             0.1687144                   1
 p    3 1.00
             7.8682724   0.068999095584993
             1.8812885    0.31642397975315
             0.5442493    0.74430825237435
 p    1 1.00
             0.1687144                   1
 d    1 1.00
                   0.8                   1

4 0
 s    3 1.00
             18.731137    0.03349459952309
             2.8253937    0.23472694665786
             0.6401217    0.81375731841339
 s    1 1.00
             0.1612778                   1

5 0
 s    6 1.00
             3047.5249  0.0018347001629433
             457.36951    0.01403730124668
             103.94869   0.068842606114048
             29.210155    0.23218442062076
              9.286663    0.46794134155879
              3.163927    0.36231203217765
 s    3 1.00
             7.8682724   -0.11933240861517
             1.8812885   -0.16085421161283
             0.5442493     1.1434564825515
 s    1 1.00
             0.1687144                   1
 p    3 1.00
             7.8682724   0.068999095584993
             1.8812885    0.31642397975315
             0.5442493    0.74430825237435
 p    1 1.00
             0.1687144                   1
 d    1 1.00
                   0.8                   1

6 0
 s    3 1.00
             18.731137    0.03349459952309
             2.8253937    0.23472694665786
             0.6401217    0.81375731841339
 s    1 1.00
             0.1612778                   1

7 0
 s    6 1.00
             3047.5249  0.0018347001629433
             457.36951    0.01403730124668
             103.94869   0.068842606114048
             29.210155    0.23218442062076
              9.286663    0.46794134155879
              3.163927    0.36231203217765
 s    3 1.00
             7.8682724   -0.11933240861517
             1.8812885   -0.16085421161283
             0.5442493     1.1434564825515
 s    1 1.00
             0.1687144                   1
 p    3 1.00
             7.8682724   0.068999095584993
             1.8812885    0.31642397975315
             0.5442493    0.74430825237435
 p    1 1.00
             0.1687144                   1
 d    1 1.00
                   0.8                   1

8 0
 s    3 1.00
             18.731137    0.03349459952309
             2.8253937    0.23472694665786
             0.6401217    0.81375731841339
 s    1 1.00
             0.1612778                   1

9 0
 s    3 1.00
             18.731137    0.03349459952309
             2.8253937    0.23472694665786
             0.6401217    0.81375731841339
 s    1 1.00
             0.1612778                   1

10 0
 s    6 1.00
             3047.5249  0.0018347001629433
             457.36951    0.01403730124668
             103.94869   0.068842606114048
             29.210155    0.23218442062076
              9.286663    0.46794134155879
              3.163927    0.36231203217765
 s    3 1.00
             7.8682724   -0.11933240861517
             1.8812885   -0.16085421161283
             0.5442493     1.1434564825515
 s    1 1.00
             0.1687144                   1
 p    3 1.00
             7.8682724   0.068999095584993
             1.8812885    0.31642397975315
             0.5442493    0.74430825237435
 p    1 1.00
             0.1687144                   1
 d    1 1.00
                   0.8                   1

11 0
 s    3 1.00
             18.731137    0.03349459952309
             2.8253937    0.23472694665786
             0.6401217    0.81375731841339
 s    1 1.00
             0.1612778                   1

12 0
 s    6 1.00
             3047.5249  0.0018347001629433
             457.36951    0.01403730124668
             103.94869   0.068842606114048
             29.210155    0.23218442062076
              9.286663    0.46794134155879
              3.163927    0.36231203217765
 s    3 1.00
             7.8682724   -0.11933240861517
             1.8812885   -0.16085421161283
             0.5442493     1.1434564825515
 s    1 1.00
             0.1687144                   1
 p    3 1.00
             7.8682724   0.068999095584993
             1.8812885    0.31642397975315
             0.5442493    0.74430825237435
 p    1 1.00
             0.1687144                   1
 d    1 1.00
                   0.8                   1

13 0
 s    3 1.00
             18.731137    0.03349459952309
             2.8253937    0.23472694665786
             0.6401217    0.81375731841339
 s    1 1.00
             0.1612778                   1

14 0
 s    3 1.00
             18.731137    0.03349459952309
             2.8253937    0.23472694665786
             0.6401217    0.81375731841339
 s    1 1.00
             0.1612778                   1

15 0
 s    6 1.00
             3047.5249  0.0018347001629433
             457.36951    0.01403730124668
             103.94869   0.068842606114048
             29.210155    0.23218442062076
              9.286663    0.46794134155879
              3.163927    0.36231203217765
 s    3 1.00
             7.8682724   -0.11933240861517
             1.8812885   -0.16085421161283
             0.5442493     1.1434564825515
 s    1 1.00
             0.1687144                   1
 p    3 1.00
             7.8682724   0.068999095584993
             1.8812885    0.31642397975315
             0.5442493    0.74430825237435
 p    1 1.00
             0.1687144                   1
 d    1 1.00
                   0.8                   1

16 0
 s    6 1.00
             3047.5249  0.0018347001629433
             457.36951    0.01403730124668
             103.94869   0.068842606114048
             29.210155    0.23218442062076
              9.286663    0.46794134155879
              3.163927    0.36231203217765
 s    3 1.00
             7.8682724   -0.11933240861517
             1.8812885   -0.16085421161283
             0.5442493     1.1434564825515
 s    1 1.00
             0.1687144                   1
 p    3 1.00
             7.8682724   0.068999095584993
             1.8812885    0.31642397975315
             0.5442493    0.74430825237435
 p    1 1.00
             0.1687144                   1
 d    1 1.00
                   0.8                   1

17 0
 s    6 1.00
             3047.5249  0.0018347001629433
             457.36951    0.01403730124668
             103.94869   0.068842606114048
             29.210155    0.23218442062076
              9.286663    0.46794134155879
              3.163927    0.36231203217765
 s    3 1.00
             7.8682724   -0.11933240861517
             1.8812885   -0.16085421161283
             0.5442493     1.1434564825515
 s    1 1.00
             0.1687144                   1
 p    3 1.00
             7.8682724   0.068999095584993
             1.8812885    0.31642397975315
             0.5442493    0.74430825237435
 p    1 1.00
             0.1687144                   1
 d    1 1.00
                   0.8                   1

18 0
 s    6 1.00
             3047.5249  0.0018347001629433
             457.36951    0.01403730124668
             103.94869   0.068842606114048
             29.210155    0.23218442062076
              9.286663    0.46794134155879
              3.163927    0.36231203217765
 s    3 1.00
             7.8682724   -0.11933240861517
             1.8812885   -0.16085421161283
             0.5442493     1.1434564825515
 s    1 1.00
             0.1687144                   1
 p    3 1.00
             7.8682724   0.068999095584993
             1.8812885    0.31642397975315
             0.5442493    0.74430825237435
 p    1 1.00
             0.1687144                   1
 d    1 1.00
                   0.8                   1

19 0
 s    6 1.00
             3047.5249  0.0018347001629433
             457.36951    0.01403730124668
             103.94869   0.068842606114048
             29.210155    0.23218442062076
              9.286663    0.46794134155879
              3.163927    0.36231203217765
 s    3 1.00
             7.8682724   -0.11933240861517
             1.8812885   -0.16085421161283
             0.5442493     1.1434564825515
 s    1 1.00
             0.1687144                   1
 p    3 1.00
             7.8682724   0.068999095584993
             1.8812885    0.31642397975315
             0.5442493    0.74430825237435
 p    1 1.00
             0.1687144                   1
 d    1 1.00
                   0.8                   1

20 0
 s    6 1.00
             3047.5249  0.0018347001629433
             457.36951    0.01403730124668
             103.94869   0.068842606114048
             29.210155    0.23218442062076
              9.286663    0.46794134155879
              3.163927    0.36231203217765
 s    3 1.00
             7.8682724   -0.11933240861517
             1.8812885   -0.16085421161283
             0.5442493     1.1434564825515
 s    1 1.00
             0.1687144                   1
 p    3 1.00
             7.8682724   0.068999095584993
             1.8812885    0.31642397975315
             0.5442493    0.74430825237435
 p    1 1.00
             0.1687144                   1
 d    1 1.00
                   0.8                   1

21 0
 s    6 1.00
             3047.5249  0.0018347001629433
             457.36951    0.01403730124668
             103.94869   0.068842606114048
             29.210155    0.23218442062076
              9.286663    0.46794134155879
              3.163927    0.36231203217765
 s    3 1.00
             7.8682724   -0.11933240861517
             1.8812885   -0.16085421161283
             0.5442493     1.1434564825515
 s    1 1.00
             0.1687144                   1
 p    3 1.00
             7.8682724   0.068999095584993
             1.8812885    0.31642397975315
             0.5442493    0.74430825237435
 p    1 1.00
             0.1687144                   1
 d    1 1.00
                   0.8                   1

22 0
 s    3 1.00
             18.731137    0.03349459952309
             2.8253937    0.23472694665786
             0.6401217    0.81375731841339
 s    1 1.00
             0.1612778                   1

23 0
 s    3 1.00
             18.731137    0.03349459952309
             2.8253937    0.23472694665786
             0.6401217    0.81375731841339
 s    1 1.00
             0.1612778                   1

24 0
 s    3 1.00
             18.731137    0.03349459952309
             2.8253937    0.23472694665786
             0.6401217    0.81375731841339
 s    1 1.00
             0.1612778                   1

25 0
 s    3 1.00
             18.731137    0.03349459952309
             2.8253937    0.23472694665786
             0.6401217    0.81375731841339
 s    1 1.00
             0.1612778                   1

26 0
 s    3 1.00
             18.731137    0.03349459952309
             2.8253937    0.23472694665786
             0.6401217    0.81375731841339
 s    1 1.00
             0.1612778                   1

27 0
 s    3 1.00
             18.731137    0.03349459952309
             2.8253937    0.23472694665786
             0.6401217    0.81375731841339
 s    1 1.00
             0.1612778                   1

28 0
 s    3 1.00
             18.731137    0.03349459952309
             2.8253937    0.23472694665786
             0.6401217    0.81375731841339
 s    1 1.00
             0.1612778                   1

29 0
 s    3 1.00
             18.731137    0.03349459952309
             2.8253937    0.23472694665786
             0.6401217    0.81375731841339
 s    1 1.00
             0.1612778                   1

30 0
 s    3 1.00
             18.731137    0.03349459952309
             2.8253937    0.23472694665786
             0.6401217    0.81375731841339
 s    1 1.00
             0.1612778                   1

31 0
 s    3 1.00
             18.731137    0.03349459952309
             2.8253937    0.23472694665786
             0.6401217    0.81375731841339
 s    1 1.00
             0.1612778                   1

32 0
 s    3 1.00
             18.731137    0.03349459952309
             2.8253937    0.23472694665786
             0.6401217    0.81375731841339
 s    1 1.00
             0.1612778                   1

33 0
 s    6 1.00
             3047.5249  0.0018347001629433
             457.36951    0.01403730124668
             103.94869   0.068842606114048
             29.210155    0.23218442062076
              9.286663    0.46794134155879
              3.163927    0.36231203217765
 s    3 1.00
             7.8682724   -0.11933240861517
             1.8812885   -0.16085421161283
             0.5442493     1.1434564825515
 s    1 1.00
             0.1687144                   1
 p    3 1.00
             7.8682724   0.068999095584993
             1.8812885    0.31642397975315
             0.5442493    0.74430825237435
 p    1 1.00
             0.1687144                   1
 d    1 1.00
                   0.8                   1

34 0
 s    6 1.00
             3047.5249  0.0018347001629433
             457.36951    0.01403730124668
             103.94869   0.068842606114048
             29.210155    0.23218442062076
              9.286663    0.46794134155879
              3.163927    0.36231203217765
 s    3 1.00
             7.8682724   -0.11933240861517
             1.8812885   -0.16085421161283
             0.5442493     1.1434564825515
 s    1 1.00
             0.1687144                   1
 p    3 1.00
             7.8682724   0.068999095584993
             1.8812885    0.31642397975315
             0.5442493    0.74430825237435
 p    1 1.00
             0.1687144                   1
 d    1 1.00
                   0.8                   1

35 0
 s    3 1.00
             18.731137    0.03349459952309
             2.8253937    0.23472694665786
             0.6401217    0.81375731841339
 s    1 1.00
             0.1612778                   1

36 0
 s    6 1.00
             3047.5249  0.0018347001629433
             457.36951    0.01403730124668
             103.94869   0.068842606114048
             29.210155    0.23218442062076
              9.286663    0.46794134155879
              3.163927    0.36231203217765
 s    3 1.00
             7.8682724   -0.11933240861517
             1.8812885   -0.16085421161283
             0.5442493     1.1434564825515
 s    1 1.00
             0.1687144                   1
 p    3 1.00
             7.8682724   0.068999095584993
             1.8812885    0.31642397975315
             0.5442493    0.74430825237435
 p    1 1.00
             0.1687144                   1
 d    1 1.00
                   0.8                   1

37 0
 s    3 1.00
             18.731137    0.03349459952309
             2.8253937    0.23472694665786
             0.6401217    0.81375731841339
 s    1 1.00
             0.1612778                   1

38 0
 s    3 1.00
             18.731137    0.03349459952309
             2.8253937    0.23472694665786
             0.6401217    0.81375731841339
 s    1 1.00
             0.1612778                   1

39 0
 s    6 1.00
             3047.5249  0.0018347001629433
             457.36951    0.01403730124668
             103.94869   0.068842606114048
             29.210155    0.23218442062076
              9.286663    0.46794134155879
              3.163927    0.36231203217765
 s    3 1.00
             7.8682724   -0.11933240861517
             1.8812885   -0.16085421161283
             0.5442493     1.1434564825515
 s    1 1.00
             0.1687144                   1
 p    3 1.00
             7.8682724   0.068999095584993
             1.8812885    0.31642397975315
             0.5442493    0.74430825237435
 p    1 1.00
             0.1687144                   1
 d    1 1.00
                   0.8                   1

40 0
 s    6 1.00
             3047.5249  0.0018347001629433
             457.36951    0.01403730124668
             103.94869   0.068842606114048
             29.210155    0.23218442062076
              9.286663    0.46794134155879
              3.163927    0.36231203217765
 s    3 1.00
             7.8682724   -0.11933240861517
             1.8812885   -0.16085421161283
             0.5442493     1.1434564825515
 s    1 1.00
             0.1687144                   1
 p    3 1.00
             7.8682724   0.068999095584993
             1.8812885    0.31642397975315
             0.5442493    0.74430825237435
 p    1 1.00
             0.1687144                   1
 d    1 1.00
                   0.8                   1

41 0
 s    3 1.00
             18.731137    0.03349459952309
             2.8253937    0.23472694665786
             0.6401217    0.81375731841339
 s    1 1.00
             0.1612778                   1

42 0
 s    6 1.00
             5484.6717   0.001831099805527
             825.23495   0.013950098518422
             188.04696    0.06844509273075
               52.9645    0.23271427528445
              16.89757    0.47019295006289
             5.7996353    0.35852086192309
 s    3 1.00
             15.539616   -0.11077750382508
             3.5999336   -0.14802630511126
             1.0137618     1.1307670390447
 s    1 1.00
             0.2700058                   1
 p    3 1.00
             15.539616   0.070874299543311
             3.5999336    0.33975279781076
             1.0137618    0.72715859531445
 p    1 1.00
             0.2700058                   1
 d    1 1.00
                   0.8                   1

43 0
 s    3 1.00
             18.731137    0.03349459952309
             2.8253937    0.23472694665786
             0.6401217    0.81375731841339
 s    1 1.00
             0.1612778                   1

[5d]
[7f]
[9g]

[MO]
 Sym= A
 Ene=               0
 Spin= Alpha
 Occup=    1.00000
   1    2.0452783489758e-06
   2    1.8858951018123e-05
   3    -0.00012083807089509
   4    8.3093434222489e-06
   5    -2.1844365065836e-05
   6    -5.5654925934749e-06
   7    4.3404864336868e-05
   8    4.2720567364757e-06
   9    0.00023052213336235
  10    2.0673226601901e-06
  11    -8.792465191473e-06
  12    -4.0146215079232e-06
  13    -1.1709268481054e-05
  14    6.4174269191757e-06
  15    7.5269709893111e-06
  16    -2.7708183347382e-05
  17    -7.2830937051254e-06
  18    -0.0001245660412567
  19    -0.00052830535439055
  20    -3.8657086563159e-05
  21    2.3254750311303e-05
  22    5.7347872906119e-05
  23    -0.00014345470837596
  24    4.3344206935182e-05
  25    0.00065444105638283
  26    -2.5993258416613e-05
  27    2.1466879556585e-05
  28    -3.3374989129149e-07
  29    -4.0729170242342e-05
  30    1.8192746184633e-05
  31    8.2966486093489e-06
  32    -8.6054480483463e-06
  33    -3.8800972863617e-05
  34    -0.00034888764371246
  35    0.0042429279369469
  36    6.5503897934109e-05
  37    -4.078315255003e-06
  38    -0.00011233152020646
  39    -7.2957745472667e-05
  40    -0.0017847970770095
  41    -0.00078013160358693
  42    6.2795166450594e-05
  43    -8.398771609279e-05
  44    8.8942781897129e-05
  45    -3.9886985446205e-05
  46    -1.1228510949731e-05
  47    9.3321547396733e-06
  48    0.00026627415942808
  49    -3.3724760435221e-05
  50    -5.6011150161718e-05
  51    -0.0033637304129588
  52    -5.7674121802622e-05
  53    0.00021899628790432
  54    0.00021656883640333
  55    0.00080038015777721
  56    -0.0024305137604876
  57    -0.0026792921126004
  58    -2.5649599793655e-05
  59    -6.0549857306295e-05
  60    -0.00019109018040848
  61    -5.6948964290704e-06
  62    0.00012210255532197
  63    -0.00025323847591403
  64    -5.0533249679377e-05
  65    1.2629565449269e-07
  66    1.8065354059764e-07
  67    -3.7579079436184e-09
  68    5.0916031760997e-07
  69    -2.8716317801051e-06
  70    1.2914863379339e-07
  71    6.239612746761e-08
  72    -2.443932655896e-07
  73    2.8259275510388e-07
  74    -1.7397431780978e-06
  75    -2.3486130103742e-07
  76    5.4022847233761e-08
  77    8.8807775558464e-08
  78    -2.39446876815e-08
  79    -7.2277876843548e-08
  80    6.7182061729018e-08
  81    -8.7536559138191e-08
  82    -3.2970978462849e-07
  83    -4.4364518057392e-08
  84    1.9081112115886e-07
  85    9.2726325610791e-06
  86    -8.3571213116989e-07
  87    -4.8734964553901e-07
  88    -6.5412263762502e-07
  89    -2.762129767505e-06
  90    3.5849358710753e-06
  91    -2.1567536391842e-06
  92    -9.970223041902e-08
  93    1.1626771608407e-07
  94    -2.7928072139039e-07
  95    -6.3146936887376e-08
  96    3.9049440956032e-08
  97    -1.0669608064563e-06
  98    -1.7868356205211e-06
  99    3.6452975989679e-07
 100    1.4378974271393e-06
 101    1.9441125278914e-07
 102    7.5534906015632e-07
 103    -1.0975189457063e-05
 104    1.735361405719e-06
 105    2.8658896898403e-06
 106    2.2423730021291e-07
 107    1.3896690239323e-05
 108    -9.2423368290123e-06
 109    -2.0262650658843e-05
 110    5.0490163194984e-07
 111    4.4694447281593e-07
 112    -2.2934860994099e-07
 113    -5.9623727385963e-07
 114    1.9217561530807e-07
 115    4.0919409356039e-07
 116    4.2243310829123e-06
 117    -2.9389183660055e-05
 118    4.6903665718276e-07
 119    -9.1870545470771e-07
 120    -4.1885561391378e-07
 121    5.7450227745832e-06
 122    3.4550029642435e-07
 123    1.6785308368323e-06
 124    5.5252595588692e-08
 125    6.388640653767e-08
 126    1.9474513979203e-07
 127    -3.6189154861766e-08
 128    1.419807645854e-07
 129    7.5059548932552e-07
 130    7.3274149688548e-06
 131    -2.9557683082438e-05
 132    9.5851751146469e-07
 133    3.0174329951051e-06
 134    -3.2274930803031e-06
 135    1.4374158850371e-05
 136    -2.9308620295837e-06
 137    5.303293002994e-05
 138    -1.6234141937469e-06
 139    -1.0477147685284e-06
 140    8.7057440886232e-08
 141    -2.5530780264339e-07
 142    8.4090120938492e-08
 143    4.4094778618082e-08
 144    1.9737760726801e-06
 145    -9.6979216900125e-06
 146    9.651934308087e-11
 147    -1.2609983032305e-06
 148    -5.5396423150015e-07
 149    -6.303118367847e-06
 150    9.5150539357684e-06
 151    -1.9582089276589e-06
 152    7.5594594978026e-07
 153    1.7980186741735e-07
 154    -1.3381056156544e-07
 155    -5.0019698716852e-07
 156    3.9043313609195e-07
 157    -2.5218053800468e-08
 158    -1.3435810120792e-07
 159    -4.7609648373904e-06
 160    -8.4658014383118e-07
 161    4.8584873883525e-07
 162    -6.1095859056993e-07
 163    2.7706324054623e-06
 164    1.9225777627799e-06
 165    -6.2800306809454e-07
 166    -1.7830972996023e-07
 167    -1.6227453818531e-08
 168    3.5353397283341e-08
 169    1.4784799649526e-07
 170    -9.1848116433337e-08
 171    -1.3440407514264e-07
 172    5.1372726263621e-07
 173    3.2944629629465e-06
 174    8.6853818934201e-07
 175    1.6126141490642e-07
 176    -6.5517388176727e-07
 177    1.4713250726798e-06
 178    -3.2858616351056e-07
 179    2.3278481317203e-06
 180    -1.8319096654865e-07
 181    -4.5883820467208e-08
 182    4.2772263889815e-08
 183    3.6482826492582e-07
 184    -3.3938248435424e-08
 185    2.4568534947443e-07
 186    1.7566555635298e-06
 187    -5.7543170634664e-07
 188    1.4837143230048e-07
 189    -7.0313763353237e-08
 190    -3.2497034187557e-07
 191    -1.8230548317562e-06
 192    -2.1867522413009e-06
 193    4.3811966134151e-06
 194    -2.9138025706954e-07
 195    4.6363627962389e-08
 196    9.428399143617e-08
 197    -4.9206828247373e-08
 198    7.8579769221837e-08
 199    4.4996885355221e-07
 200    1.4155280186517e-06
 201    1.8373502404875e-07
 202    -1.8648552368106e-06
 203    1.7267191386808e-06
 204    2.1303848163447e-06
 205    1.5504776080743e-07
 206    1.0947406659112e-06
 207    -1.6975977776832e-06
 208    1.5428066450895e-05
 209    -3.5412321036555e-07
 210    2.8915797453022e-06
 211    -2.189307296905e-08
 212    -1.9439272046193e-06
 213    1.4500203417842e-07
 214    1.2876344104999e-06
 215    2.161065000125e-07
 216    8.5665739308974e-07
 217    -3.2865703558755e-07
 218    -1.0332048453434e-06
 219    -6.6145658932707e-08
 220    -1.2765863683551e-06
 221    -4.820746982551e-07
 222    7.1692170112195e-06
 223    1.5293269640805e-05
 224    3.6219440230583e-06
 225    -3.3852010599318e-06
 226    -4.7818608180492e-06
 227    -1.3392770710994e-05
 228    -1.8059923060226e-05
 229    4.4469226494932e-05
 230    1.374295185573e-06
 231    2.2548262034559e-06
 232    1.5922117488287e-06
 233    -1.0652558314578e-06
 234    -2.3461237467781e-06
 235    -4.7794673542456e-07
 236    3.6202843257721e-06
 237    -0.00010538970961487
 238    -5.4048068735066e-06
 239    -1.1770543448633e-05
 240    4.1193361224112e-06
 241    3.1805576625677e-05
 242    1.0416199221551e-05
 243    0.00010158161587113
 244    -4.0022565649281e-06
 245    -5.8126917899229e-06
 246    -2.1411855105982e-06
 247    -2.7055951362813e-06
 248    -2.7158198029024e-06
 249    8.9638401251919e-07
 250    -1.2555134949637e-05
 251      1.3991951818e-05
 252    1.8755537812661e-05
 253    -4.0497857578448e-05
 254    -6.7230261787476e-06
 255    8.4462686338444e-06
 256    -1.9226807723276e-05
 257    -2.2621215999164e-05
 258    -9.8457664371984e-05
 259    0.00017860833602955
 260    1.2905700359411e-06
 261    7.9100716792111e-06
 262    5.5120459122007e-06
 263    -3.770769098912e-06
 264    -7.2221869208309e-06
 265    -4.8284291680105e-06
 266    -2.8343992178956e-05
 267    1.2251072432998e-05
 268    -2.448840105602e-05
 269    -0.00026798277083815
 270    -0.00010411726151326
 271    -0.0031561375883101
 272    -8.1202359996379e-05
 273    0.00041278920432451
 274    0.00032756349427087
 275    -0.0019512223151921
 276    -0.00053516790668555
 277    0.0034296855517033
 278    -0.00027702994500797
 279    0.00016780726792787