[Molden Format]
made by pyscf v[2.0.1]
[Atoms] (AU)
C   1   6     0.69100024066471     0.64692934207205    -3.48223131169301
H   2   1     2.68052439830868     1.13355088658700    -3.25784032593313
C   3   6    -0.36286361513219     0.85440132524594    -5.97030179418974
H   4   1    -2.35448549047279     0.36322488579172    -6.17995817793143
C   5   6     0.93697958957450     1.61209284601821    -8.05828437677121
H   6   1     0.85962833397368     3.59050820045091    -8.62470494839578
C   7   6     2.42635389771936    -0.06497183323565    -9.58324401854610
H   8   1     2.48676726707897    -2.04132781761705    -8.99156043119802
H   9   1     1.55630230933075    -1.92953025305990    12.99630010416247
C   10   6     0.75233899775814    -2.21270439606481    11.10705728102219
H   11   1    -0.43433408177274    -3.90944857546550    11.22216085340412
C   12   6     2.86362581178706    -2.63237380607947     9.17926416456045
H   13   1     4.39038949912609    -1.24955421540245     9.49899813497433
H   14   1     3.74629220191363    -4.48798724300892     9.47414880959024
C   15   6     2.02478325613682    -2.42177285709634     6.44560829588644
C   16   6     3.88048732735477    -3.58795445234514     4.61402886975252
C   17   6    -0.18412382258602    -1.30464291234259     5.76021113872346
C   18   6    -2.10044360464350    -0.26837831858460     7.71610340967100
C   19   6    -3.08956938670431     2.35282328359417     6.88693925039594
C   20   6    -4.37372924086464    -2.09766595989678     7.93610724222001
C   21   6    -0.83850430601230     0.06372213486173    10.33002307638377
H   22   1     0.38411922151109     1.74281358582432    10.27380136542181
H   23   1    -2.30980003007874     0.45460143924521    11.73986301809809
H   24   1     4.58527064644668    -5.38706904487420     5.36778158031719
H   25   1     5.54944938085014    -2.37631462192748     4.35398898413318
H   26   1     3.06633019150423    -3.94118377050688     2.75255466040884
H   27   1    -4.17727778763735     2.26573369139522     5.12914900961283
H   28   1    -1.52662344944051     3.68001877445626     6.59540397144508
H   29   1    -4.32916174397830     3.13643051467482     8.35225460090378
H   30   1    -5.32329548508442    -2.36691813602939     6.11583672749896
H   31   1    -5.77989366602257    -1.33896741843465     9.25748940450990
H   32   1    -3.79310905208926    -3.96389819310853     8.61386170102686
C   33   6    -1.01100794811226    -1.06331657314144     3.11929490449947
C   34   6     0.37686231036534    -0.33275864505552     1.09165013605873
H   35   1    -3.01671213906703    -1.40297922279997     2.77827895090944
C   36   6    -0.64382707979370    -0.11591880174385    -1.42063131251064
H   37   1     2.35569259782137     0.17174499283897     1.33641070251401
H   38   1    -2.63317482980319    -0.60229203511219    -1.66119700387645
C   39   6     3.74832505967432     0.60333842975764   -11.67668310140841
C   40   6     5.21001738076888    -1.24955999097241   -13.10400422335708
H   41   1     3.76814643119893     2.53960520723023   -12.36823673003836
O   42   8     6.43815552067501    -0.78092818090474   -14.99949494178040
H   43   1     5.13629360998863    -3.20740752771493   -12.32839043702936
[GTO]
1 0
 s    6 1.00
             3047.5249  0.0018347001629433
             457.36951    0.01403730124668
             103.94869   0.068842606114048
             29.210155    0.23218442062076
              9.286663    0.46794134155879
              3.163927    0.36231203217765
 s    3 1.00
             7.8682724   -0.11933240861517
             1.8812885   -0.16085421161283
             0.5442493     1.1434564825515
 s    1 1.00
             0.1687144                   1
 p    3 1.00
             7.8682724   0.068999095584993
             1.8812885    0.31642397975315
             0.5442493    0.74430825237435
 p    1 1.00
             0.1687144                   1
 d    1 1.00
                   0.8                   1

2 0
 s    3 1.00
             18.731137    0.03349459952309
             2.8253937    0.23472694665786
             0.6401217    0.81375731841339
 s    1 1.00
             0.1612778                   1

3 0
 s    6 1.00
             3047.5249  0.0018347001629433
             457.36951    0.01403730124668
             103.94869   0.068842606114048
             29.210155    0.23218442062076
              9.286663    0.46794134155879
              3.163927    0.36231203217765
 s    3 1.00
             7.8682724   -0.11933240861517
             1.8812885   -0.16085421161283
             0.5442493     1.1434564825515
 s    1 1.00
             0.1687144                   1
 p    3 1.00
             7.8682724   0.068999095584993
             1.8812885    0.31642397975315
             0.5442493    0.74430825237435
 p    1 1.00
             0.1687144                   1
 d    1 1.00
                   0.8                   1

4 0
 s    3 1.00
             18.731137    0.03349459952309
             2.8253937    0.23472694665786
             0.6401217    0.81375731841339
 s    1 1.00
             0.1612778                   1

5 0
 s    6 1.00
             3047.5249  0.0018347001629433
             457.36951    0.01403730124668
             103.94869   0.068842606114048
             29.210155    0.23218442062076
              9.286663    0.46794134155879
              3.163927    0.36231203217765
 s    3 1.00
             7.8682724   -0.11933240861517
             1.8812885   -0.16085421161283
             0.5442493     1.1434564825515
 s    1 1.00
             0.1687144                   1
 p    3 1.00
             7.8682724   0.068999095584993
             1.8812885    0.31642397975315
             0.5442493    0.74430825237435
 p    1 1.00
             0.1687144                   1
 d    1 1.00
                   0.8                   1

6 0
 s    3 1.00
             18.731137    0.03349459952309
             2.8253937    0.23472694665786
             0.6401217    0.81375731841339
 s    1 1.00
             0.1612778                   1

7 0
 s    6 1.00
             3047.5249  0.0018347001629433
             457.36951    0.01403730124668
             103.94869   0.068842606114048
             29.210155    0.23218442062076
              9.286663    0.46794134155879
              3.163927    0.36231203217765
 s    3 1.00
             7.8682724   -0.11933240861517
             1.8812885   -0.16085421161283
             0.5442493     1.1434564825515
 s    1 1.00
             0.1687144                   1
 p    3 1.00
             7.8682724   0.068999095584993
             1.8812885    0.31642397975315
             0.5442493    0.74430825237435
 p    1 1.00
             0.1687144                   1
 d    1 1.00
                   0.8                   1

8 0
 s    3 1.00
             18.731137    0.03349459952309
             2.8253937    0.23472694665786
             0.6401217    0.81375731841339
 s    1 1.00
             0.1612778                   1

9 0
 s    3 1.00
             18.731137    0.03349459952309
             2.8253937    0.23472694665786
             0.6401217    0.81375731841339
 s    1 1.00
             0.1612778                   1

10 0
 s    6 1.00
             3047.5249  0.0018347001629433
             457.36951    0.01403730124668
             103.94869   0.068842606114048
             29.210155    0.23218442062076
              9.286663    0.46794134155879
              3.163927    0.36231203217765
 s    3 1.00
             7.8682724   -0.11933240861517
             1.8812885   -0.16085421161283
             0.5442493     1.1434564825515
 s    1 1.00
             0.1687144                   1
 p    3 1.00
             7.8682724   0.068999095584993
             1.8812885    0.31642397975315
             0.5442493    0.74430825237435
 p    1 1.00
             0.1687144                   1
 d    1 1.00
                   0.8                   1

11 0
 s    3 1.00
             18.731137    0.03349459952309
             2.8253937    0.23472694665786
             0.6401217    0.81375731841339
 s    1 1.00
             0.1612778                   1

12 0
 s    6 1.00
             3047.5249  0.0018347001629433
             457.36951    0.01403730124668
             103.94869   0.068842606114048
             29.210155    0.23218442062076
              9.286663    0.46794134155879
              3.163927    0.36231203217765
 s    3 1.00
             7.8682724   -0.11933240861517
             1.8812885   -0.16085421161283
             0.5442493     1.1434564825515
 s    1 1.00
             0.1687144                   1
 p    3 1.00
             7.8682724   0.068999095584993
             1.8812885    0.31642397975315
             0.5442493    0.74430825237435
 p    1 1.00
             0.1687144                   1
 d    1 1.00
                   0.8                   1

13 0
 s    3 1.00
             18.731137    0.03349459952309
             2.8253937    0.23472694665786
             0.6401217    0.81375731841339
 s    1 1.00
             0.1612778                   1

14 0
 s    3 1.00
             18.731137    0.03349459952309
             2.8253937    0.23472694665786
             0.6401217    0.81375731841339
 s    1 1.00
             0.1612778                   1

15 0
 s    6 1.00
             3047.5249  0.0018347001629433
             457.36951    0.01403730124668
             103.94869   0.068842606114048
             29.210155    0.23218442062076
              9.286663    0.46794134155879
              3.163927    0.36231203217765
 s    3 1.00
             7.8682724   -0.11933240861517
             1.8812885   -0.16085421161283
             0.5442493     1.1434564825515
 s    1 1.00
             0.1687144                   1
 p    3 1.00
             7.8682724   0.068999095584993
             1.8812885    0.31642397975315
             0.5442493    0.74430825237435
 p    1 1.00
             0.1687144                   1
 d    1 1.00
                   0.8                   1

16 0
 s    6 1.00
             3047.5249  0.0018347001629433
             457.36951    0.01403730124668
             103.94869   0.068842606114048
             29.210155    0.23218442062076
              9.286663    0.46794134155879
              3.163927    0.36231203217765
 s    3 1.00
             7.8682724   -0.11933240861517
             1.8812885   -0.16085421161283
             0.5442493     1.1434564825515
 s    1 1.00
             0.1687144                   1
 p    3 1.00
             7.8682724   0.068999095584993
             1.8812885    0.31642397975315
             0.5442493    0.74430825237435
 p    1 1.00
             0.1687144                   1
 d    1 1.00
                   0.8                   1

17 0
 s    6 1.00
             3047.5249  0.0018347001629433
             457.36951    0.01403730124668
             103.94869   0.068842606114048
             29.210155    0.23218442062076
              9.286663    0.46794134155879
              3.163927    0.36231203217765
 s    3 1.00
             7.8682724   -0.11933240861517
             1.8812885   -0.16085421161283
             0.5442493     1.1434564825515
 s    1 1.00
             0.1687144                   1
 p    3 1.00
             7.8682724   0.068999095584993
             1.8812885    0.31642397975315
             0.5442493    0.74430825237435
 p    1 1.00
             0.1687144                   1
 d    1 1.00
                   0.8                   1

18 0
 s    6 1.00
             3047.5249  0.0018347001629433
             457.36951    0.01403730124668
             103.94869   0.068842606114048
             29.210155    0.23218442062076
              9.286663    0.46794134155879
              3.163927    0.36231203217765
 s    3 1.00
             7.8682724   -0.11933240861517
             1.8812885   -0.16085421161283
             0.5442493     1.1434564825515
 s    1 1.00
             0.1687144                   1
 p    3 1.00
             7.8682724   0.068999095584993
             1.8812885    0.31642397975315
             0.5442493    0.74430825237435
 p    1 1.00
             0.1687144                   1
 d    1 1.00
                   0.8                   1

19 0
 s    6 1.00
             3047.5249  0.0018347001629433
             457.36951    0.01403730124668
             103.94869   0.068842606114048
             29.210155    0.23218442062076
              9.286663    0.46794134155879
              3.163927    0.36231203217765
 s    3 1.00
             7.8682724   -0.11933240861517
             1.8812885   -0.16085421161283
             0.5442493     1.1434564825515
 s    1 1.00
             0.1687144                   1
 p    3 1.00
             7.8682724   0.068999095584993
             1.8812885    0.31642397975315
             0.5442493    0.74430825237435
 p    1 1.00
             0.1687144                   1
 d    1 1.00
                   0.8                   1

20 0
 s    6 1.00
             3047.5249  0.0018347001629433
             457.36951    0.01403730124668
             103.94869   0.068842606114048
             29.210155    0.23218442062076
              9.286663    0.46794134155879
              3.163927    0.36231203217765
 s    3 1.00
             7.8682724   -0.11933240861517
             1.8812885   -0.16085421161283
             0.5442493     1.1434564825515
 s    1 1.00
             0.1687144                   1
 p    3 1.00
             7.8682724   0.068999095584993
             1.8812885    0.31642397975315
             0.5442493    0.74430825237435
 p    1 1.00
             0.1687144                   1
 d    1 1.00
                   0.8                   1

21 0
 s    6 1.00
             3047.5249  0.0018347001629433
             457.36951    0.01403730124668
             103.94869   0.068842606114048
             29.210155    0.23218442062076
              9.286663    0.46794134155879
              3.163927    0.36231203217765
 s    3 1.00
             7.8682724   -0.11933240861517
             1.8812885   -0.16085421161283
             0.5442493     1.1434564825515
 s    1 1.00
             0.1687144                   1
 p    3 1.00
             7.8682724   0.068999095584993
             1.8812885    0.31642397975315
             0.5442493    0.74430825237435
 p    1 1.00
             0.1687144                   1
 d    1 1.00
                   0.8                   1

22 0
 s    3 1.00
             18.731137    0.03349459952309
             2.8253937    0.23472694665786
             0.6401217    0.81375731841339
 s    1 1.00
             0.1612778                   1

23 0
 s    3 1.00
             18.731137    0.03349459952309
             2.8253937    0.23472694665786
             0.6401217    0.81375731841339
 s    1 1.00
             0.1612778                   1

24 0
 s    3 1.00
             18.731137    0.03349459952309
             2.8253937    0.23472694665786
             0.6401217    0.81375731841339
 s    1 1.00
             0.1612778                   1

25 0
 s    3 1.00
             18.731137    0.03349459952309
             2.8253937    0.23472694665786
             0.6401217    0.81375731841339
 s    1 1.00
             0.1612778                   1

26 0
 s    3 1.00
             18.731137    0.03349459952309
             2.8253937    0.23472694665786
             0.6401217    0.81375731841339
 s    1 1.00
             0.1612778                   1

27 0
 s    3 1.00
             18.731137    0.03349459952309
             2.8253937    0.23472694665786
             0.6401217    0.81375731841339
 s    1 1.00
             0.1612778                   1

28 0
 s    3 1.00
             18.731137    0.03349459952309
             2.8253937    0.23472694665786
             0.6401217    0.81375731841339
 s    1 1.00
             0.1612778                   1

29 0
 s    3 1.00
             18.731137    0.03349459952309
             2.8253937    0.23472694665786
             0.6401217    0.81375731841339
 s    1 1.00
             0.1612778                   1

30 0
 s    3 1.00
             18.731137    0.03349459952309
             2.8253937    0.23472694665786
             0.6401217    0.81375731841339
 s    1 1.00
             0.1612778                   1

31 0
 s    3 1.00
             18.731137    0.03349459952309
             2.8253937    0.23472694665786
             0.6401217    0.81375731841339
 s    1 1.00
             0.1612778                   1

32 0
 s    3 1.00
             18.731137    0.03349459952309
             2.8253937    0.23472694665786
             0.6401217    0.81375731841339
 s    1 1.00
             0.1612778                   1

33 0
 s    6 1.00
             3047.5249  0.0018347001629433
             457.36951    0.01403730124668
             103.94869   0.068842606114048
             29.210155    0.23218442062076
              9.286663    0.46794134155879
              3.163927    0.36231203217765
 s    3 1.00
             7.8682724   -0.11933240861517
             1.8812885   -0.16085421161283
             0.5442493     1.1434564825515
 s    1 1.00
             0.1687144                   1
 p    3 1.00
             7.8682724   0.068999095584993
             1.8812885    0.31642397975315
             0.5442493    0.74430825237435
 p    1 1.00
             0.1687144                   1
 d    1 1.00
                   0.8                   1

34 0
 s    6 1.00
             3047.5249  0.0018347001629433
             457.36951    0.01403730124668
             103.94869   0.068842606114048
             29.210155    0.23218442062076
              9.286663    0.46794134155879
              3.163927    0.36231203217765
 s    3 1.00
             7.8682724   -0.11933240861517
             1.8812885   -0.16085421161283
             0.5442493     1.1434564825515
 s    1 1.00
             0.1687144                   1
 p    3 1.00
             7.8682724   0.068999095584993
             1.8812885    0.31642397975315
             0.5442493    0.74430825237435
 p    1 1.00
             0.1687144                   1
 d    1 1.00
                   0.8                   1

35 0
 s    3 1.00
             18.731137    0.03349459952309
             2.8253937    0.23472694665786
             0.6401217    0.81375731841339
 s    1 1.00
             0.1612778                   1

36 0
 s    6 1.00
             3047.5249  0.0018347001629433
             457.36951    0.01403730124668
             103.94869   0.068842606114048
             29.210155    0.23218442062076
              9.286663    0.46794134155879
              3.163927    0.36231203217765
 s    3 1.00
             7.8682724   -0.11933240861517
             1.8812885   -0.16085421161283
             0.5442493     1.1434564825515
 s    1 1.00
             0.1687144                   1
 p    3 1.00
             7.8682724   0.068999095584993
             1.8812885    0.31642397975315
             0.5442493    0.74430825237435
 p    1 1.00
             0.1687144                   1
 d    1 1.00
                   0.8                   1

37 0
 s    3 1.00
             18.731137    0.03349459952309
             2.8253937    0.23472694665786
             0.6401217    0.81375731841339
 s    1 1.00
             0.1612778                   1

38 0
 s    3 1.00
             18.731137    0.03349459952309
             2.8253937    0.23472694665786
             0.6401217    0.81375731841339
 s    1 1.00
             0.1612778                   1

39 0
 s    6 1.00
             3047.5249  0.0018347001629433
             457.36951    0.01403730124668
             103.94869   0.068842606114048
             29.210155    0.23218442062076
              9.286663    0.46794134155879
              3.163927    0.36231203217765
 s    3 1.00
             7.8682724   -0.11933240861517
             1.8812885   -0.16085421161283
             0.5442493     1.1434564825515
 s    1 1.00
             0.1687144                   1
 p    3 1.00
             7.8682724   0.068999095584993
             1.8812885    0.31642397975315
             0.5442493    0.74430825237435
 p    1 1.00
             0.1687144                   1
 d    1 1.00
                   0.8                   1

40 0
 s    6 1.00
             3047.5249  0.0018347001629433
             457.36951    0.01403730124668
             103.94869   0.068842606114048
             29.210155    0.23218442062076
              9.286663    0.46794134155879
              3.163927    0.36231203217765
 s    3 1.00
             7.8682724   -0.11933240861517
             1.8812885   -0.16085421161283
             0.5442493     1.1434564825515
 s    1 1.00
             0.1687144                   1
 p    3 1.00
             7.8682724   0.068999095584993
             1.8812885    0.31642397975315
             0.5442493    0.74430825237435
 p    1 1.00
             0.1687144                   1
 d    1 1.00
                   0.8                   1

41 0
 s    3 1.00
             18.731137    0.03349459952309
             2.8253937    0.23472694665786
             0.6401217    0.81375731841339
 s    1 1.00
             0.1612778                   1

42 0
 s    6 1.00
             5484.6717   0.001831099805527
             825.23495   0.013950098518422
             188.04696    0.06844509273075
               52.9645    0.23271427528445
              16.89757    0.47019295006289
             5.7996353    0.35852086192309
 s    3 1.00
             15.539616   -0.11077750382508
             3.5999336   -0.14802630511126
             1.0137618     1.1307670390447
 s    1 1.00
             0.2700058                   1
 p    3 1.00
             15.539616   0.070874299543311
             3.5999336    0.33975279781076
             1.0137618    0.72715859531445
 p    1 1.00
             0.2700058                   1
 d    1 1.00
                   0.8                   1

43 0
 s    3 1.00
             18.731137    0.03349459952309
             2.8253937    0.23472694665786
             0.6401217    0.81375731841339
 s    1 1.00
             0.1612778                   1

[5d]
[7f]
[9g]

[MO]
 Sym= A
 Ene=               0
 Spin= Alpha
 Occup=    1.00000
   1    -1.5218582470561e-07
   2    1.046832962382e-05
   3    5.5094239996718e-05
   4    4.0825870498742e-06
   5    8.5721251340189e-06
   6    -1.3770724935543e-05
   7    -4.7730707919736e-05
   8    -0.00012813939980971
   9    0.00035265187033717
  10    3.4763946936581e-07
  11    -9.8888088916992e-06
  12    -6.9087182219688e-07
  13    -1.3659280171487e-05
  14    7.6427763263215e-06
  15    1.2568448562668e-05
  16    -1.0546336764837e-05
  17    -7.8438584256772e-06
  18    -0.00015543207918392
  19    -0.00043959943771203
  20    -5.4788257668928e-05
  21    5.0361199039539e-06
  22    6.704923540555e-05
  23    -0.00020369399083319
  24    0.00011153108142001
  25    0.00054720210145909
  26    -2.1235542513525e-05
  27    2.376054170857e-05
  28    -1.4160436240487e-05
  29    -4.0402377963146e-05
  30    -3.68440071494e-06
  31    1.0447927787164e-05
  32    -3.8644176629223e-05
  33    -5.3382963933632e-05
  34    -0.00035391732727244
  35    0.0042738152287645
  36    8.7102139560742e-05
  37    -1.4731163021282e-05
  38    -0.00012883896373634
  39    0.00069248680214876
  40    -0.0018494621541783
  41    -0.0003633711189646
  42    1.1156359117899e-05
  43    -0.00010860363917621
  44    5.232694658651e-05
  45    -1.5611659642984e-05
  46    -6.7716244379749e-05
  47    1.5493188137627e-05
  48    0.00027464429763773
  49    -4.8261303876431e-05
  50    -0.00019599456284971
  51    -0.0034969753262148
  52    -0.00022727456484195
  53    0.00020754053890604
  54    0.00024915820658213
  55    0.0019963450911116
  56    -0.0024550399016897
  57    -0.001972734778426
  58    4.0276847304835e-05
  59    -2.5040544769108e-05
  60    -0.00018406246770903
  61    -3.7092845944402e-05
  62    0.00011541578349738
  63    -0.00030041201371586
  64    -7.6510097139231e-05
  65    1.9475102568158e-07
  66    2.8711700488985e-07
  67    3.9158574709961e-08
  68    5.5884057424234e-07
  69    -2.6903396177118e-06
  70    -2.0813574529784e-07
  71    3.1714065897632e-07
  72    -1.5175596846512e-07
  73    -2.5080316365908e-07
  74    -1.6389519579754e-06
  75    3.2584742079557e-09
  76    5.9986168810822e-08
  77    1.2107728230727e-07
  78    -4.2843928235479e-08
  79    -6.3466924665485e-08
  80    1.0840263032774e-07
  81    -9.6196949539345e-08
  82    -2.0248690370495e-07
  83    -1.3760875430655e-08
  84    2.7539822503059e-07
  85    1.4064044809444e-05
  86    -6.8451132785602e-07
  87    -1.7463380541826e-08
  88    -9.0497118908366e-07
  89    -3.2561743790635e-06
  90    4.5399537055071e-06
  91    -3.6149367146989e-06
  92    -1.7620984826483e-07
  93    2.7282295697898e-07
  94    -3.5337137644543e-07
  95    -6.045447124592e-08
  96    1.6569561829015e-07
  97    -6.6505960196618e-07
  98    -8.0110654933233e-07
  99    -1.523211256357e-08
 100    1.0164975942366e-06
 101    3.6971400681541e-08
 102    6.6924542170085e-07
 103    -1.0896806720867e-05
 104    -2.7773437760456e-07
 105    9.9174908482202e-07
 106    6.5811635837219e-07
 107    1.892086521534e-05
 108    -1.7721932658793e-05
 109    -3.2918693459619e-05
 110    6.0498089231724e-07
 111    5.8300479762203e-07
 112    -2.4395279753512e-07
 113    -2.6788773947733e-07
 114    5.0010812199001e-07
 115    4.8207690729752e-07
 116    4.4009442420187e-06
 117    -3.6646682522689e-05
 118    6.7703577617092e-07
 119    -9.4381700021852e-07
 120    -8.7309125082587e-07
 121    8.9278842847215e-06
 122    -1.8334308192604e-06
 123    -3.2950472705824e-06
 124    1.0463677891443e-07
 125    2.7389905424411e-07
 126    8.7872709320445e-08
 127    -1.5565636500722e-07
 128    3.9263499858726e-07
 129    9.9275661767674e-07
 130    8.6974847570865e-06
 131    -5.4588233701477e-05
 132    -1.0435807792949e-07
 133    4.8149263193786e-08
 134    -3.3409486145271e-06
 135    2.2243404213539e-05
 136    1.3064671297663e-06
 137    8.5207963548635e-05
 138    -2.5443280233855e-06
 139    -1.6657777873955e-06
 140    -1.9580693920232e-07
 141    -4.3387023589926e-07
 142    -6.7611723565166e-09
 143    4.6925822587106e-07
 144    4.4134770325787e-06
 145    -2.3316383103718e-05
 146    -1.5961315862846e-07
 147    -4.0564727275846e-07
 148    -4.0587008885719e-07
 149    -1.3529326502308e-05
 150    6.1782454232856e-06
 151    3.7841244271255e-06
 152    9.687302123274e-07
 153    4.1266677059933e-07
 154    1.1083524809052e-07
 155    -7.330727775857e-07
 156    8.0460090135189e-07
 157    -1.0842592387964e-07
 158    -8.3647844032659e-07
 159    -7.3465446354531e-08
 160    -6.7125717440599e-07
 161    4.9146774706492e-08
 162    1.2841496615282e-07
 163    6.5674041092493e-06
 164    -4.156980793801e-07
 165    -8.2971472940792e-07
 166    -4.9131098657036e-07
 167    2.2450584281072e-07
 168    -2.6451491521703e-08
 169    1.1446886986137e-07
 170    -3.2375435334151e-07
 171    -2.2806651263332e-08
 172    4.306718715986e-07
 173    1.1502562346665e-06
 174    6.0035880413679e-07
 175    1.7126167731142e-07
 176    -7.3047309554986e-07
 177    4.6881105115132e-07
 178    -1.8636198757376e-06
 179    1.5916382130095e-06
 180    -1.3234211347546e-07
 181    -2.0385379943554e-07
 182    -6.0248345152406e-08
 183    3.9172121084498e-07
 184    -1.7386067563039e-07
 185    2.8935500580354e-07
 186    2.9556687081789e-06
 187    -1.3854772392362e-06
 188    1.9822948387724e-07
 189    -1.3541812505372e-07
 190    -1.1869159269383e-06
 191    -2.1377494904642e-06
 192    -7.0542676094475e-07
 193    5.1327656976283e-06
 194    -2.6761382372142e-07
 195    4.6772324146932e-08
 196    -2.0624200775681e-07
 197    -1.0922528949881e-07
 198    9.9752393914657e-08
 199    6.8645860112905e-07
 200    1.102585610496e-06
 201    -3.8746838448458e-08
 202    -3.2808161591496e-06
 203    1.6081234326867e-06
 204    1.5499332800982e-06
 205    3.2992515469761e-07
 206    2.3771696087925e-06
 207    -9.0185897713184e-07
 208    1.0297764488542e-05
 209    -1.1299289965369e-06
 210    4.409265534692e-06
 211    -5.3437790679924e-07
 212    -2.8542907584355e-06
 213    2.418269571179e-07
 214    2.1119866880276e-06
 215    4.3357978070452e-07
 216    -5.3073670012722e-07
 217    -2.3398242195483e-07
 218    -6.826584687296e-07
 219    -2.9508583848523e-07
 220    -1.1529357678103e-06
 221    6.1682726540135e-07
 222    7.7069260062039e-06
 223    1.5193280077264e-05
 224    -4.5980094009436e-07
 225    1.1106849535612e-06
 226    -4.040149393631e-06
 227    -7.638874967673e-06
 228    -2.7392106876179e-05
 229    9.6172741886698e-05
 230    1.1905770096739e-06
 231    4.1609100473394e-06
 232    1.8125278312913e-06
 233    -1.8319531830825e-06
 234    -2.7110185956495e-06
 235    8.4928601526385e-07
 236    9.196528204089e-06
 237    -2.4202283193102e-05
 238    5.8356853912379e-07
 239    -3.354520842402e-06
 240    -2.887029959631e-06
 241    2.4025196391514e-05
 242    7.2804767616751e-06
 243    8.2314112731395e-05
 244    -1.2600736340097e-06
 245    -6.6134880523306e-06
 246    -1.4784197083319e-06
 247    -2.6750844522994e-06
 248    -1.0552890318384e-06
 249    4.4883826994806e-06
 250    -1.0461604224753e-05
 251    1.5955936034975e-06
 252    2.9310458019829e-05
 253    -0.00027644565147366
 254    -3.3035404913508e-06
 255    7.9888026272465e-06
 256    -6.7566447263194e-06
 257    -0.00011494221487237
 258    -9.0917178563584e-05
 259    0.00025111179831773
 260    -2.9420811368166e-06
 261    1.2450078478118e-05
 262     4.87211696059e-06
 263    -8.3310888917854e-06
 264    -4.5872425293068e-06
 265    3.4659446265675e-06
 266    -2.8003825928618e-05
 267    7.9096066546151e-06
 268    -3.5731807953501e-05
 269    8.5412475925201e-06
 270    4.7854748953724e-05
 271    -0.0030854125690886
 272    -1.8026128956992e-05
 273    0.00018950714018534
 274    -4.0256410593184e-05
 275    -0.0021130054685925
 276    -0.00058834749596095
 277     0.003185137937982
 278    -0.00018102767383556
 279    0.0002267528696084