[Molden Format]
made by pyscf v[2.0.1]
[Atoms] (AU)
C   1   6     0.69100024066471     0.64692934207205    -3.48223131169301
H   2   1     2.68052439830868     1.13355088658700    -3.25784032593313
C   3   6    -0.36286361513219     0.85440132524594    -5.97030179418974
H   4   1    -2.35448549047279     0.36322488579172    -6.17995817793143
C   5   6     0.93697958957450     1.61209284601821    -8.05828437677121
H   6   1     2.50035468987728     2.93484935641869    -7.84122146962088
C   7   6     0.36255105159660     0.76050131278393   -10.56848504450332
H   8   1    -1.20802221204617    -0.56532983436663   -10.75608465244450
H   9   1     1.55630230933075    -1.92953025305990    12.99630010416247
C   10   6     0.75233899775814    -2.21270439606481    11.10705728102219
H   11   1    -0.43433408177274    -3.90944857546550    11.22216085340412
C   12   6     2.86362581178706    -2.63237380607947     9.17926416456045
H   13   1     4.39038949912609    -1.24955421540245     9.49899813497433
H   14   1     3.74629220191363    -4.48798724300892     9.47414880959024
C   15   6     2.02478325613682    -2.42177285709634     6.44560829588644
C   16   6     3.88048732735477    -3.58795445234514     4.61402886975252
C   17   6    -0.18412382258602    -1.30464291234259     5.76021113872346
C   18   6    -2.10044360464350    -0.26837831858460     7.71610340967100
C   19   6    -3.08956938670431     2.35282328359417     6.88693925039594
C   20   6    -4.37372924086464    -2.09766595989678     7.93610724222001
C   21   6    -0.83850430601230     0.06372213486173    10.33002307638377
H   22   1     0.38411922151109     1.74281358582432    10.27380136542181
H   23   1    -2.30980003007874     0.45460143924521    11.73986301809809
H   24   1     4.58527064644668    -5.38706904487420     5.36778158031719
H   25   1     5.54944938085014    -2.37631462192748     4.35398898413318
H   26   1     3.06633019150423    -3.94118377050688     2.75255466040884
H   27   1    -4.17727778763735     2.26573369139522     5.12914900961283
H   28   1    -1.52662344944051     3.68001877445626     6.59540397144508
H   29   1    -4.32916174397830     3.13643051467482     8.35225460090378
H   30   1    -5.32329548508442    -2.36691813602939     6.11583672749896
H   31   1    -5.77989366602257    -1.33896741843465     9.25748940450990
H   32   1    -3.79310905208926    -3.96389819310853     8.61386170102686
C   33   6    -1.01100794811226    -1.06331657314144     3.11929490449947
C   34   6     0.37686231036534    -0.33275864505552     1.09165013605873
H   35   1    -3.01671213906703    -1.40297922279997     2.77827895090944
C   36   6    -0.64382707979370    -0.11591880174385    -1.42063131251064
H   37   1     2.35569259782137     0.17174499283897     1.33641070251401
H   38   1    -2.63317482980319    -0.60229203511219    -1.66119700387645
C   39   6     1.60144441070444     1.46482489722556   -12.70057441592292
C   40   6     0.86980516734608     0.48994136718256   -15.17470632539007
H   41   1     3.18180515535191     2.77908821383906   -12.64635086980665
O   42   8     1.89724046327418     1.04291297454121   -17.16453627851552
H   43   1    -0.75645459108880    -0.84958730954869   -15.14122439828819
[GTO]
1 0
 s    6 1.00
             3047.5249  0.0018347001629433
             457.36951    0.01403730124668
             103.94869   0.068842606114048
             29.210155    0.23218442062076
              9.286663    0.46794134155879
              3.163927    0.36231203217765
 s    3 1.00
             7.8682724   -0.11933240861517
             1.8812885   -0.16085421161283
             0.5442493     1.1434564825515
 s    1 1.00
             0.1687144                   1
 p    3 1.00
             7.8682724   0.068999095584993
             1.8812885    0.31642397975315
             0.5442493    0.74430825237435
 p    1 1.00
             0.1687144                   1
 d    1 1.00
                   0.8                   1

2 0
 s    3 1.00
             18.731137    0.03349459952309
             2.8253937    0.23472694665786
             0.6401217    0.81375731841339
 s    1 1.00
             0.1612778                   1

3 0
 s    6 1.00
             3047.5249  0.0018347001629433
             457.36951    0.01403730124668
             103.94869   0.068842606114048
             29.210155    0.23218442062076
              9.286663    0.46794134155879
              3.163927    0.36231203217765
 s    3 1.00
             7.8682724   -0.11933240861517
             1.8812885   -0.16085421161283
             0.5442493     1.1434564825515
 s    1 1.00
             0.1687144                   1
 p    3 1.00
             7.8682724   0.068999095584993
             1.8812885    0.31642397975315
             0.5442493    0.74430825237435
 p    1 1.00
             0.1687144                   1
 d    1 1.00
                   0.8                   1

4 0
 s    3 1.00
             18.731137    0.03349459952309
             2.8253937    0.23472694665786
             0.6401217    0.81375731841339
 s    1 1.00
             0.1612778                   1

5 0
 s    6 1.00
             3047.5249  0.0018347001629433
             457.36951    0.01403730124668
             103.94869   0.068842606114048
             29.210155    0.23218442062076
              9.286663    0.46794134155879
              3.163927    0.36231203217765
 s    3 1.00
             7.8682724   -0.11933240861517
             1.8812885   -0.16085421161283
             0.5442493     1.1434564825515
 s    1 1.00
             0.1687144                   1
 p    3 1.00
             7.8682724   0.068999095584993
             1.8812885    0.31642397975315
             0.5442493    0.74430825237435
 p    1 1.00
             0.1687144                   1
 d    1 1.00
                   0.8                   1

6 0
 s    3 1.00
             18.731137    0.03349459952309
             2.8253937    0.23472694665786
             0.6401217    0.81375731841339
 s    1 1.00
             0.1612778                   1

7 0
 s    6 1.00
             3047.5249  0.0018347001629433
             457.36951    0.01403730124668
             103.94869   0.068842606114048
             29.210155    0.23218442062076
              9.286663    0.46794134155879
              3.163927    0.36231203217765
 s    3 1.00
             7.8682724   -0.11933240861517
             1.8812885   -0.16085421161283
             0.5442493     1.1434564825515
 s    1 1.00
             0.1687144                   1
 p    3 1.00
             7.8682724   0.068999095584993
             1.8812885    0.31642397975315
             0.5442493    0.74430825237435
 p    1 1.00
             0.1687144                   1
 d    1 1.00
                   0.8                   1

8 0
 s    3 1.00
             18.731137    0.03349459952309
             2.8253937    0.23472694665786
             0.6401217    0.81375731841339
 s    1 1.00
             0.1612778                   1

9 0
 s    3 1.00
             18.731137    0.03349459952309
             2.8253937    0.23472694665786
             0.6401217    0.81375731841339
 s    1 1.00
             0.1612778                   1

10 0
 s    6 1.00
             3047.5249  0.0018347001629433
             457.36951    0.01403730124668
             103.94869   0.068842606114048
             29.210155    0.23218442062076
              9.286663    0.46794134155879
              3.163927    0.36231203217765
 s    3 1.00
             7.8682724   -0.11933240861517
             1.8812885   -0.16085421161283
             0.5442493     1.1434564825515
 s    1 1.00
             0.1687144                   1
 p    3 1.00
             7.8682724   0.068999095584993
             1.8812885    0.31642397975315
             0.5442493    0.74430825237435
 p    1 1.00
             0.1687144                   1
 d    1 1.00
                   0.8                   1

11 0
 s    3 1.00
             18.731137    0.03349459952309
             2.8253937    0.23472694665786
             0.6401217    0.81375731841339
 s    1 1.00
             0.1612778                   1

12 0
 s    6 1.00
             3047.5249  0.0018347001629433
             457.36951    0.01403730124668
             103.94869   0.068842606114048
             29.210155    0.23218442062076
              9.286663    0.46794134155879
              3.163927    0.36231203217765
 s    3 1.00
             7.8682724   -0.11933240861517
             1.8812885   -0.16085421161283
             0.5442493     1.1434564825515
 s    1 1.00
             0.1687144                   1
 p    3 1.00
             7.8682724   0.068999095584993
             1.8812885    0.31642397975315
             0.5442493    0.74430825237435
 p    1 1.00
             0.1687144                   1
 d    1 1.00
                   0.8                   1

13 0
 s    3 1.00
             18.731137    0.03349459952309
             2.8253937    0.23472694665786
             0.6401217    0.81375731841339
 s    1 1.00
             0.1612778                   1

14 0
 s    3 1.00
             18.731137    0.03349459952309
             2.8253937    0.23472694665786
             0.6401217    0.81375731841339
 s    1 1.00
             0.1612778                   1

15 0
 s    6 1.00
             3047.5249  0.0018347001629433
             457.36951    0.01403730124668
             103.94869   0.068842606114048
             29.210155    0.23218442062076
              9.286663    0.46794134155879
              3.163927    0.36231203217765
 s    3 1.00
             7.8682724   -0.11933240861517
             1.8812885   -0.16085421161283
             0.5442493     1.1434564825515
 s    1 1.00
             0.1687144                   1
 p    3 1.00
             7.8682724   0.068999095584993
             1.8812885    0.31642397975315
             0.5442493    0.74430825237435
 p    1 1.00
             0.1687144                   1
 d    1 1.00
                   0.8                   1

16 0
 s    6 1.00
             3047.5249  0.0018347001629433
             457.36951    0.01403730124668
             103.94869   0.068842606114048
             29.210155    0.23218442062076
              9.286663    0.46794134155879
              3.163927    0.36231203217765
 s    3 1.00
             7.8682724   -0.11933240861517
             1.8812885   -0.16085421161283
             0.5442493     1.1434564825515
 s    1 1.00
             0.1687144                   1
 p    3 1.00
             7.8682724   0.068999095584993
             1.8812885    0.31642397975315
             0.5442493    0.74430825237435
 p    1 1.00
             0.1687144                   1
 d    1 1.00
                   0.8                   1

17 0
 s    6 1.00
             3047.5249  0.0018347001629433
             457.36951    0.01403730124668
             103.94869   0.068842606114048
             29.210155    0.23218442062076
              9.286663    0.46794134155879
              3.163927    0.36231203217765
 s    3 1.00
             7.8682724   -0.11933240861517
             1.8812885   -0.16085421161283
             0.5442493     1.1434564825515
 s    1 1.00
             0.1687144                   1
 p    3 1.00
             7.8682724   0.068999095584993
             1.8812885    0.31642397975315
             0.5442493    0.74430825237435
 p    1 1.00
             0.1687144                   1
 d    1 1.00
                   0.8                   1

18 0
 s    6 1.00
             3047.5249  0.0018347001629433
             457.36951    0.01403730124668
             103.94869   0.068842606114048
             29.210155    0.23218442062076
              9.286663    0.46794134155879
              3.163927    0.36231203217765
 s    3 1.00
             7.8682724   -0.11933240861517
             1.8812885   -0.16085421161283
             0.5442493     1.1434564825515
 s    1 1.00
             0.1687144                   1
 p    3 1.00
             7.8682724   0.068999095584993
             1.8812885    0.31642397975315
             0.5442493    0.74430825237435
 p    1 1.00
             0.1687144                   1
 d    1 1.00
                   0.8                   1

19 0
 s    6 1.00
             3047.5249  0.0018347001629433
             457.36951    0.01403730124668
             103.94869   0.068842606114048
             29.210155    0.23218442062076
              9.286663    0.46794134155879
              3.163927    0.36231203217765
 s    3 1.00
             7.8682724   -0.11933240861517
             1.8812885   -0.16085421161283
             0.5442493     1.1434564825515
 s    1 1.00
             0.1687144                   1
 p    3 1.00
             7.8682724   0.068999095584993
             1.8812885    0.31642397975315
             0.5442493    0.74430825237435
 p    1 1.00
             0.1687144                   1
 d    1 1.00
                   0.8                   1

20 0
 s    6 1.00
             3047.5249  0.0018347001629433
             457.36951    0.01403730124668
             103.94869   0.068842606114048
             29.210155    0.23218442062076
              9.286663    0.46794134155879
              3.163927    0.36231203217765
 s    3 1.00
             7.8682724   -0.11933240861517
             1.8812885   -0.16085421161283
             0.5442493     1.1434564825515
 s    1 1.00
             0.1687144                   1
 p    3 1.00
             7.8682724   0.068999095584993
             1.8812885    0.31642397975315
             0.5442493    0.74430825237435
 p    1 1.00
             0.1687144                   1
 d    1 1.00
                   0.8                   1

21 0
 s    6 1.00
             3047.5249  0.0018347001629433
             457.36951    0.01403730124668
             103.94869   0.068842606114048
             29.210155    0.23218442062076
              9.286663    0.46794134155879
              3.163927    0.36231203217765
 s    3 1.00
             7.8682724   -0.11933240861517
             1.8812885   -0.16085421161283
             0.5442493     1.1434564825515
 s    1 1.00
             0.1687144                   1
 p    3 1.00
             7.8682724   0.068999095584993
             1.8812885    0.31642397975315
             0.5442493    0.74430825237435
 p    1 1.00
             0.1687144                   1
 d    1 1.00
                   0.8                   1

22 0
 s    3 1.00
             18.731137    0.03349459952309
             2.8253937    0.23472694665786
             0.6401217    0.81375731841339
 s    1 1.00
             0.1612778                   1

23 0
 s    3 1.00
             18.731137    0.03349459952309
             2.8253937    0.23472694665786
             0.6401217    0.81375731841339
 s    1 1.00
             0.1612778                   1

24 0
 s    3 1.00
             18.731137    0.03349459952309
             2.8253937    0.23472694665786
             0.6401217    0.81375731841339
 s    1 1.00
             0.1612778                   1

25 0
 s    3 1.00
             18.731137    0.03349459952309
             2.8253937    0.23472694665786
             0.6401217    0.81375731841339
 s    1 1.00
             0.1612778                   1

26 0
 s    3 1.00
             18.731137    0.03349459952309
             2.8253937    0.23472694665786
             0.6401217    0.81375731841339
 s    1 1.00
             0.1612778                   1

27 0
 s    3 1.00
             18.731137    0.03349459952309
             2.8253937    0.23472694665786
             0.6401217    0.81375731841339
 s    1 1.00
             0.1612778                   1

28 0
 s    3 1.00
             18.731137    0.03349459952309
             2.8253937    0.23472694665786
             0.6401217    0.81375731841339
 s    1 1.00
             0.1612778                   1

29 0
 s    3 1.00
             18.731137    0.03349459952309
             2.8253937    0.23472694665786
             0.6401217    0.81375731841339
 s    1 1.00
             0.1612778                   1

30 0
 s    3 1.00
             18.731137    0.03349459952309
             2.8253937    0.23472694665786
             0.6401217    0.81375731841339
 s    1 1.00
             0.1612778                   1

31 0
 s    3 1.00
             18.731137    0.03349459952309
             2.8253937    0.23472694665786
             0.6401217    0.81375731841339
 s    1 1.00
             0.1612778                   1

32 0
 s    3 1.00
             18.731137    0.03349459952309
             2.8253937    0.23472694665786
             0.6401217    0.81375731841339
 s    1 1.00
             0.1612778                   1

33 0
 s    6 1.00
             3047.5249  0.0018347001629433
             457.36951    0.01403730124668
             103.94869   0.068842606114048
             29.210155    0.23218442062076
              9.286663    0.46794134155879
              3.163927    0.36231203217765
 s    3 1.00
             7.8682724   -0.11933240861517
             1.8812885   -0.16085421161283
             0.5442493     1.1434564825515
 s    1 1.00
             0.1687144                   1
 p    3 1.00
             7.8682724   0.068999095584993
             1.8812885    0.31642397975315
             0.5442493    0.74430825237435
 p    1 1.00
             0.1687144                   1
 d    1 1.00
                   0.8                   1

34 0
 s    6 1.00
             3047.5249  0.0018347001629433
             457.36951    0.01403730124668
             103.94869   0.068842606114048
             29.210155    0.23218442062076
              9.286663    0.46794134155879
              3.163927    0.36231203217765
 s    3 1.00
             7.8682724   -0.11933240861517
             1.8812885   -0.16085421161283
             0.5442493     1.1434564825515
 s    1 1.00
             0.1687144                   1
 p    3 1.00
             7.8682724   0.068999095584993
             1.8812885    0.31642397975315
             0.5442493    0.74430825237435
 p    1 1.00
             0.1687144                   1
 d    1 1.00
                   0.8                   1

35 0
 s    3 1.00
             18.731137    0.03349459952309
             2.8253937    0.23472694665786
             0.6401217    0.81375731841339
 s    1 1.00
             0.1612778                   1

36 0
 s    6 1.00
             3047.5249  0.0018347001629433
             457.36951    0.01403730124668
             103.94869   0.068842606114048
             29.210155    0.23218442062076
              9.286663    0.46794134155879
              3.163927    0.36231203217765
 s    3 1.00
             7.8682724   -0.11933240861517
             1.8812885   -0.16085421161283
             0.5442493     1.1434564825515
 s    1 1.00
             0.1687144                   1
 p    3 1.00
             7.8682724   0.068999095584993
             1.8812885    0.31642397975315
             0.5442493    0.74430825237435
 p    1 1.00
             0.1687144                   1
 d    1 1.00
                   0.8                   1

37 0
 s    3 1.00
             18.731137    0.03349459952309
             2.8253937    0.23472694665786
             0.6401217    0.81375731841339
 s    1 1.00
             0.1612778                   1

38 0
 s    3 1.00
             18.731137    0.03349459952309
             2.8253937    0.23472694665786
             0.6401217    0.81375731841339
 s    1 1.00
             0.1612778                   1

39 0
 s    6 1.00
             3047.5249  0.0018347001629433
             457.36951    0.01403730124668
             103.94869   0.068842606114048
             29.210155    0.23218442062076
              9.286663    0.46794134155879
              3.163927    0.36231203217765
 s    3 1.00
             7.8682724   -0.11933240861517
             1.8812885   -0.16085421161283
             0.5442493     1.1434564825515
 s    1 1.00
             0.1687144                   1
 p    3 1.00
             7.8682724   0.068999095584993
             1.8812885    0.31642397975315
             0.5442493    0.74430825237435
 p    1 1.00
             0.1687144                   1
 d    1 1.00
                   0.8                   1

40 0
 s    6 1.00
             3047.5249  0.0018347001629433
             457.36951    0.01403730124668
             103.94869   0.068842606114048
             29.210155    0.23218442062076
              9.286663    0.46794134155879
              3.163927    0.36231203217765
 s    3 1.00
             7.8682724   -0.11933240861517
             1.8812885   -0.16085421161283
             0.5442493     1.1434564825515
 s    1 1.00
             0.1687144                   1
 p    3 1.00
             7.8682724   0.068999095584993
             1.8812885    0.31642397975315
             0.5442493    0.74430825237435
 p    1 1.00
             0.1687144                   1
 d    1 1.00
                   0.8                   1

41 0
 s    3 1.00
             18.731137    0.03349459952309
             2.8253937    0.23472694665786
             0.6401217    0.81375731841339
 s    1 1.00
             0.1612778                   1

42 0
 s    6 1.00
             5484.6717   0.001831099805527
             825.23495   0.013950098518422
             188.04696    0.06844509273075
               52.9645    0.23271427528445
              16.89757    0.47019295006289
             5.7996353    0.35852086192309
 s    3 1.00
             15.539616   -0.11077750382508
             3.5999336   -0.14802630511126
             1.0137618     1.1307670390447
 s    1 1.00
             0.2700058                   1
 p    3 1.00
             15.539616   0.070874299543311
             3.5999336    0.33975279781076
             1.0137618    0.72715859531445
 p    1 1.00
             0.2700058                   1
 d    1 1.00
                   0.8                   1

43 0
 s    3 1.00
             18.731137    0.03349459952309
             2.8253937    0.23472694665786
             0.6401217    0.81375731841339
 s    1 1.00
             0.1612778                   1

[5d]
[7f]
[9g]

[MO]
 Sym= A
 Ene=               0
 Spin= Alpha
 Occup=    1.00000
   1    2.1485301520294e-06
   2    2.3859850077427e-05
   3    0.00011677220014399
   4    9.5000205937676e-06
   5    3.438369599622e-05
   6    -2.1676581394851e-05
   7    -0.00020760319680666
   8    -0.00024607965096313
   9    0.00060017512660886
  10    -1.5839717728977e-05
  11    -2.0750368669746e-05
  12    7.1232841725978e-08
  13    -9.9782588544759e-07
  14    -8.4317818896095e-07
  15    3.3540238221092e-05
  16    3.2875130619482e-05
  17    -1.185065217109e-05
  18    -2.7659606404669e-05
  19    0.0016435585442948
  20    2.0118968207223e-05
  21    -8.2617847197272e-06
  22    -6.2538132415126e-05
  23    0.00035420851752893
  24    0.00012789333012042
  25    -0.00070624598870982
  26    4.7963539946386e-05
  27    -1.7870385092108e-05
  28    -2.0449047151765e-05
  29    2.1122975508161e-05
  30    -2.8579377825653e-05
  31    -4.1909367864676e-06
  32    -6.8395655329542e-05
  33    5.7663108209051e-05
  34    0.00035230011331394
  35    -0.0049887340635924
  36    -4.3645776699051e-05
  37    -6.8089255603988e-07
  38    0.00010901022531922
  39    0.0013771720004857
  40    0.0012611713526709
  41    0.0012851528810019
  42    -0.00014330128460809
  43    -1.1592731971017e-05
  44    -6.0618161314626e-05
  45    -2.0569035234552e-06
  46    -4.8456496235184e-05
  47    -3.3029179629548e-05
  48    -0.00031145422886781
  49    4.3099911364608e-05
  50    0.00016793871446294
  51    0.0038735361120749
  52    -4.5968990320896e-05
  53    -0.00010393871549221
  54    -0.0003744008076558
  55    0.00098748396605475
  56    0.0013973626095131
  57    0.0035549578475458
  58    9.7434628676568e-05
  59    0.00013801890328494
  60    0.00012896431849957
  61    -4.2182172589661e-05
  62    -9.154690658695e-05
  63    0.00029779581392291
  64    0.0001012406159799
  65    2.3595832291949e-08
  66    -1.4050808694358e-06
  67    7.8406107416022e-08
  68    8.5484146864406e-07
  69    9.8203837106707e-07
  70    -5.1453526132383e-07
  71    5.9258661638214e-07
  72    -3.0405835528187e-07
  73    -1.5370645329038e-06
  74    -1.0927438848814e-07
  75    1.9816389485947e-06
  76    -1.8001829661081e-07
  77    -7.8480134185498e-08
  78    -9.1055772022882e-08
  79    -5.7731293775626e-08
  80    -7.3490036857162e-08
  81    -9.1369154860801e-08
  82    -4.8097575062857e-07
  83    -1.8413444656159e-07
  84    -1.2886834861659e-06
  85    5.735190532016e-06
  86    -2.4384659447614e-07
  87    1.5173981929051e-08
  88    -3.9934097775125e-07
  89    -3.0094371663917e-06
  90    5.0392863206663e-06
  91    -1.0930518529034e-07
  92    1.0261342816652e-07
  93    2.9950488313036e-07
  94    -5.9887079028913e-07
  95    2.1636648982238e-07
  96    -1.3249934702508e-08
  97    -8.4906566346878e-07
  98    -2.3165050080383e-07
  99    1.6946372624356e-07
 100    8.5160172089629e-07
 101    3.8905730039815e-07
 102    1.3540315428597e-06
 103    -5.2188275411499e-05
 104    5.9848493369574e-07
 105    -3.0835652087094e-07
 106    1.6116274673729e-06
 107    2.0550504216269e-05
 108    -2.1740219266988e-05
 109    5.4051851178489e-06
 110    -5.623320453686e-07
 111    -8.6295393169202e-07
 112      3.8527434333e-07
 113    5.6436112847204e-07
 114     1.07580468998e-06
 115    -3.4385775258738e-07
 116    -3.7236740412707e-06
 117    1.0587485062751e-05
 118    2.0933123297773e-07
 119    -8.7091529970884e-07
 120    1.0828543246604e-06
 121    -3.0650269323929e-06
 122    6.6112473999034e-06
 123    -1.2296344410828e-05
 124    -3.6334749985559e-07
 125    4.5869141306441e-07
 126    3.8579666683224e-07
 127    2.6851953213607e-08
 128    1.2001096274341e-07
 129    -3.6380139862629e-07
 130    -3.5952994451119e-06
 131    -2.908096543054e-05
 132    -3.8120557957512e-06
 133    -1.4480709579625e-06
 134    3.2780990306314e-06
 135    7.2862082803372e-05
 136    -3.7780534773081e-06
 137    1.5689663383763e-05
 138    -4.3461080072929e-07
 139    -5.7506308969482e-07
 140    -1.7451139338459e-06
 141    2.8557439134742e-07
 142    -1.1605879923168e-06
 143    3.8142325259875e-08
 144    1.6473663800891e-06
 145    2.2854729966315e-05
 146    3.5250152918105e-07
 147    1.1438393486914e-06
 148    -3.492546654251e-06
 149    7.7900973996113e-06
 150    -2.7258425079305e-05
 151    1.3286085592545e-05
 152    4.7925508641423e-07
 153    -1.2373325522222e-07
 154    1.411062580655e-06
 155    1.8363377807495e-07
 156     6.89126962393e-07
 157    -4.4442247509234e-07
 158    -3.5177193973232e-06
 159    2.2949083051573e-05
 160    -1.1162657363504e-07
 161    -6.8067279963352e-07
 162    7.797424760859e-07
 163    6.8226049184748e-06
 164    -8.8414110016986e-06
 165    -1.2889778567705e-06
 166    -7.4883693394381e-07
 167    2.7803177453285e-07
 168    -1.584523372807e-07
 169    -3.4025317916636e-07
 170    -5.6394570417803e-07
 171    -3.2950999947768e-08
 172    -2.1814188881341e-07
 173    -3.3128961267389e-06
 174    -1.696985937949e-08
 175    1.6258529575462e-07
 176    -9.0163475386469e-07
 177    -8.4282711834976e-06
 178    -2.8607037573769e-06
 179    -4.3558320317515e-06
 180    2.705376513361e-07
 181    -9.4140026307536e-07
 182    -6.1923344983895e-08
 183    -5.5988170006608e-07
 184    -7.01093100517e-07
 185    4.3814676132743e-07
 186    3.6610834535394e-06
 187    -1.8695794336202e-05
 188    7.2310828257332e-07
 189    6.8983142733682e-08
 190    1.9496858363124e-07
 191    9.0267047086581e-07
 192    7.2405154095558e-06
 193     8.06589273093e-06
 194    -2.9367652052266e-07
 195    -5.5463836339073e-07
 196    -1.075728497496e-06
 197    3.0384738103927e-07
 198    -2.4820409762292e-07
 199    1.0643246726118e-06
 200    -1.4211000524577e-06
 201    3.2201122092919e-07
 202    -5.9165412023178e-07
 203    2.7819272050412e-07
 204    3.8008758622356e-06
 205    -2.0396573646748e-06
 206    -7.3391192803175e-07
 207    9.135935982978e-07
 208    -1.5660038947531e-05
 209    -1.5225254752169e-06
 210    -6.4081908781558e-07
 211    -1.3514549395645e-06
 212    -1.9722585708614e-06
 213    -3.7205938992068e-07
 214    2.0440658586712e-06
 215    1.7941829121954e-06
 216    -1.1961259559935e-05
 217    -4.340007411605e-07
 218    1.2391827488275e-07
 219    -5.3045131045508e-07
 220    1.7560422246385e-06
 221    2.2757364650363e-06
 222    1.3754635435844e-05
 223    -0.00016638873914819
 224    -4.5648407292649e-06
 225    5.2251429120539e-07
 226    -9.7016389910657e-08
 227    -2.2562925263851e-05
 228    -3.3058884440134e-05
 229    0.00017757232957701
 230    -4.1704907296346e-06
 231    5.8621116142617e-06
 232    3.8743208558862e-06
 233    -2.0497772438285e-06
 234    -1.0651603624285e-06
 235    -5.672507931742e-06
 236    -3.3563446586196e-05
 237    0.00051870339065828
 238    2.2457821281877e-06
 239    5.064282749563e-06
 240    -1.1223453432355e-05
 241    -0.00016086390995015
 242    -4.4270425671515e-05
 243    -9.5715097274382e-05
 244    1.4723510874336e-05
 245    -1.1355168130153e-06
 246    -2.9540520902776e-06
 247    1.250687968124e-06
 248    3.5463778114329e-06
 249    7.3915991460114e-06
 250    1.628627796544e-05
 251    4.1384672402767e-06
 252    2.9681705799449e-05
 253    -0.00074250932015823
 254    9.0537717834443e-06
 255    -1.3657487002526e-05
 256    2.5749367583867e-05
 257    -0.00032702197825777
 258    -1.2517901286871e-05
 259    -9.4421929322226e-05
 260    -1.4352245679229e-05
 261    2.6288051408981e-06
 262    2.4257368825593e-06
 263    -4.6107917290944e-06
 264    1.7757907740431e-06
 265    4.0285602013114e-06
 266    9.3154013806076e-06
 267    -2.0195030823432e-05
 268    -3.9324599595915e-05
 269    -7.4178348261747e-06
 270    -4.0727121525746e-05
 271    0.0030471466461816
 272    -0.00014170566763771
 273    -0.00012124769555528
 274    -3.4423370680787e-05
 275    0.0015795053104899
 276    0.00075945281398198
 277    -0.003548696413384
 278    0.00035564896408106
 279    -9.0032510372623e-05