[Molden Format]
made by pyscf v[2.0.1]
[Atoms] (AU)
C   1   6     0.69100024066471     0.64692934207205    -3.48223131169301
H   2   1     2.68052439830868     1.13355088658700    -3.25784032593313
C   3   6    -0.36286361513219     0.85440132524594    -5.97030179418974
H   4   1    -2.35448549047279     0.36322488579172    -6.17995817793143
C   5   6     0.93697958957450     1.61209284601821    -8.05828437677121
H   6   1     0.96138501035509     3.61074187827952    -8.55401536893531
C   7   6     2.29833572157337    -0.09037665740906    -9.67215882917863
H   8   1     2.25763405404964    -2.08692321364337    -9.15074973557782
H   9   1     1.55630230933075    -1.92953025305990    12.99630010416247
C   10   6     0.75233899775814    -2.21270439606481    11.10705728102219
H   11   1    -0.43433408177274    -3.90944857546550    11.22216085340412
C   12   6     2.86362581178706    -2.63237380607947     9.17926416456045
H   13   1     4.39038949912609    -1.24955421540245     9.49899813497433
H   14   1     3.74629220191363    -4.48798724300892     9.47414880959024
C   15   6     2.02478325613682    -2.42177285709634     6.44560829588644
C   16   6     3.88048732735477    -3.58795445234514     4.61402886975252
C   17   6    -0.18412382258602    -1.30464291234259     5.76021113872346
C   18   6    -2.10044360464350    -0.26837831858460     7.71610340967100
C   19   6    -3.08956938670431     2.35282328359417     6.88693925039594
C   20   6    -4.37372924086464    -2.09766595989678     7.93610724222001
C   21   6    -0.83850430601230     0.06372213486173    10.33002307638377
H   22   1     0.38411922151109     1.74281358582432    10.27380136542181
H   23   1    -2.30980003007874     0.45460143924521    11.73986301809809
H   24   1     4.58527064644668    -5.38706904487420     5.36778158031719
H   25   1     5.54944938085014    -2.37631462192748     4.35398898413318
H   26   1     3.06633019150423    -3.94118377050688     2.75255466040884
H   27   1    -4.17727778763735     2.26573369139522     5.12914900961283
H   28   1    -1.52662344944051     3.68001877445626     6.59540397144508
H   29   1    -4.32916174397830     3.13643051467482     8.35225460090378
H   30   1    -5.32329548508442    -2.36691813602939     6.11583672749896
H   31   1    -5.77989366602257    -1.33896741843465     9.25748940450990
H   32   1    -3.79310905208926    -3.96389819310853     8.61386170102686
C   33   6    -1.01100794811226    -1.06331657314144     3.11929490449947
C   34   6     0.37686231036534    -0.33275864505552     1.09165013605873
H   35   1    -3.01671213906703    -1.40297922279997     2.77827895090944
C   36   6    -0.64382707979370    -0.11591880174385    -1.42063131251064
H   37   1     2.35569259782137     0.17174499283897     1.33641070251401
H   38   1    -2.63317482980319    -0.60229203511219    -1.66119700387645
C   39   6     3.61506927759443     0.57708357993929   -11.76916696671870
C   40   6     4.94068653136927    -1.30276865816170   -13.29098070185656
H   41   1     3.73162541044975     2.53269508104841   -12.39347992177894
O   42   8     6.15625203764207    -0.83635548426311   -15.19510343410387
H   43   1     4.77073908343657    -3.27989237609552   -12.58226454806003
[GTO]
1 0
 s    6 1.00
             3047.5249  0.0018347001629433
             457.36951    0.01403730124668
             103.94869   0.068842606114048
             29.210155    0.23218442062076
              9.286663    0.46794134155879
              3.163927    0.36231203217765
 s    3 1.00
             7.8682724   -0.11933240861517
             1.8812885   -0.16085421161283
             0.5442493     1.1434564825515
 s    1 1.00
             0.1687144                   1
 p    3 1.00
             7.8682724   0.068999095584993
             1.8812885    0.31642397975315
             0.5442493    0.74430825237435
 p    1 1.00
             0.1687144                   1
 d    1 1.00
                   0.8                   1

2 0
 s    3 1.00
             18.731137    0.03349459952309
             2.8253937    0.23472694665786
             0.6401217    0.81375731841339
 s    1 1.00
             0.1612778                   1

3 0
 s    6 1.00
             3047.5249  0.0018347001629433
             457.36951    0.01403730124668
             103.94869   0.068842606114048
             29.210155    0.23218442062076
              9.286663    0.46794134155879
              3.163927    0.36231203217765
 s    3 1.00
             7.8682724   -0.11933240861517
             1.8812885   -0.16085421161283
             0.5442493     1.1434564825515
 s    1 1.00
             0.1687144                   1
 p    3 1.00
             7.8682724   0.068999095584993
             1.8812885    0.31642397975315
             0.5442493    0.74430825237435
 p    1 1.00
             0.1687144                   1
 d    1 1.00
                   0.8                   1

4 0
 s    3 1.00
             18.731137    0.03349459952309
             2.8253937    0.23472694665786
             0.6401217    0.81375731841339
 s    1 1.00
             0.1612778                   1

5 0
 s    6 1.00
             3047.5249  0.0018347001629433
             457.36951    0.01403730124668
             103.94869   0.068842606114048
             29.210155    0.23218442062076
              9.286663    0.46794134155879
              3.163927    0.36231203217765
 s    3 1.00
             7.8682724   -0.11933240861517
             1.8812885   -0.16085421161283
             0.5442493     1.1434564825515
 s    1 1.00
             0.1687144                   1
 p    3 1.00
             7.8682724   0.068999095584993
             1.8812885    0.31642397975315
             0.5442493    0.74430825237435
 p    1 1.00
             0.1687144                   1
 d    1 1.00
                   0.8                   1

6 0
 s    3 1.00
             18.731137    0.03349459952309
             2.8253937    0.23472694665786
             0.6401217    0.81375731841339
 s    1 1.00
             0.1612778                   1

7 0
 s    6 1.00
             3047.5249  0.0018347001629433
             457.36951    0.01403730124668
             103.94869   0.068842606114048
             29.210155    0.23218442062076
              9.286663    0.46794134155879
              3.163927    0.36231203217765
 s    3 1.00
             7.8682724   -0.11933240861517
             1.8812885   -0.16085421161283
             0.5442493     1.1434564825515
 s    1 1.00
             0.1687144                   1
 p    3 1.00
             7.8682724   0.068999095584993
             1.8812885    0.31642397975315
             0.5442493    0.74430825237435
 p    1 1.00
             0.1687144                   1
 d    1 1.00
                   0.8                   1

8 0
 s    3 1.00
             18.731137    0.03349459952309
             2.8253937    0.23472694665786
             0.6401217    0.81375731841339
 s    1 1.00
             0.1612778                   1

9 0
 s    3 1.00
             18.731137    0.03349459952309
             2.8253937    0.23472694665786
             0.6401217    0.81375731841339
 s    1 1.00
             0.1612778                   1

10 0
 s    6 1.00
             3047.5249  0.0018347001629433
             457.36951    0.01403730124668
             103.94869   0.068842606114048
             29.210155    0.23218442062076
              9.286663    0.46794134155879
              3.163927    0.36231203217765
 s    3 1.00
             7.8682724   -0.11933240861517
             1.8812885   -0.16085421161283
             0.5442493     1.1434564825515
 s    1 1.00
             0.1687144                   1
 p    3 1.00
             7.8682724   0.068999095584993
             1.8812885    0.31642397975315
             0.5442493    0.74430825237435
 p    1 1.00
             0.1687144                   1
 d    1 1.00
                   0.8                   1

11 0
 s    3 1.00
             18.731137    0.03349459952309
             2.8253937    0.23472694665786
             0.6401217    0.81375731841339
 s    1 1.00
             0.1612778                   1

12 0
 s    6 1.00
             3047.5249  0.0018347001629433
             457.36951    0.01403730124668
             103.94869   0.068842606114048
             29.210155    0.23218442062076
              9.286663    0.46794134155879
              3.163927    0.36231203217765
 s    3 1.00
             7.8682724   -0.11933240861517
             1.8812885   -0.16085421161283
             0.5442493     1.1434564825515
 s    1 1.00
             0.1687144                   1
 p    3 1.00
             7.8682724   0.068999095584993
             1.8812885    0.31642397975315
             0.5442493    0.74430825237435
 p    1 1.00
             0.1687144                   1
 d    1 1.00
                   0.8                   1

13 0
 s    3 1.00
             18.731137    0.03349459952309
             2.8253937    0.23472694665786
             0.6401217    0.81375731841339
 s    1 1.00
             0.1612778                   1

14 0
 s    3 1.00
             18.731137    0.03349459952309
             2.8253937    0.23472694665786
             0.6401217    0.81375731841339
 s    1 1.00
             0.1612778                   1

15 0
 s    6 1.00
             3047.5249  0.0018347001629433
             457.36951    0.01403730124668
             103.94869   0.068842606114048
             29.210155    0.23218442062076
              9.286663    0.46794134155879
              3.163927    0.36231203217765
 s    3 1.00
             7.8682724   -0.11933240861517
             1.8812885   -0.16085421161283
             0.5442493     1.1434564825515
 s    1 1.00
             0.1687144                   1
 p    3 1.00
             7.8682724   0.068999095584993
             1.8812885    0.31642397975315
             0.5442493    0.74430825237435
 p    1 1.00
             0.1687144                   1
 d    1 1.00
                   0.8                   1

16 0
 s    6 1.00
             3047.5249  0.0018347001629433
             457.36951    0.01403730124668
             103.94869   0.068842606114048
             29.210155    0.23218442062076
              9.286663    0.46794134155879
              3.163927    0.36231203217765
 s    3 1.00
             7.8682724   -0.11933240861517
             1.8812885   -0.16085421161283
             0.5442493     1.1434564825515
 s    1 1.00
             0.1687144                   1
 p    3 1.00
             7.8682724   0.068999095584993
             1.8812885    0.31642397975315
             0.5442493    0.74430825237435
 p    1 1.00
             0.1687144                   1
 d    1 1.00
                   0.8                   1

17 0
 s    6 1.00
             3047.5249  0.0018347001629433
             457.36951    0.01403730124668
             103.94869   0.068842606114048
             29.210155    0.23218442062076
              9.286663    0.46794134155879
              3.163927    0.36231203217765
 s    3 1.00
             7.8682724   -0.11933240861517
             1.8812885   -0.16085421161283
             0.5442493     1.1434564825515
 s    1 1.00
             0.1687144                   1
 p    3 1.00
             7.8682724   0.068999095584993
             1.8812885    0.31642397975315
             0.5442493    0.74430825237435
 p    1 1.00
             0.1687144                   1
 d    1 1.00
                   0.8                   1

18 0
 s    6 1.00
             3047.5249  0.0018347001629433
             457.36951    0.01403730124668
             103.94869   0.068842606114048
             29.210155    0.23218442062076
              9.286663    0.46794134155879
              3.163927    0.36231203217765
 s    3 1.00
             7.8682724   -0.11933240861517
             1.8812885   -0.16085421161283
             0.5442493     1.1434564825515
 s    1 1.00
             0.1687144                   1
 p    3 1.00
             7.8682724   0.068999095584993
             1.8812885    0.31642397975315
             0.5442493    0.74430825237435
 p    1 1.00
             0.1687144                   1
 d    1 1.00
                   0.8                   1

19 0
 s    6 1.00
             3047.5249  0.0018347001629433
             457.36951    0.01403730124668
             103.94869   0.068842606114048
             29.210155    0.23218442062076
              9.286663    0.46794134155879
              3.163927    0.36231203217765
 s    3 1.00
             7.8682724   -0.11933240861517
             1.8812885   -0.16085421161283
             0.5442493     1.1434564825515
 s    1 1.00
             0.1687144                   1
 p    3 1.00
             7.8682724   0.068999095584993
             1.8812885    0.31642397975315
             0.5442493    0.74430825237435
 p    1 1.00
             0.1687144                   1
 d    1 1.00
                   0.8                   1

20 0
 s    6 1.00
             3047.5249  0.0018347001629433
             457.36951    0.01403730124668
             103.94869   0.068842606114048
             29.210155    0.23218442062076
              9.286663    0.46794134155879
              3.163927    0.36231203217765
 s    3 1.00
             7.8682724   -0.11933240861517
             1.8812885   -0.16085421161283
             0.5442493     1.1434564825515
 s    1 1.00
             0.1687144                   1
 p    3 1.00
             7.8682724   0.068999095584993
             1.8812885    0.31642397975315
             0.5442493    0.74430825237435
 p    1 1.00
             0.1687144                   1
 d    1 1.00
                   0.8                   1

21 0
 s    6 1.00
             3047.5249  0.0018347001629433
             457.36951    0.01403730124668
             103.94869   0.068842606114048
             29.210155    0.23218442062076
              9.286663    0.46794134155879
              3.163927    0.36231203217765
 s    3 1.00
             7.8682724   -0.11933240861517
             1.8812885   -0.16085421161283
             0.5442493     1.1434564825515
 s    1 1.00
             0.1687144                   1
 p    3 1.00
             7.8682724   0.068999095584993
             1.8812885    0.31642397975315
             0.5442493    0.74430825237435
 p    1 1.00
             0.1687144                   1
 d    1 1.00
                   0.8                   1

22 0
 s    3 1.00
             18.731137    0.03349459952309
             2.8253937    0.23472694665786
             0.6401217    0.81375731841339
 s    1 1.00
             0.1612778                   1

23 0
 s    3 1.00
             18.731137    0.03349459952309
             2.8253937    0.23472694665786
             0.6401217    0.81375731841339
 s    1 1.00
             0.1612778                   1

24 0
 s    3 1.00
             18.731137    0.03349459952309
             2.8253937    0.23472694665786
             0.6401217    0.81375731841339
 s    1 1.00
             0.1612778                   1

25 0
 s    3 1.00
             18.731137    0.03349459952309
             2.8253937    0.23472694665786
             0.6401217    0.81375731841339
 s    1 1.00
             0.1612778                   1

26 0
 s    3 1.00
             18.731137    0.03349459952309
             2.8253937    0.23472694665786
             0.6401217    0.81375731841339
 s    1 1.00
             0.1612778                   1

27 0
 s    3 1.00
             18.731137    0.03349459952309
             2.8253937    0.23472694665786
             0.6401217    0.81375731841339
 s    1 1.00
             0.1612778                   1

28 0
 s    3 1.00
             18.731137    0.03349459952309
             2.8253937    0.23472694665786
             0.6401217    0.81375731841339
 s    1 1.00
             0.1612778                   1

29 0
 s    3 1.00
             18.731137    0.03349459952309
             2.8253937    0.23472694665786
             0.6401217    0.81375731841339
 s    1 1.00
             0.1612778                   1

30 0
 s    3 1.00
             18.731137    0.03349459952309
             2.8253937    0.23472694665786
             0.6401217    0.81375731841339
 s    1 1.00
             0.1612778                   1

31 0
 s    3 1.00
             18.731137    0.03349459952309
             2.8253937    0.23472694665786
             0.6401217    0.81375731841339
 s    1 1.00
             0.1612778                   1

32 0
 s    3 1.00
             18.731137    0.03349459952309
             2.8253937    0.23472694665786
             0.6401217    0.81375731841339
 s    1 1.00
             0.1612778                   1

33 0
 s    6 1.00
             3047.5249  0.0018347001629433
             457.36951    0.01403730124668
             103.94869   0.068842606114048
             29.210155    0.23218442062076
              9.286663    0.46794134155879
              3.163927    0.36231203217765
 s    3 1.00
             7.8682724   -0.11933240861517
             1.8812885   -0.16085421161283
             0.5442493     1.1434564825515
 s    1 1.00
             0.1687144                   1
 p    3 1.00
             7.8682724   0.068999095584993
             1.8812885    0.31642397975315
             0.5442493    0.74430825237435
 p    1 1.00
             0.1687144                   1
 d    1 1.00
                   0.8                   1

34 0
 s    6 1.00
             3047.5249  0.0018347001629433
             457.36951    0.01403730124668
             103.94869   0.068842606114048
             29.210155    0.23218442062076
              9.286663    0.46794134155879
              3.163927    0.36231203217765
 s    3 1.00
             7.8682724   -0.11933240861517
             1.8812885   -0.16085421161283
             0.5442493     1.1434564825515
 s    1 1.00
             0.1687144                   1
 p    3 1.00
             7.8682724   0.068999095584993
             1.8812885    0.31642397975315
             0.5442493    0.74430825237435
 p    1 1.00
             0.1687144                   1
 d    1 1.00
                   0.8                   1

35 0
 s    3 1.00
             18.731137    0.03349459952309
             2.8253937    0.23472694665786
             0.6401217    0.81375731841339
 s    1 1.00
             0.1612778                   1

36 0
 s    6 1.00
             3047.5249  0.0018347001629433
             457.36951    0.01403730124668
             103.94869   0.068842606114048
             29.210155    0.23218442062076
              9.286663    0.46794134155879
              3.163927    0.36231203217765
 s    3 1.00
             7.8682724   -0.11933240861517
             1.8812885   -0.16085421161283
             0.5442493     1.1434564825515
 s    1 1.00
             0.1687144                   1
 p    3 1.00
             7.8682724   0.068999095584993
             1.8812885    0.31642397975315
             0.5442493    0.74430825237435
 p    1 1.00
             0.1687144                   1
 d    1 1.00
                   0.8                   1

37 0
 s    3 1.00
             18.731137    0.03349459952309
             2.8253937    0.23472694665786
             0.6401217    0.81375731841339
 s    1 1.00
             0.1612778                   1

38 0
 s    3 1.00
             18.731137    0.03349459952309
             2.8253937    0.23472694665786
             0.6401217    0.81375731841339
 s    1 1.00
             0.1612778                   1

39 0
 s    6 1.00
             3047.5249  0.0018347001629433
             457.36951    0.01403730124668
             103.94869   0.068842606114048
             29.210155    0.23218442062076
              9.286663    0.46794134155879
              3.163927    0.36231203217765
 s    3 1.00
             7.8682724   -0.11933240861517
             1.8812885   -0.16085421161283
             0.5442493     1.1434564825515
 s    1 1.00
             0.1687144                   1
 p    3 1.00
             7.8682724   0.068999095584993
             1.8812885    0.31642397975315
             0.5442493    0.74430825237435
 p    1 1.00
             0.1687144                   1
 d    1 1.00
                   0.8                   1

40 0
 s    6 1.00
             3047.5249  0.0018347001629433
             457.36951    0.01403730124668
             103.94869   0.068842606114048
             29.210155    0.23218442062076
              9.286663    0.46794134155879
              3.163927    0.36231203217765
 s    3 1.00
             7.8682724   -0.11933240861517
             1.8812885   -0.16085421161283
             0.5442493     1.1434564825515
 s    1 1.00
             0.1687144                   1
 p    3 1.00
             7.8682724   0.068999095584993
             1.8812885    0.31642397975315
             0.5442493    0.74430825237435
 p    1 1.00
             0.1687144                   1
 d    1 1.00
                   0.8                   1

41 0
 s    3 1.00
             18.731137    0.03349459952309
             2.8253937    0.23472694665786
             0.6401217    0.81375731841339
 s    1 1.00
             0.1612778                   1

42 0
 s    6 1.00
             5484.6717   0.001831099805527
             825.23495   0.013950098518422
             188.04696    0.06844509273075
               52.9645    0.23271427528445
              16.89757    0.47019295006289
             5.7996353    0.35852086192309
 s    3 1.00
             15.539616   -0.11077750382508
             3.5999336   -0.14802630511126
             1.0137618     1.1307670390447
 s    1 1.00
             0.2700058                   1
 p    3 1.00
             15.539616   0.070874299543311
             3.5999336    0.33975279781076
             1.0137618    0.72715859531445
 p    1 1.00
             0.2700058                   1
 d    1 1.00
                   0.8                   1

43 0
 s    3 1.00
             18.731137    0.03349459952309
             2.8253937    0.23472694665786
             0.6401217    0.81375731841339
 s    1 1.00
             0.1612778                   1

[5d]
[7f]
[9g]

[MO]
 Sym= A
 Ene=               0
 Spin= Alpha
 Occup=    1.00000
   1    -2.2095172680598e-07
   2    -1.3803668885917e-05
   3    -1.5720485972657e-05
   4    -4.9888494162511e-06
   5    -4.7371812483216e-06
   6    1.4542473172037e-05
   7    3.5908706100986e-05
   8    0.00011143310260432
   9    -0.00036554366878704
  10    9.5700866017697e-09
  11    1.0685829187461e-05
  12    1.4917490651359e-06
  13    1.3825949721866e-05
  14    -7.6224770996641e-06
  15    -1.3104711557357e-05
  16    1.4159161386656e-05
  17    8.1970622694039e-06
  18    0.00015858390102229
  19    0.00042063645467081
  20    5.3946640247874e-05
  21    -6.7457490139386e-06
  22    -6.7742282749126e-05
  23    0.00017915797634765
  24    -0.0001024330988189
  25    -0.00057886558669615
  26    2.1258446605281e-05
  27    -2.3371903540231e-05
  28    1.2195435324618e-05
  29    4.120431140288e-05
  30    2.205501920753e-07
  31    -1.0701993051344e-05
  32    3.3447394328298e-05
  33    5.3380106369389e-05
  34    0.00035411017483095
  35    -0.0042786840463713
  36    -8.3918764971649e-05
  37    1.5587003836331e-05
  38    0.00013124270657809
  39    -0.00057123834475704
  40    0.0018675128341781
  41    0.00043982521171418
  42    -1.7925942715079e-05
  43    0.00010694995487772
  44    -5.9803483527489e-05
  45    2.2956499785542e-05
  46    5.974921585887e-05
  47    -1.4810575449159e-05
  48    -0.00027284390453956
  49    4.8335846173095e-05
  50    0.00019606868454093
  51    0.0034905431765303
  52    0.00020998916637287
  53    -0.00021091805174184
  54    -0.00026170184976557
  55    -0.0018136495416467
  56    0.0024884588333826
  57    0.0021002084235745
  58    -3.0099296673592e-05
  59    2.9738157535473e-05
  60    0.00018571159890078
  61    3.1005384901743e-05
  62    -0.00011662668235383
  63    0.0003002331718219
  64    7.5885262777033e-05
  65    -2.0793398248218e-07
  66    -2.8533581949813e-07
  67    -4.0655357786584e-08
  68    -5.6890042398301e-07
  69    2.772527581831e-06
  70    2.2091553239401e-07
  71    -3.278240948157e-07
  72    1.3877580595831e-07
  73    2.6315826106053e-07
  74    1.6692413257399e-06
  75    3.1048433061276e-08
  76    -5.5051197134914e-08
  77    -1.1980036929744e-07
  78    4.6336161993477e-08
  79    6.9261549792653e-08
  80    -1.0431999976091e-07
  81    9.381987990533e-08
  82    2.1430503065151e-07
  83    1.9497306941371e-08
  84    -2.1057080190575e-07
  85    -1.3625758452322e-05
  86    6.5557176414779e-07
  87    5.1293570737044e-08
  88    8.9021812139356e-07
  89    3.3217664882167e-06
  90    -4.7135384899834e-06
  91    3.3706388847366e-06
  92    1.7212045766635e-07
  93    -2.7567770142798e-07
  94    3.5615767352897e-07
  95    4.7313735201771e-08
  96    -1.5955421952979e-07
  97    6.7467259799301e-07
  98    8.4918285775716e-07
  99    -1.7813975824635e-08
 100    -1.0820091415569e-06
 101    -6.0615705282614e-08
 102    -8.2203238462196e-07
 103    1.3145442075419e-05
 104    2.0178828070768e-07
 105    -9.8609181597044e-07
 106    -6.3727699587963e-07
 107    -1.9221584297162e-05
 108    1.7766835686856e-05
 109    3.1150193314315e-05
 110    -5.894361408572e-07
 111    -5.4453547174412e-07
 112    2.3183555229147e-07
 113    3.1675501245446e-07
 114    -5.0841513351697e-07
 115    -4.7956533590737e-07
 116    -4.4053703970434e-06
 117    3.6187531420686e-05
 118    -6.6469809008344e-07
 119    9.8462897349239e-07
 120    8.3983099753105e-07
 121    -8.4711259674173e-06
 122    1.2590622548061e-06
 123    2.9036945473011e-06
 124    -8.3052271478627e-08
 125    -2.4613685846755e-07
 126    -1.1853008208709e-07
 127    1.2026519818559e-07
 128    -3.687686111605e-07
 129    -9.6685746382585e-07
 130    -8.6094735515402e-06
 131    5.1973381883666e-05
 132    1.6006304918612e-07
 133    -2.1399606693762e-07
 134    3.3386494483255e-06
 135    -2.3988001198014e-05
 136    1.0358014028489e-07
 137    -8.1998459943538e-05
 138    2.4753659463026e-06
 139    1.5941158490876e-06
 140    2.3270558909539e-07
 141    4.1760414806106e-07
 142    5.7210194661818e-08
 143    -4.2343374354452e-07
 144    -4.0483322974017e-06
 145    2.051677159425e-05
 146    1.9338352946372e-07
 147    4.7950863818993e-07
 148    4.4556777421722e-07
 149     1.22409017098e-05
 150    -6.2300974705525e-06
 151    -3.2951845689479e-06
 152    -9.8538066445396e-07
 153    -3.8656152861936e-07
 154    -1.1968636532393e-07
 155    7.1594282428457e-07
 156    -7.6018021378547e-07
 157     1.07766613192e-07
 158    8.5286481706602e-07
 159    3.0797329393407e-07
 160    6.9604228865522e-07
 161    -7.8224119212913e-08
 162    -9.3180915084861e-08
 163    -6.3383075821098e-06
 164    3.0434150859133e-07
 165    8.3483997111976e-07
 166    4.6555979612882e-07
 167    -1.8722098433684e-07
 168    1.8949693781087e-08
 169    -1.0946376412011e-07
 170    3.0206085683351e-07
 171    2.568023871449e-08
 172    -4.1703094802591e-07
 173    -1.4225788972865e-06
 174    -6.2536870487204e-07
 175    -1.6289375003975e-07
 176    7.5139825475273e-07
 177    -3.5495850353453e-07
 178    1.7052806445412e-06
 179    -1.6762969182384e-06
 180    1.3785701306716e-07
 181    2.1521440226878e-07
 182    3.9588913565578e-08
 183    -3.7937754916722e-07
 184    1.795442357068e-07
 185    -2.9612921587215e-07
 186    -2.9829842288351e-06
 187    1.9836128946985e-06
 188    -2.2080158438768e-07
 189    1.292595727631e-07
 190    1.1329491283247e-06
 191    2.1667937456211e-06
 192    7.5740731753377e-07
 193    -5.4435289127899e-06
 194    2.990894736667e-07
 195    -3.5895139461306e-08
 196    1.9189461459876e-07
 197    9.0532623328618e-08
 198    -9.084853674993e-08
 199    -7.195149630521e-07
 200    -1.16698113659e-06
 201    3.9644524581951e-08
 202    3.248011208742e-06
 203    -1.6438187246445e-06
 204    -1.7518398316174e-06
 205    -3.0546987396364e-07
 206    -2.3497013511603e-06
 207    1.0944792114033e-06
 208    -1.1130459112689e-05
 209    1.1036947395228e-06
 210    -4.2705687136927e-06
 211    5.0173457842991e-07
 212    2.8307384020487e-06
 213    -2.2335393651359e-07
 214    -2.1222267457344e-06
 215     -4.7444325459e-07
 216    6.5997483110621e-07
 217    2.6558623646547e-07
 218    7.6150119137594e-07
 219    2.7932998563403e-07
 220    1.1135247710391e-06
 221    -6.7446466392786e-07
 222    -8.1026095599362e-06
 223    -8.3081419807948e-06
 224    3.3210908723923e-07
 225    -7.8506958031694e-07
 226    3.8574903179557e-06
 227    1.0834231571938e-05
 228    2.7252219254487e-05
 229    -9.5557921545969e-05
 230    -1.096829581972e-06
 231    -4.1159188898483e-06
 232    -1.9276487475763e-06
 233    1.8279497917241e-06
 234    2.7580297231311e-06
 235    -8.9551038286512e-07
 236    -9.6135732256205e-06
 237    2.1792254177379e-05
 238    -7.7187172350861e-07
 239    3.2514040194808e-06
 240    3.1139684297981e-06
 241    -2.1059888117068e-05
 242    -7.2966311383677e-06
 243    -8.6889178842239e-05
 244    1.4672322024461e-06
 245    6.7233619421315e-06
 246    1.8008373693286e-06
 247    2.6314178288126e-06
 248    1.3184583712916e-06
 249    -4.2355714938382e-06
 250    1.063414611898e-05
 251    -1.550808777886e-06
 252    -2.8671759900495e-05
 253    0.00026282361771402
 254    3.4647520248781e-06
 255    -9.0343214260603e-06
 256    6.7180146215114e-06
 257    0.00011157418086021
 258    9.6339340182296e-05
 259    -0.00024250017401227
 260    2.492250806592e-06
 261    -1.2184066588563e-05
 262    -5.2923596794331e-06
 263    7.8955960467914e-06
 264    5.3428446373595e-06
 265    -3.9086299785153e-06
 266    2.7719964853604e-05
 267    -7.7187177982288e-06
 268    3.7246111095367e-05
 269    -8.5636128167944e-06
 270    -4.8032271509252e-05
 271    0.0030888484014525
 272    8.1192496073446e-06
 273    -0.00019152975127537
 274    3.3588870887211e-05
 275    0.0020788492682483
 276    0.00058193532414557
 277    -0.0032071890417355
 278    0.00019872285811712
 279    -0.00021756847938072
 280    0.0001571518991141