[Molden Format]
made by pyscf v[2.0.1]
[Atoms] (AU)
C   1   6     0.69100024066471     0.64692934207205    -3.48223131169301
H   2   1     2.68052439830868     1.13355088658700    -3.25784032593313
C   3   6    -0.36286361513219     0.85440132524594    -5.97030179418974
H   4   1    -2.35448549047279     0.36322488579172    -6.17995817793143
C   5   6     0.93697958957450     1.61209284601821    -8.05828437677121
H   6   1    -0.04002876534153     1.70579051152009    -9.86870372539436
C   7   6     3.55882871340184     2.30532870411993    -8.01809862923490
H   8   1     4.51217335653741     2.20318273111775    -6.19041637810672
H   9   1     1.55630230933075    -1.92953025305990    12.99630010416247
C   10   6     0.75233899775814    -2.21270439606481    11.10705728102219
H   11   1    -0.43433408177274    -3.90944857546550    11.22216085340412
C   12   6     2.86362581178706    -2.63237380607947     9.17926416456045
H   13   1     4.39038949912609    -1.24955421540245     9.49899813497433
H   14   1     3.74629220191363    -4.48798724300892     9.47414880959024
C   15   6     2.02478325613682    -2.42177285709634     6.44560829588644
C   16   6     3.88048732735477    -3.58795445234514     4.61402886975252
C   17   6    -0.18412382258602    -1.30464291234259     5.76021113872346
C   18   6    -2.10044360464350    -0.26837831858460     7.71610340967100
C   19   6    -3.08956938670431     2.35282328359417     6.88693925039594
C   20   6    -4.37372924086464    -2.09766595989678     7.93610724222001
C   21   6    -0.83850430601230     0.06372213486173    10.33002307638377
H   22   1     0.38411922151109     1.74281358582432    10.27380136542181
H   23   1    -2.30980003007874     0.45460143924521    11.73986301809809
H   24   1     4.58527064644668    -5.38706904487420     5.36778158031719
H   25   1     5.54944938085014    -2.37631462192748     4.35398898413318
H   26   1     3.06633019150423    -3.94118377050688     2.75255466040884
H   27   1    -4.17727778763735     2.26573369139522     5.12914900961283
H   28   1    -1.52662344944051     3.68001877445626     6.59540397144508
H   29   1    -4.32916174397830     3.13643051467482     8.35225460090378
H   30   1    -5.32329548508442    -2.36691813602939     6.11583672749896
H   31   1    -5.77989366602257    -1.33896741843465     9.25748940450990
H   32   1    -3.79310905208926    -3.96389819310853     8.61386170102686
C   33   6    -1.01100794811226    -1.06331657314144     3.11929490449947
C   34   6     0.37686231036534    -0.33275864505552     1.09165013605873
H   35   1    -3.01671213906703    -1.40297922279997     2.77827895090944
C   36   6    -0.64382707979370    -0.11591880174385    -1.42063131251064
H   37   1     2.35569259782137     0.17174499283897     1.33641070251401
H   38   1    -2.63317482980319    -0.60229203511219    -1.66119700387645
C   39   6     4.92949292707610     3.06752929189425   -10.04715344157890
C   40   6     7.59555456141448     3.73329481661799    -9.81073387339210
H   41   1     4.09542353861424     3.21030697797155   -11.92110945203513
O   42   8     8.93835728030826     4.43020973545744   -11.55200196938216
H   43   1     8.37079058468688     3.56000927179912    -7.85902689076443
[GTO]
1 0
 s    6 1.00
             3047.5249  0.0018347001629433
             457.36951    0.01403730124668
             103.94869   0.068842606114048
             29.210155    0.23218442062076
              9.286663    0.46794134155879
              3.163927    0.36231203217765
 s    3 1.00
             7.8682724   -0.11933240861517
             1.8812885   -0.16085421161283
             0.5442493     1.1434564825515
 s    1 1.00
             0.1687144                   1
 p    3 1.00
             7.8682724   0.068999095584993
             1.8812885    0.31642397975315
             0.5442493    0.74430825237435
 p    1 1.00
             0.1687144                   1
 d    1 1.00
                   0.8                   1

2 0
 s    3 1.00
             18.731137    0.03349459952309
             2.8253937    0.23472694665786
             0.6401217    0.81375731841339
 s    1 1.00
             0.1612778                   1

3 0
 s    6 1.00
             3047.5249  0.0018347001629433
             457.36951    0.01403730124668
             103.94869   0.068842606114048
             29.210155    0.23218442062076
              9.286663    0.46794134155879
              3.163927    0.36231203217765
 s    3 1.00
             7.8682724   -0.11933240861517
             1.8812885   -0.16085421161283
             0.5442493     1.1434564825515
 s    1 1.00
             0.1687144                   1
 p    3 1.00
             7.8682724   0.068999095584993
             1.8812885    0.31642397975315
             0.5442493    0.74430825237435
 p    1 1.00
             0.1687144                   1
 d    1 1.00
                   0.8                   1

4 0
 s    3 1.00
             18.731137    0.03349459952309
             2.8253937    0.23472694665786
             0.6401217    0.81375731841339
 s    1 1.00
             0.1612778                   1

5 0
 s    6 1.00
             3047.5249  0.0018347001629433
             457.36951    0.01403730124668
             103.94869   0.068842606114048
             29.210155    0.23218442062076
              9.286663    0.46794134155879
              3.163927    0.36231203217765
 s    3 1.00
             7.8682724   -0.11933240861517
             1.8812885   -0.16085421161283
             0.5442493     1.1434564825515
 s    1 1.00
             0.1687144                   1
 p    3 1.00
             7.8682724   0.068999095584993
             1.8812885    0.31642397975315
             0.5442493    0.74430825237435
 p    1 1.00
             0.1687144                   1
 d    1 1.00
                   0.8                   1

6 0
 s    3 1.00
             18.731137    0.03349459952309
             2.8253937    0.23472694665786
             0.6401217    0.81375731841339
 s    1 1.00
             0.1612778                   1

7 0
 s    6 1.00
             3047.5249  0.0018347001629433
             457.36951    0.01403730124668
             103.94869   0.068842606114048
             29.210155    0.23218442062076
              9.286663    0.46794134155879
              3.163927    0.36231203217765
 s    3 1.00
             7.8682724   -0.11933240861517
             1.8812885   -0.16085421161283
             0.5442493     1.1434564825515
 s    1 1.00
             0.1687144                   1
 p    3 1.00
             7.8682724   0.068999095584993
             1.8812885    0.31642397975315
             0.5442493    0.74430825237435
 p    1 1.00
             0.1687144                   1
 d    1 1.00
                   0.8                   1

8 0
 s    3 1.00
             18.731137    0.03349459952309
             2.8253937    0.23472694665786
             0.6401217    0.81375731841339
 s    1 1.00
             0.1612778                   1

9 0
 s    3 1.00
             18.731137    0.03349459952309
             2.8253937    0.23472694665786
             0.6401217    0.81375731841339
 s    1 1.00
             0.1612778                   1

10 0
 s    6 1.00
             3047.5249  0.0018347001629433
             457.36951    0.01403730124668
             103.94869   0.068842606114048
             29.210155    0.23218442062076
              9.286663    0.46794134155879
              3.163927    0.36231203217765
 s    3 1.00
             7.8682724   -0.11933240861517
             1.8812885   -0.16085421161283
             0.5442493     1.1434564825515
 s    1 1.00
             0.1687144                   1
 p    3 1.00
             7.8682724   0.068999095584993
             1.8812885    0.31642397975315
             0.5442493    0.74430825237435
 p    1 1.00
             0.1687144                   1
 d    1 1.00
                   0.8                   1

11 0
 s    3 1.00
             18.731137    0.03349459952309
             2.8253937    0.23472694665786
             0.6401217    0.81375731841339
 s    1 1.00
             0.1612778                   1

12 0
 s    6 1.00
             3047.5249  0.0018347001629433
             457.36951    0.01403730124668
             103.94869   0.068842606114048
             29.210155    0.23218442062076
              9.286663    0.46794134155879
              3.163927    0.36231203217765
 s    3 1.00
             7.8682724   -0.11933240861517
             1.8812885   -0.16085421161283
             0.5442493     1.1434564825515
 s    1 1.00
             0.1687144                   1
 p    3 1.00
             7.8682724   0.068999095584993
             1.8812885    0.31642397975315
             0.5442493    0.74430825237435
 p    1 1.00
             0.1687144                   1
 d    1 1.00
                   0.8                   1

13 0
 s    3 1.00
             18.731137    0.03349459952309
             2.8253937    0.23472694665786
             0.6401217    0.81375731841339
 s    1 1.00
             0.1612778                   1

14 0
 s    3 1.00
             18.731137    0.03349459952309
             2.8253937    0.23472694665786
             0.6401217    0.81375731841339
 s    1 1.00
             0.1612778                   1

15 0
 s    6 1.00
             3047.5249  0.0018347001629433
             457.36951    0.01403730124668
             103.94869   0.068842606114048
             29.210155    0.23218442062076
              9.286663    0.46794134155879
              3.163927    0.36231203217765
 s    3 1.00
             7.8682724   -0.11933240861517
             1.8812885   -0.16085421161283
             0.5442493     1.1434564825515
 s    1 1.00
             0.1687144                   1
 p    3 1.00
             7.8682724   0.068999095584993
             1.8812885    0.31642397975315
             0.5442493    0.74430825237435
 p    1 1.00
             0.1687144                   1
 d    1 1.00
                   0.8                   1

16 0
 s    6 1.00
             3047.5249  0.0018347001629433
             457.36951    0.01403730124668
             103.94869   0.068842606114048
             29.210155    0.23218442062076
              9.286663    0.46794134155879
              3.163927    0.36231203217765
 s    3 1.00
             7.8682724   -0.11933240861517
             1.8812885   -0.16085421161283
             0.5442493     1.1434564825515
 s    1 1.00
             0.1687144                   1
 p    3 1.00
             7.8682724   0.068999095584993
             1.8812885    0.31642397975315
             0.5442493    0.74430825237435
 p    1 1.00
             0.1687144                   1
 d    1 1.00
                   0.8                   1

17 0
 s    6 1.00
             3047.5249  0.0018347001629433
             457.36951    0.01403730124668
             103.94869   0.068842606114048
             29.210155    0.23218442062076
              9.286663    0.46794134155879
              3.163927    0.36231203217765
 s    3 1.00
             7.8682724   -0.11933240861517
             1.8812885   -0.16085421161283
             0.5442493     1.1434564825515
 s    1 1.00
             0.1687144                   1
 p    3 1.00
             7.8682724   0.068999095584993
             1.8812885    0.31642397975315
             0.5442493    0.74430825237435
 p    1 1.00
             0.1687144                   1
 d    1 1.00
                   0.8                   1

18 0
 s    6 1.00
             3047.5249  0.0018347001629433
             457.36951    0.01403730124668
             103.94869   0.068842606114048
             29.210155    0.23218442062076
              9.286663    0.46794134155879
              3.163927    0.36231203217765
 s    3 1.00
             7.8682724   -0.11933240861517
             1.8812885   -0.16085421161283
             0.5442493     1.1434564825515
 s    1 1.00
             0.1687144                   1
 p    3 1.00
             7.8682724   0.068999095584993
             1.8812885    0.31642397975315
             0.5442493    0.74430825237435
 p    1 1.00
             0.1687144                   1
 d    1 1.00
                   0.8                   1

19 0
 s    6 1.00
             3047.5249  0.0018347001629433
             457.36951    0.01403730124668
             103.94869   0.068842606114048
             29.210155    0.23218442062076
              9.286663    0.46794134155879
              3.163927    0.36231203217765
 s    3 1.00
             7.8682724   -0.11933240861517
             1.8812885   -0.16085421161283
             0.5442493     1.1434564825515
 s    1 1.00
             0.1687144                   1
 p    3 1.00
             7.8682724   0.068999095584993
             1.8812885    0.31642397975315
             0.5442493    0.74430825237435
 p    1 1.00
             0.1687144                   1
 d    1 1.00
                   0.8                   1

20 0
 s    6 1.00
             3047.5249  0.0018347001629433
             457.36951    0.01403730124668
             103.94869   0.068842606114048
             29.210155    0.23218442062076
              9.286663    0.46794134155879
              3.163927    0.36231203217765
 s    3 1.00
             7.8682724   -0.11933240861517
             1.8812885   -0.16085421161283
             0.5442493     1.1434564825515
 s    1 1.00
             0.1687144                   1
 p    3 1.00
             7.8682724   0.068999095584993
             1.8812885    0.31642397975315
             0.5442493    0.74430825237435
 p    1 1.00
             0.1687144                   1
 d    1 1.00
                   0.8                   1

21 0
 s    6 1.00
             3047.5249  0.0018347001629433
             457.36951    0.01403730124668
             103.94869   0.068842606114048
             29.210155    0.23218442062076
              9.286663    0.46794134155879
              3.163927    0.36231203217765
 s    3 1.00
             7.8682724   -0.11933240861517
             1.8812885   -0.16085421161283
             0.5442493     1.1434564825515
 s    1 1.00
             0.1687144                   1
 p    3 1.00
             7.8682724   0.068999095584993
             1.8812885    0.31642397975315
             0.5442493    0.74430825237435
 p    1 1.00
             0.1687144                   1
 d    1 1.00
                   0.8                   1

22 0
 s    3 1.00
             18.731137    0.03349459952309
             2.8253937    0.23472694665786
             0.6401217    0.81375731841339
 s    1 1.00
             0.1612778                   1

23 0
 s    3 1.00
             18.731137    0.03349459952309
             2.8253937    0.23472694665786
             0.6401217    0.81375731841339
 s    1 1.00
             0.1612778                   1

24 0
 s    3 1.00
             18.731137    0.03349459952309
             2.8253937    0.23472694665786
             0.6401217    0.81375731841339
 s    1 1.00
             0.1612778                   1

25 0
 s    3 1.00
             18.731137    0.03349459952309
             2.8253937    0.23472694665786
             0.6401217    0.81375731841339
 s    1 1.00
             0.1612778                   1

26 0
 s    3 1.00
             18.731137    0.03349459952309
             2.8253937    0.23472694665786
             0.6401217    0.81375731841339
 s    1 1.00
             0.1612778                   1

27 0
 s    3 1.00
             18.731137    0.03349459952309
             2.8253937    0.23472694665786
             0.6401217    0.81375731841339
 s    1 1.00
             0.1612778                   1

28 0
 s    3 1.00
             18.731137    0.03349459952309
             2.8253937    0.23472694665786
             0.6401217    0.81375731841339
 s    1 1.00
             0.1612778                   1

29 0
 s    3 1.00
             18.731137    0.03349459952309
             2.8253937    0.23472694665786
             0.6401217    0.81375731841339
 s    1 1.00
             0.1612778                   1

30 0
 s    3 1.00
             18.731137    0.03349459952309
             2.8253937    0.23472694665786
             0.6401217    0.81375731841339
 s    1 1.00
             0.1612778                   1

31 0
 s    3 1.00
             18.731137    0.03349459952309
             2.8253937    0.23472694665786
             0.6401217    0.81375731841339
 s    1 1.00
             0.1612778                   1

32 0
 s    3 1.00
             18.731137    0.03349459952309
             2.8253937    0.23472694665786
             0.6401217    0.81375731841339
 s    1 1.00
             0.1612778                   1

33 0
 s    6 1.00
             3047.5249  0.0018347001629433
             457.36951    0.01403730124668
             103.94869   0.068842606114048
             29.210155    0.23218442062076
              9.286663    0.46794134155879
              3.163927    0.36231203217765
 s    3 1.00
             7.8682724   -0.11933240861517
             1.8812885   -0.16085421161283
             0.5442493     1.1434564825515
 s    1 1.00
             0.1687144                   1
 p    3 1.00
             7.8682724   0.068999095584993
             1.8812885    0.31642397975315
             0.5442493    0.74430825237435
 p    1 1.00
             0.1687144                   1
 d    1 1.00
                   0.8                   1

34 0
 s    6 1.00
             3047.5249  0.0018347001629433
             457.36951    0.01403730124668
             103.94869   0.068842606114048
             29.210155    0.23218442062076
              9.286663    0.46794134155879
              3.163927    0.36231203217765
 s    3 1.00
             7.8682724   -0.11933240861517
             1.8812885   -0.16085421161283
             0.5442493     1.1434564825515
 s    1 1.00
             0.1687144                   1
 p    3 1.00
             7.8682724   0.068999095584993
             1.8812885    0.31642397975315
             0.5442493    0.74430825237435
 p    1 1.00
             0.1687144                   1
 d    1 1.00
                   0.8                   1

35 0
 s    3 1.00
             18.731137    0.03349459952309
             2.8253937    0.23472694665786
             0.6401217    0.81375731841339
 s    1 1.00
             0.1612778                   1

36 0
 s    6 1.00
             3047.5249  0.0018347001629433
             457.36951    0.01403730124668
             103.94869   0.068842606114048
             29.210155    0.23218442062076
              9.286663    0.46794134155879
              3.163927    0.36231203217765
 s    3 1.00
             7.8682724   -0.11933240861517
             1.8812885   -0.16085421161283
             0.5442493     1.1434564825515
 s    1 1.00
             0.1687144                   1
 p    3 1.00
             7.8682724   0.068999095584993
             1.8812885    0.31642397975315
             0.5442493    0.74430825237435
 p    1 1.00
             0.1687144                   1
 d    1 1.00
                   0.8                   1

37 0
 s    3 1.00
             18.731137    0.03349459952309
             2.8253937    0.23472694665786
             0.6401217    0.81375731841339
 s    1 1.00
             0.1612778                   1

38 0
 s    3 1.00
             18.731137    0.03349459952309
             2.8253937    0.23472694665786
             0.6401217    0.81375731841339
 s    1 1.00
             0.1612778                   1

39 0
 s    6 1.00
             3047.5249  0.0018347001629433
             457.36951    0.01403730124668
             103.94869   0.068842606114048
             29.210155    0.23218442062076
              9.286663    0.46794134155879
              3.163927    0.36231203217765
 s    3 1.00
             7.8682724   -0.11933240861517
             1.8812885   -0.16085421161283
             0.5442493     1.1434564825515
 s    1 1.00
             0.1687144                   1
 p    3 1.00
             7.8682724   0.068999095584993
             1.8812885    0.31642397975315
             0.5442493    0.74430825237435
 p    1 1.00
             0.1687144                   1
 d    1 1.00
                   0.8                   1

40 0
 s    6 1.00
             3047.5249  0.0018347001629433
             457.36951    0.01403730124668
             103.94869   0.068842606114048
             29.210155    0.23218442062076
              9.286663    0.46794134155879
              3.163927    0.36231203217765
 s    3 1.00
             7.8682724   -0.11933240861517
             1.8812885   -0.16085421161283
             0.5442493     1.1434564825515
 s    1 1.00
             0.1687144                   1
 p    3 1.00
             7.8682724   0.068999095584993
             1.8812885    0.31642397975315
             0.5442493    0.74430825237435
 p    1 1.00
             0.1687144                   1
 d    1 1.00
                   0.8                   1

41 0
 s    3 1.00
             18.731137    0.03349459952309
             2.8253937    0.23472694665786
             0.6401217    0.81375731841339
 s    1 1.00
             0.1612778                   1

42 0
 s    6 1.00
             5484.6717   0.001831099805527
             825.23495   0.013950098518422
             188.04696    0.06844509273075
               52.9645    0.23271427528445
              16.89757    0.47019295006289
             5.7996353    0.35852086192309
 s    3 1.00
             15.539616   -0.11077750382508
             3.5999336   -0.14802630511126
             1.0137618     1.1307670390447
 s    1 1.00
             0.2700058                   1
 p    3 1.00
             15.539616   0.070874299543311
             3.5999336    0.33975279781076
             1.0137618    0.72715859531445
 p    1 1.00
             0.2700058                   1
 d    1 1.00
                   0.8                   1

43 0
 s    3 1.00
             18.731137    0.03349459952309
             2.8253937    0.23472694665786
             0.6401217    0.81375731841339
 s    1 1.00
             0.1612778                   1

[5d]
[7f]
[9g]

[MO]
 Sym= A
 Ene=               0
 Spin= Alpha
 Occup=    1.00000
   1    1.1652638207506e-05
   2    0.00011444111630472
   3    -0.0015003180590308
   4    3.6349449547794e-05
   5     9.66300469975e-06
   6    4.8626949329953e-07
   7    0.00012199556466054
   8    -0.00030818071008467
   9    0.0017341629440307
  10    -4.7772957366691e-05
  11    -5.377781797202e-05
  12    2.7982202280262e-06
  13    -5.7957088856717e-06
  14    7.8104289014352e-06
  15    6.2740777969114e-05
  16    -8.5028436212504e-05
  17    -3.084002218558e-05
  18    -0.00022876510541951
  19    0.0032546360946964
  20    1.6800862354809e-06
  21    1.4852126401186e-05
  22    -7.3718823389756e-05
  23    0.0020706930361654
  24    0.00040965081173617
  25    0.00073319084885676
  26    4.5724278718549e-05
  27    -2.3744818636772e-05
  28    -3.037580302431e-05
  29    3.0381206054989e-05
  30    2.4214792905892e-05
  31    9.415925071734e-05
  32    0.00050710783700304
  33    5.896777463462e-05
  34    0.00047918989662725
  35    -0.0060514257687116
  36    -5.1574475723942e-05
  37    -2.7665140675373e-05
  38    7.120589539479e-05
  39    -0.0027709139402949
  40    -0.00035565875042064
  41    -0.0019648079990905
  42    1.4055453254815e-05
  43    2.7343284201768e-05
  44    3.7356412412179e-05
  45    -0.00014521498611388
  46    -9.1586697418775e-05
  47    -7.2534107190632e-05
  48    -0.00064544102268399
  49    2.7080777504656e-05
  50    1.2370206044869e-05
  51    0.0042295144730161
  52    0.00030371324863565
  53    7.4004973453314e-05
  54    3.7604953591489e-05
  55    -0.0047320112230522
  56    -0.0012525866091597
  57    -6.5458810795232e-05
  58    -0.00023823317695559
  59    4.7833059851647e-05
  60    7.3413566203004e-05
  61    0.00010382359738994
  62    4.5806042990344e-05
  63    0.00020325114747482
  64    0.00031375376048177
  65    3.6365815436105e-07
  66    -1.8413848348842e-06
  67    1.7896420117528e-07
  68    1.2553056855085e-06
  69    9.3151224366596e-07
  70    -8.6474684012473e-07
  71    1.2456750708475e-06
  72    -1.276529081767e-07
  73    -3.2692436002491e-06
  74    -3.0096394062732e-06
  75    1.8182095262167e-06
  76    -3.9150878868171e-07
  77    -2.1534266151671e-07
  78    -7.2300679714669e-08
  79    -1.7663094508307e-07
  80    -1.9030052946027e-07
  81    -3.771697784556e-07
  82    -2.0097419607244e-06
  83    -2.7619719835598e-07
  84    -2.8637120257299e-06
  85    2.4998396850069e-06
  86    1.0421704360047e-07
  87    -8.1533333022106e-07
  88    -1.089974434537e-07
  89    -3.485564171781e-06
  90    1.3290323793737e-05
  91    3.0944974115769e-06
  92    1.3345479045167e-07
  93    3.3486361045864e-07
  94    -9.8052570150358e-07
  95    4.8790607864089e-07
  96    -1.3910585400083e-08
  97    -1.6021944077106e-06
  98    -2.0391741896281e-06
  99    1.0662808476204e-06
 100    3.0868825901218e-06
 101    7.1745359855538e-07
 102    3.3254914772824e-06
 103    -8.9701664013165e-05
 104    1.6635143120884e-06
 105    -1.5512227816571e-07
 106    1.7652225103855e-06
 107    2.4560269108491e-05
 108    -3.4704428406583e-05
 109    2.836117681826e-05
 110    -6.0977036616591e-07
 111    -1.6544766947836e-06
 112    7.2020402904052e-07
 113    4.6694924165764e-07
 114    1.4802180781674e-06
 115    -2.9874837367551e-07
 116    -2.5136832861656e-06
 117    1.0441703754856e-05
 118    1.206737012084e-08
 119    -1.6281340755981e-06
 120    1.5134851836966e-06
 121    -6.8652741226332e-06
 122    1.7769076074583e-05
 123    -7.5048666791293e-06
 124    -7.574698451129e-07
 125    3.7294468813122e-07
 126    1.2249576269514e-06
 127    3.4446701422238e-07
 128    2.8152542084359e-08
 129    -4.1032952373973e-07
 130    -5.2341721124595e-06
 131    -1.863045188632e-06
 132    -4.8485037936848e-06
 133    1.0258018423189e-08
 134    4.5499071029261e-06
 135    0.0001180883289066
 136    -9.6653278388767e-06
 137    -2.9035317937285e-05
 138    1.6895469748586e-06
 139    -6.5911663566713e-07
 140    -3.3436731209285e-06
 141    -2.4898533268615e-08
 142    -2.9023486075205e-06
 143    -4.2792045633294e-07
 144    -7.3743188796007e-08
 145    6.1455139941134e-05
 146    -2.3621336027932e-07
 147    2.9845143253653e-07
 148    -6.7250154464877e-06
 149    3.0917478693072e-05
 150    -4.7578177765203e-05
 151    2.9620106778404e-05
 152    4.2835765098218e-07
 153     8.72588160089e-08
 154    2.4208104514782e-06
 155    6.1081955092457e-07
 156    5.6020708699034e-07
 157    -9.4634232975287e-07
 158    -8.042812911492e-06
 159    4.4501974785893e-05
 160    -9.5112765110343e-07
 161    -8.3476316209157e-07
 162    1.7093823171849e-06
 163    1.2194913501206e-05
 164    -1.8145529562985e-05
 165    -5.4926853337043e-06
 166    -1.1540878456551e-06
 167    3.1729120159701e-07
 168    -3.9815562696631e-08
 169    -1.0292640492302e-06
 170    -5.4741058880972e-07
 171    5.3600591744667e-08
 172    9.712838946133e-07
 173    -1.8118954465519e-06
 174    1.469272575293e-06
 175    2.6530519450256e-07
 176    -2.5735617995638e-06
 177    -2.1148256288574e-05
 178    -1.2060891828476e-06
 179    -5.1566721747798e-06
 180    2.693477686098e-07
 181    -1.9319101446592e-06
 182    9.5245996611343e-08
 183    -1.239568262192e-06
 184    -1.5058654830445e-06
 185    9.0508877695192e-07
 186    6.1833314371629e-06
 187    -4.3120108910734e-05
 188    1.6206006784348e-06
 189    4.778506195277e-07
 190    1.4950536818804e-06
 191    4.7193505014151e-06
 192    1.1233184877528e-05
 193    1.9342283963726e-05
 194    -8.0133217921781e-07
 195    -1.1987285437306e-06
 196    -1.6628996991864e-06
 197    6.3976826533494e-07
 198    -6.5495600905509e-07
 199    2.109348480829e-06
 200    -1.7438478257577e-06
 201    8.5343428922348e-07
 202    5.4390019397291e-07
 203    1.468543537006e-06
 204    7.5537230173509e-06
 205    -2.8276695814628e-06
 206    -3.7297550565424e-07
 207    -2.8637349053486e-06
 208    -1.4317496281152e-06
 209    -3.6140965761168e-06
 210    -2.581110294142e-06
 211    -2.378073364043e-06
 212    -4.8467807162511e-06
 213    -7.2015829832931e-07
 214    5.9449284872097e-06
 215    4.6751460489577e-06
 216    -2.5836808605546e-05
 217    -1.4242425382417e-06
 218    -3.9139978404722e-06
 219    -3.5099972986913e-07
 220    5.0908292721361e-06
 221    4.9042320382333e-06
 222    4.0550023271295e-05
 223    -0.00049058256309947
 224    -4.4537096136562e-06
 225    -2.1117283178919e-06
 226    4.6103336535331e-06
 227    -0.00012315910392587
 228    -7.5739849072546e-05
 229    0.0002876488242188
 230    -1.0653103681715e-05
 231    1.0614123289751e-05
 232    9.4930934618373e-06
 233    -4.3197585070309e-06
 234    -4.4649603289377e-06
 235    -1.7271626078198e-05
 236    -6.7779924044324e-05
 237    0.00082073711287624
 238    1.5413887892138e-05
 239    2.8197928955745e-06
 240    6.8650153876028e-06
 241    -0.00032724634499005
 242    -9.7342164406745e-05
 243    6.3673596137622e-05
 244    1.6094821246086e-05
 245    -1.0980611729741e-05
 246    -8.0016524723294e-06
 247    -1.2476226522596e-06
 248    1.585814922185e-06
 249    8.2668628719259e-06
 250    2.5972009841672e-05
 251    -1.7470701368422e-05
 252    2.1922706874226e-05
 253    -0.00088330984164706
 254    -7.0098147050545e-06
 255    1.059457663111e-06
 256    -1.3463459726554e-05
 257    -0.00054046217760438
 258    -9.2766256547648e-05
 259    -0.00027175844013539
 260    -1.0747256818276e-05
 261    2.7908818419725e-06
 262    6.3960826892551e-06
 263    -7.9658519826313e-06
 264    -5.6768273190774e-06
 265    1.3756298892507e-05
 266    1.8368316719859e-05
 267    -1.719108717124e-05
 268    -0.00014896294891685
 269    0.00026810781336842
 270    7.7928015117223e-05
 271    0.0036779967070561
 272    0.00050552063857519
 273    0.00011003663768476
 274    0.00012737555261216
 275    0.0028237158034197
 276    0.0012329374608477
 277    -0.0024591669664599
 278    -0.00018810765812585
 279    -0.00029672726493181
 280    -5.1340159053134e-05