[Molden Format]
made by pyscf v[2.0.1]
[Atoms] (AU)
C   1   6     0.69100024069495     0.64692934212497    -3.48223131168734
H   2   1     2.68052439835215     1.13355088667581    -3.25784032595959
C   3   6    -0.36286361514353     0.85440132525350    -5.97030179416329
H   4   1    -2.35448549056350     0.36322488588432    -6.17995817799568
C   5   6     0.93697958950647     1.61209284601065    -8.05828437675987
H   6   1     2.92721069186250     2.10853558287052    -7.87534295441726
C   7   6    -0.17413039189613     1.80008207487984   -10.52534301739428
H   8   1    -2.16943049770440     1.29533627648343   -10.67939296478009
H   9   1     1.55630230933264    -1.92953025311848    12.99630010417381
C   10   6     0.75233899783373    -2.21270439606859    11.10705728099195
H   11   1    -0.43433408176896    -3.90944857543337    11.22216085348160
C   12   6     2.86362581169447    -2.63237380608325     9.17926416459635
H   13   1     4.39038949906562    -1.24955421532309     9.49899813488174
H   14   1     3.74629220184371    -4.48798724298246     9.47414880962803
C   15   6     2.02478325622942    -2.42177285713224     6.44560829586187
C   16   6     3.88048732732831    -3.58795445236593     4.61402886975252
C   17   6    -0.18412382264649    -1.30464291231236     5.76021113881606
C   18   6    -2.10044360460382    -0.26837831862807     7.71610340970501
C   19   6    -3.08956938678556     2.35282328352614     6.88693925042618
C   20   6    -4.37372924094212    -2.09766595985142     7.93610724215954
C   21   6    -0.83850430593104     0.06372213486551    10.33002307643668
H   22   1     0.38411922142983     1.74281358590180    10.27380136539346
H   23   1    -2.30980003011276     0.45460143923765    11.73986301804329
H   24   1     4.58527064636731    -5.38706904479673     5.36778158023404
H   25   1     5.54944938091628    -2.37631462201630     4.35398898404058
H   26   1     3.06633019144754    -3.94118377051822     2.75255466032570
H   27   1    -4.17727778763546     2.26573369145191     5.12914900957504
H   28   1    -1.52662344935358     3.68001877441469     6.59540397151878
H   29   1    -4.32916174393862     3.13643051473529     8.35225460094913
H   30   1    -5.32329548507875    -2.36691813603695     6.11583672741581
H   31   1    -5.77989366598289    -1.33896741838552     9.25748940451935
H   32   1    -3.79310905209871    -3.96389819308585     8.61386170106276
C   33   6    -1.01100794815762    -1.06331657313199     3.11929490450892
C   34   6     0.37686231029920    -0.33275864510088     1.09165013596992
H   35   1    -3.01671213911428    -1.40297922289257     2.77827895090755
C   36   6    -0.64382707979748    -0.11591880174763    -1.42063131255788
H   37   1     2.35569259790262     0.17174499287298     1.33641070253857
H   38   1    -2.63317482972383    -0.60229203504227    -1.66119700396716
C   39   6     1.04406642127022     2.54697835791677   -12.65486785204246
C   40   6    -0.25769856063703     2.67711278008941   -15.08293200861523
H   41   1     3.03094671002655     3.07573165426063   -12.63261900496242
O   42   8     0.71886931482866     3.33224024015006   -17.06735820381613
H   43   1    -2.28855418566595     2.11893682007881   -15.01778643592878
[GTO]
1 0
 s    6 1.00
             3047.5249  0.0018347001629433
             457.36951    0.01403730124668
             103.94869   0.068842606114048
             29.210155    0.23218442062076
              9.286663    0.46794134155879
              3.163927    0.36231203217765
 s    3 1.00
             7.8682724   -0.11933240861517
             1.8812885   -0.16085421161283
             0.5442493     1.1434564825515
 s    1 1.00
             0.1687144                   1
 p    3 1.00
             7.8682724   0.068999095584993
             1.8812885    0.31642397975315
             0.5442493    0.74430825237435
 p    1 1.00
             0.1687144                   1
 d    1 1.00
                   0.8                   1

2 0
 s    3 1.00
             18.731137    0.03349459952309
             2.8253937    0.23472694665786
             0.6401217    0.81375731841339
 s    1 1.00
             0.1612778                   1

3 0
 s    6 1.00
             3047.5249  0.0018347001629433
             457.36951    0.01403730124668
             103.94869   0.068842606114048
             29.210155    0.23218442062076
              9.286663    0.46794134155879
              3.163927    0.36231203217765
 s    3 1.00
             7.8682724   -0.11933240861517
             1.8812885   -0.16085421161283
             0.5442493     1.1434564825515
 s    1 1.00
             0.1687144                   1
 p    3 1.00
             7.8682724   0.068999095584993
             1.8812885    0.31642397975315
             0.5442493    0.74430825237435
 p    1 1.00
             0.1687144                   1
 d    1 1.00
                   0.8                   1

4 0
 s    3 1.00
             18.731137    0.03349459952309
             2.8253937    0.23472694665786
             0.6401217    0.81375731841339
 s    1 1.00
             0.1612778                   1

5 0
 s    6 1.00
             3047.5249  0.0018347001629433
             457.36951    0.01403730124668
             103.94869   0.068842606114048
             29.210155    0.23218442062076
              9.286663    0.46794134155879
              3.163927    0.36231203217765
 s    3 1.00
             7.8682724   -0.11933240861517
             1.8812885   -0.16085421161283
             0.5442493     1.1434564825515
 s    1 1.00
             0.1687144                   1
 p    3 1.00
             7.8682724   0.068999095584993
             1.8812885    0.31642397975315
             0.5442493    0.74430825237435
 p    1 1.00
             0.1687144                   1
 d    1 1.00
                   0.8                   1

6 0
 s    3 1.00
             18.731137    0.03349459952309
             2.8253937    0.23472694665786
             0.6401217    0.81375731841339
 s    1 1.00
             0.1612778                   1

7 0
 s    6 1.00
             3047.5249  0.0018347001629433
             457.36951    0.01403730124668
             103.94869   0.068842606114048
             29.210155    0.23218442062076
              9.286663    0.46794134155879
              3.163927    0.36231203217765
 s    3 1.00
             7.8682724   -0.11933240861517
             1.8812885   -0.16085421161283
             0.5442493     1.1434564825515
 s    1 1.00
             0.1687144                   1
 p    3 1.00
             7.8682724   0.068999095584993
             1.8812885    0.31642397975315
             0.5442493    0.74430825237435
 p    1 1.00
             0.1687144                   1
 d    1 1.00
                   0.8                   1

8 0
 s    3 1.00
             18.731137    0.03349459952309
             2.8253937    0.23472694665786
             0.6401217    0.81375731841339
 s    1 1.00
             0.1612778                   1

9 0
 s    3 1.00
             18.731137    0.03349459952309
             2.8253937    0.23472694665786
             0.6401217    0.81375731841339
 s    1 1.00
             0.1612778                   1

10 0
 s    6 1.00
             3047.5249  0.0018347001629433
             457.36951    0.01403730124668
             103.94869   0.068842606114048
             29.210155    0.23218442062076
              9.286663    0.46794134155879
              3.163927    0.36231203217765
 s    3 1.00
             7.8682724   -0.11933240861517
             1.8812885   -0.16085421161283
             0.5442493     1.1434564825515
 s    1 1.00
             0.1687144                   1
 p    3 1.00
             7.8682724   0.068999095584993
             1.8812885    0.31642397975315
             0.5442493    0.74430825237435
 p    1 1.00
             0.1687144                   1
 d    1 1.00
                   0.8                   1

11 0
 s    3 1.00
             18.731137    0.03349459952309
             2.8253937    0.23472694665786
             0.6401217    0.81375731841339
 s    1 1.00
             0.1612778                   1

12 0
 s    6 1.00
             3047.5249  0.0018347001629433
             457.36951    0.01403730124668
             103.94869   0.068842606114048
             29.210155    0.23218442062076
              9.286663    0.46794134155879
              3.163927    0.36231203217765
 s    3 1.00
             7.8682724   -0.11933240861517
             1.8812885   -0.16085421161283
             0.5442493     1.1434564825515
 s    1 1.00
             0.1687144                   1
 p    3 1.00
             7.8682724   0.068999095584993
             1.8812885    0.31642397975315
             0.5442493    0.74430825237435
 p    1 1.00
             0.1687144                   1
 d    1 1.00
                   0.8                   1

13 0
 s    3 1.00
             18.731137    0.03349459952309
             2.8253937    0.23472694665786
             0.6401217    0.81375731841339
 s    1 1.00
             0.1612778                   1

14 0
 s    3 1.00
             18.731137    0.03349459952309
             2.8253937    0.23472694665786
             0.6401217    0.81375731841339
 s    1 1.00
             0.1612778                   1

15 0
 s    6 1.00
             3047.5249  0.0018347001629433
             457.36951    0.01403730124668
             103.94869   0.068842606114048
             29.210155    0.23218442062076
              9.286663    0.46794134155879
              3.163927    0.36231203217765
 s    3 1.00
             7.8682724   -0.11933240861517
             1.8812885   -0.16085421161283
             0.5442493     1.1434564825515
 s    1 1.00
             0.1687144                   1
 p    3 1.00
             7.8682724   0.068999095584993
             1.8812885    0.31642397975315
             0.5442493    0.74430825237435
 p    1 1.00
             0.1687144                   1
 d    1 1.00
                   0.8                   1

16 0
 s    6 1.00
             3047.5249  0.0018347001629433
             457.36951    0.01403730124668
             103.94869   0.068842606114048
             29.210155    0.23218442062076
              9.286663    0.46794134155879
              3.163927    0.36231203217765
 s    3 1.00
             7.8682724   -0.11933240861517
             1.8812885   -0.16085421161283
             0.5442493     1.1434564825515
 s    1 1.00
             0.1687144                   1
 p    3 1.00
             7.8682724   0.068999095584993
             1.8812885    0.31642397975315
             0.5442493    0.74430825237435
 p    1 1.00
             0.1687144                   1
 d    1 1.00
                   0.8                   1

17 0
 s    6 1.00
             3047.5249  0.0018347001629433
             457.36951    0.01403730124668
             103.94869   0.068842606114048
             29.210155    0.23218442062076
              9.286663    0.46794134155879
              3.163927    0.36231203217765
 s    3 1.00
             7.8682724   -0.11933240861517
             1.8812885   -0.16085421161283
             0.5442493     1.1434564825515
 s    1 1.00
             0.1687144                   1
 p    3 1.00
             7.8682724   0.068999095584993
             1.8812885    0.31642397975315
             0.5442493    0.74430825237435
 p    1 1.00
             0.1687144                   1
 d    1 1.00
                   0.8                   1

18 0
 s    6 1.00
             3047.5249  0.0018347001629433
             457.36951    0.01403730124668
             103.94869   0.068842606114048
             29.210155    0.23218442062076
              9.286663    0.46794134155879
              3.163927    0.36231203217765
 s    3 1.00
             7.8682724   -0.11933240861517
             1.8812885   -0.16085421161283
             0.5442493     1.1434564825515
 s    1 1.00
             0.1687144                   1
 p    3 1.00
             7.8682724   0.068999095584993
             1.8812885    0.31642397975315
             0.5442493    0.74430825237435
 p    1 1.00
             0.1687144                   1
 d    1 1.00
                   0.8                   1

19 0
 s    6 1.00
             3047.5249  0.0018347001629433
             457.36951    0.01403730124668
             103.94869   0.068842606114048
             29.210155    0.23218442062076
              9.286663    0.46794134155879
              3.163927    0.36231203217765
 s    3 1.00
             7.8682724   -0.11933240861517
             1.8812885   -0.16085421161283
             0.5442493     1.1434564825515
 s    1 1.00
             0.1687144                   1
 p    3 1.00
             7.8682724   0.068999095584993
             1.8812885    0.31642397975315
             0.5442493    0.74430825237435
 p    1 1.00
             0.1687144                   1
 d    1 1.00
                   0.8                   1

20 0
 s    6 1.00
             3047.5249  0.0018347001629433
             457.36951    0.01403730124668
             103.94869   0.068842606114048
             29.210155    0.23218442062076
              9.286663    0.46794134155879
              3.163927    0.36231203217765
 s    3 1.00
             7.8682724   -0.11933240861517
             1.8812885   -0.16085421161283
             0.5442493     1.1434564825515
 s    1 1.00
             0.1687144                   1
 p    3 1.00
             7.8682724   0.068999095584993
             1.8812885    0.31642397975315
             0.5442493    0.74430825237435
 p    1 1.00
             0.1687144                   1
 d    1 1.00
                   0.8                   1

21 0
 s    6 1.00
             3047.5249  0.0018347001629433
             457.36951    0.01403730124668
             103.94869   0.068842606114048
             29.210155    0.23218442062076
              9.286663    0.46794134155879
              3.163927    0.36231203217765
 s    3 1.00
             7.8682724   -0.11933240861517
             1.8812885   -0.16085421161283
             0.5442493     1.1434564825515
 s    1 1.00
             0.1687144                   1
 p    3 1.00
             7.8682724   0.068999095584993
             1.8812885    0.31642397975315
             0.5442493    0.74430825237435
 p    1 1.00
             0.1687144                   1
 d    1 1.00
                   0.8                   1

22 0
 s    3 1.00
             18.731137    0.03349459952309
             2.8253937    0.23472694665786
             0.6401217    0.81375731841339
 s    1 1.00
             0.1612778                   1

23 0
 s    3 1.00
             18.731137    0.03349459952309
             2.8253937    0.23472694665786
             0.6401217    0.81375731841339
 s    1 1.00
             0.1612778                   1

24 0
 s    3 1.00
             18.731137    0.03349459952309
             2.8253937    0.23472694665786
             0.6401217    0.81375731841339
 s    1 1.00
             0.1612778                   1

25 0
 s    3 1.00
             18.731137    0.03349459952309
             2.8253937    0.23472694665786
             0.6401217    0.81375731841339
 s    1 1.00
             0.1612778                   1

26 0
 s    3 1.00
             18.731137    0.03349459952309
             2.8253937    0.23472694665786
             0.6401217    0.81375731841339
 s    1 1.00
             0.1612778                   1

27 0
 s    3 1.00
             18.731137    0.03349459952309
             2.8253937    0.23472694665786
             0.6401217    0.81375731841339
 s    1 1.00
             0.1612778                   1

28 0
 s    3 1.00
             18.731137    0.03349459952309
             2.8253937    0.23472694665786
             0.6401217    0.81375731841339
 s    1 1.00
             0.1612778                   1

29 0
 s    3 1.00
             18.731137    0.03349459952309
             2.8253937    0.23472694665786
             0.6401217    0.81375731841339
 s    1 1.00
             0.1612778                   1

30 0
 s    3 1.00
             18.731137    0.03349459952309
             2.8253937    0.23472694665786
             0.6401217    0.81375731841339
 s    1 1.00
             0.1612778                   1

31 0
 s    3 1.00
             18.731137    0.03349459952309
             2.8253937    0.23472694665786
             0.6401217    0.81375731841339
 s    1 1.00
             0.1612778                   1

32 0
 s    3 1.00
             18.731137    0.03349459952309
             2.8253937    0.23472694665786
             0.6401217    0.81375731841339
 s    1 1.00
             0.1612778                   1

33 0
 s    6 1.00
             3047.5249  0.0018347001629433
             457.36951    0.01403730124668
             103.94869   0.068842606114048
             29.210155    0.23218442062076
              9.286663    0.46794134155879
              3.163927    0.36231203217765
 s    3 1.00
             7.8682724   -0.11933240861517
             1.8812885   -0.16085421161283
             0.5442493     1.1434564825515
 s    1 1.00
             0.1687144                   1
 p    3 1.00
             7.8682724   0.068999095584993
             1.8812885    0.31642397975315
             0.5442493    0.74430825237435
 p    1 1.00
             0.1687144                   1
 d    1 1.00
                   0.8                   1

34 0
 s    6 1.00
             3047.5249  0.0018347001629433
             457.36951    0.01403730124668
             103.94869   0.068842606114048
             29.210155    0.23218442062076
              9.286663    0.46794134155879
              3.163927    0.36231203217765
 s    3 1.00
             7.8682724   -0.11933240861517
             1.8812885   -0.16085421161283
             0.5442493     1.1434564825515
 s    1 1.00
             0.1687144                   1
 p    3 1.00
             7.8682724   0.068999095584993
             1.8812885    0.31642397975315
             0.5442493    0.74430825237435
 p    1 1.00
             0.1687144                   1
 d    1 1.00
                   0.8                   1

35 0
 s    3 1.00
             18.731137    0.03349459952309
             2.8253937    0.23472694665786
             0.6401217    0.81375731841339
 s    1 1.00
             0.1612778                   1

36 0
 s    6 1.00
             3047.5249  0.0018347001629433
             457.36951    0.01403730124668
             103.94869   0.068842606114048
             29.210155    0.23218442062076
              9.286663    0.46794134155879
              3.163927    0.36231203217765
 s    3 1.00
             7.8682724   -0.11933240861517
             1.8812885   -0.16085421161283
             0.5442493     1.1434564825515
 s    1 1.00
             0.1687144                   1
 p    3 1.00
             7.8682724   0.068999095584993
             1.8812885    0.31642397975315
             0.5442493    0.74430825237435
 p    1 1.00
             0.1687144                   1
 d    1 1.00
                   0.8                   1

37 0
 s    3 1.00
             18.731137    0.03349459952309
             2.8253937    0.23472694665786
             0.6401217    0.81375731841339
 s    1 1.00
             0.1612778                   1

38 0
 s    3 1.00
             18.731137    0.03349459952309
             2.8253937    0.23472694665786
             0.6401217    0.81375731841339
 s    1 1.00
             0.1612778                   1

39 0
 s    6 1.00
             3047.5249  0.0018347001629433
             457.36951    0.01403730124668
             103.94869   0.068842606114048
             29.210155    0.23218442062076
              9.286663    0.46794134155879
              3.163927    0.36231203217765
 s    3 1.00
             7.8682724   -0.11933240861517
             1.8812885   -0.16085421161283
             0.5442493     1.1434564825515
 s    1 1.00
             0.1687144                   1
 p    3 1.00
             7.8682724   0.068999095584993
             1.8812885    0.31642397975315
             0.5442493    0.74430825237435
 p    1 1.00
             0.1687144                   1
 d    1 1.00
                   0.8                   1

40 0
 s    6 1.00
             3047.5249  0.0018347001629433
             457.36951    0.01403730124668
             103.94869   0.068842606114048
             29.210155    0.23218442062076
              9.286663    0.46794134155879
              3.163927    0.36231203217765
 s    3 1.00
             7.8682724   -0.11933240861517
             1.8812885   -0.16085421161283
             0.5442493     1.1434564825515
 s    1 1.00
             0.1687144                   1
 p    3 1.00
             7.8682724   0.068999095584993
             1.8812885    0.31642397975315
             0.5442493    0.74430825237435
 p    1 1.00
             0.1687144                   1
 d    1 1.00
                   0.8                   1

41 0
 s    3 1.00
             18.731137    0.03349459952309
             2.8253937    0.23472694665786
             0.6401217    0.81375731841339
 s    1 1.00
             0.1612778                   1

42 0
 s    6 1.00
             5484.6717   0.001831099805527
             825.23495   0.013950098518422
             188.04696    0.06844509273075
               52.9645    0.23271427528445
              16.89757    0.47019295006289
             5.7996353    0.35852086192309
 s    3 1.00
             15.539616   -0.11077750382508
             3.5999336   -0.14802630511126
             1.0137618     1.1307670390447
 s    1 1.00
             0.2700058                   1
 p    3 1.00
             15.539616   0.070874299543311
             3.5999336    0.33975279781076
             1.0137618    0.72715859531445
 p    1 1.00
             0.2700058                   1
 d    1 1.00
                   0.8                   1

43 0
 s    3 1.00
             18.731137    0.03349459952309
             2.8253937    0.23472694665786
             0.6401217    0.81375731841339
 s    1 1.00
             0.1612778                   1

[5d]
[7f]
[9g]

[MO]
 Sym= A
 Ene=               0
 Spin= Alpha
 Occup=    1.00000
   1    -5.1651572380178e-06
   2    -5.8684799670865e-05
   3    -3.473529004055e-05
   4    -2.4220016903713e-05
   5    -1.5709617708007e-05
   6    4.7084155807275e-05
   7    0.00027594165888503
   8    0.00028375972011433
   9    -0.001070395154429
  10    2.3983038560338e-05
  11    3.9570601038592e-05
  12    8.6472409829341e-07
  13    8.7586035609348e-06
  14    -3.3122031764286e-06
  15    -5.541121447023e-05
  16    -2.8408893253935e-05
  17    2.1502648465669e-05
  18    0.0001083136951373
  19    -0.0023050550269333
  20    -9.8337384452055e-06
  21    -1.459567492945e-05
  22    6.1007059486557e-05
  23    -0.00045379362952391
  24    -0.00025635930103566
  25    0.0006881862749994
  26    -6.3921154654089e-05
  27    9.4593228211211e-06
  28    2.4229394904181e-05
  29    5.1509758922327e-06
  30    -3.7379881103324e-07
  31    4.0399004538656e-06
  32    0.00013246307778816
  33    -6.5448523330525e-05
  34    -0.0004059506228542
  35    0.0056259012806346
  36    3.6074070460377e-05
  37    2.7579414813189e-05
  38    -9.1158448799085e-05
  39    -0.0021290498178883
  40    -0.00029623935043625
  41    -0.0013891514465846
  42    0.00015577161983052
  43    6.9550348743942e-05
  44    -4.5765495675712e-05
  45    4.5228043375696e-05
  46    1.3848767071633e-05
  47    4.845148069571e-05
  48    0.00032508971692641
  49    -3.814168723349e-05
  50    -0.00013410582331265
  51    -0.0042178367166662
  52    0.0001222499094917
  53    -4.0671509635937e-05
  54    0.00037330783755679
  55    -0.0019227959191344
  56    0.00023760402423698
  57    -0.0038235244943558
  58    -0.00010569903421034
  59    -0.00019886634189241
  60    -3.4812949346096e-05
  61    5.9991134610804e-05
  62    7.8896395900652e-05
  63    -0.00028808506855275
  64    -0.00013654289484228
  65    -1.6937434887748e-07
  66    2.1173309832406e-06
  67    -1.6190620990476e-07
  68    -1.7364341982957e-06
  69    9.2723069131987e-07
  70    9.9842508977316e-07
  71    -1.0537584384567e-06
  72    4.5680918000393e-07
  73    1.9996422367031e-06
  74    7.5354773469007e-07
  75    -3.1266541825835e-06
  76    2.716375204611e-07
  77    4.7666821651798e-08
  78    1.8016394558771e-07
  79    1.5875972399212e-07
  80    7.2856576913845e-08
  81    5.2342686181385e-08
  82    5.8359503531075e-07
  83    3.3695888568374e-07
  84    2.3762747040672e-06
  85    -1.2035643357046e-05
  86    4.084502485661e-07
  87    1.6510953671898e-07
  88    8.9229146972918e-07
  89    6.4960647726216e-06
  90    -1.0200810876192e-05
  91    2.6545061127595e-07
  92    -1.5274709561777e-07
  93    -5.7053103858825e-07
  94    1.0610283429722e-06
  95    -3.7708869181323e-07
  96    -3.0696391847925e-09
  97    1.5701989390742e-06
  98    8.7308212951148e-07
  99    -4.3795610883644e-07
 100    -1.8092575680048e-06
 101    -8.2197823503459e-07
 102    -3.7393592815281e-06
 103    0.0001024387321164
 104    -1.3232295958155e-06
 105    2.1650081567835e-07
 106    -2.5837705890914e-06
 107    -4.0147789693146e-05
 108    3.9876086442581e-05
 109    -7.773258384061e-06
 110    8.5371955154429e-07
 111    1.2204121696907e-06
 112    -5.4023477087159e-07
 113    -2.4452920576383e-07
 114    -1.8830409364178e-06
 115    3.5367079488103e-07
 116    3.9494069671626e-06
 117    -3.73471532538e-06
 118    -6.4555326951471e-07
 119    2.5348476199855e-06
 120    -1.7118397610731e-06
 121    5.019696034291e-06
 122    -1.6443635352099e-05
 123    1.6268637172474e-05
 124    6.3928987161785e-07
 125    -4.7339147400266e-07
 126    -9.3173546499687e-07
 127    -3.6453844134622e-07
 128    -1.6264187950939e-07
 129    2.2900083908447e-07
 130    1.8303694847768e-06
 131    5.189620416332e-05
 132    6.2310820964159e-06
 133    8.6378598934408e-07
 134    -3.4929541146258e-06
 135    -0.00013254616874753
 136    1.6864809215932e-05
 137    -3.8441828017824e-05
 138    1.4790426521735e-06
 139    9.6431624574632e-07
 140    3.0145102406725e-06
 141    -3.8401397985374e-07
 142    1.9871775039757e-06
 143    1.5258593263672e-07
 144    -9.6110450397259e-07
 145    -4.6829500367887e-05
 146    -3.5017347506162e-07
 147    -9.8074357405058e-07
 148    5.3377637023729e-06
 149    -1.4470009775023e-05
 150    3.6867368846363e-05
 151    -1.3604844938061e-05
 152    -1.3005022982905e-06
 153    3.6847067538354e-07
 154    -2.2001904165418e-06
 155    -6.145493482222e-08
 156    -1.0015110236352e-06
 157    6.7684444827471e-07
 158    5.5268950702546e-06
 159    -3.0245375155249e-05
 160    6.7892327391249e-07
 161    6.5698635804974e-07
 162    -8.4840442912899e-07
 163    -1.1320140497392e-05
 164    1.1552162129959e-05
 165    1.5373005925198e-06
 166    1.0366602531673e-06
 167    -1.7016390375208e-07
 168    2.4776167998381e-07
 169    4.1023329949561e-07
 170    8.3485649109143e-07
 171    8.2460239530591e-08
 172    3.7702008059298e-07
 173    3.0240223933803e-06
 174    -2.3118456693728e-07
 175    -2.118830168021e-07
 176    1.6566641451768e-06
 177    1.2452593188803e-05
 178    4.2272702204576e-06
 179    4.8066136774188e-06
 180    -2.8070057929712e-07
 181    1.4765826487751e-06
 182    -1.1946348859324e-07
 183    7.1907648378179e-07
 184    1.1458128835437e-06
 185    -8.029440591048e-07
 186    -6.804467190723e-06
 187    3.0568480826143e-05
 188    -1.3354466616617e-06
 189    -6.9760389488022e-08
 190    -7.6313672373251e-08
 191    7.6635687300335e-07
 192    -9.5208217387429e-06
 193    -1.5883636456382e-05
 194    7.8411176955381e-07
 195    8.1926146756659e-07
 196    1.5310190741989e-06
 197    -5.5478429564758e-07
 198    3.8131723835197e-07
 199    -2.1232263025445e-06
 200    8.9301897717109e-07
 201    -3.5277236979959e-07
 202    2.3285281502169e-06
 203    -1.6125162567738e-06
 204    -9.4552790955249e-06
 205    3.2868864184177e-06
 206    9.5680031740435e-07
 207    1.0076598488945e-06
 208    9.8553905086964e-06
 209    2.4828369220789e-06
 210    -8.1641956716156e-07
 211    1.8135579981004e-06
 212    4.2951666450008e-06
 213    5.7582655289897e-07
 214    -3.886775564197e-06
 215    -3.0418038772929e-06
 216    1.8147836809243e-05
 217    9.1916559918589e-07
 218    2.7153308928564e-07
 219    8.1821482637216e-07
 220    -2.1201151954094e-06
 221    -3.8997531067829e-06
 222    -2.5763135173287e-05
 223    0.00027177881355234
 224    5.8516011154916e-06
 225    1.2059089533207e-06
 226    9.2322150846508e-07
 227    5.3393320575632e-05
 228    5.9440932654385e-05
 229    -0.00029600566032211
 230    5.9444811593528e-06
 231    -9.7134627659034e-06
 232    -7.440445523101e-06
 233    3.3736367176566e-06
 234    3.2511679864418e-06
 235    7.7630431681799e-06
 236    4.329642455443e-05
 237    -0.00076559709454573
 238    -4.9142302638716e-06
 239    -4.9683028383159e-06
 240    1.8753783634672e-05
 241    0.00024539098339316
 242    4.7843449331482e-05
 243    8.4791249470833e-05
 244    -1.9645145416466e-05
 245    4.4935100222963e-06
 246    8.2518897465565e-06
 247    -1.4544305102476e-06
 248    -1.9953588814864e-06
 249    -1.1253111076739e-05
 250    -1.8204093507635e-05
 251    -6.6834524263307e-06
 252    -5.2813075090867e-05
 253    0.0011309191914939
 254    -9.0591618754014e-06
 255    4.4970026947023e-06
 256    -3.667188064108e-05
 257    0.00049551105782524
 258    0.00011627168654227
 259    9.0499622000899e-05
 260    1.9405190373764e-05
 261    -6.1327235179044e-06
 262    -1.0022500748364e-05
 263    5.8166741652515e-06
 264    5.3623039088375e-06
 265    -1.0167072608296e-05
 266    -2.2213078712369e-06
 267    2.7611113085466e-05
 268    7.576739576171e-05
 269    7.2250666696934e-06
 270    4.5130142560842e-05
 271    -0.0031397489720316
 272    0.00017786936609987
 273    4.2451132718211e-05
 274    2.6185520523071e-05
 275    -0.0013143462904823
 276    -0.0010629277094923
 277    0.0035931663699082
 278    -0.00034724482909519
 279    3.6492025234881e-05
 280    0.00010000199079143