[Molden Format]
made by pyscf v[2.0.1]
[Atoms] (AU)
C   1   6     0.69100024066471     0.64692934207205    -3.48223131169301
H   2   1     2.68052439830868     1.13355088658700    -3.25784032593313
C   3   6    -0.36286361513219     0.85440132524594    -5.97030179418974
H   4   1    -2.35448549047279     0.36322488579172    -6.17995817793143
C   5   6     0.93697958957450     1.61209284601821    -8.05828437677121
H   6   1     1.03927160684768     3.62047501567417    -8.50199621914587
C   7   6     2.20035018302409    -0.10258413888539    -9.73758817852609
H   8   1     2.08224949102462    -2.10886499715255    -9.26789512642378
H   9   1     1.55630230933075    -1.92953025305990    12.99630010416247
C   10   6     0.75233899775814    -2.21270439606481    11.10705728102219
H   11   1    -0.43433408177274    -3.90944857546550    11.22216085340412
C   12   6     2.86362581178706    -2.63237380607947     9.17926416456045
H   13   1     4.39038949912609    -1.24955421540245     9.49899813497433
H   14   1     3.74629220191363    -4.48798724300892     9.47414880959024
C   15   6     2.02478325613682    -2.42177285709634     6.44560829588644
C   16   6     3.88048732735477    -3.58795445234514     4.61402886975252
C   17   6    -0.18412382258602    -1.30464291234259     5.76021113872346
C   18   6    -2.10044360464350    -0.26837831858460     7.71610340967100
C   19   6    -3.08956938670431     2.35282328359417     6.88693925039594
C   20   6    -4.37372924086464    -2.09766595989678     7.93610724222001
C   21   6    -0.83850430601230     0.06372213486173    10.33002307638377
H   22   1     0.38411922151109     1.74281358582432    10.27380136542181
H   23   1    -2.30980003007874     0.45460143924521    11.73986301809809
H   24   1     4.58527064644668    -5.38706904487420     5.36778158031719
H   25   1     5.54944938085014    -2.37631462192748     4.35398898413318
H   26   1     3.06633019150423    -3.94118377050688     2.75255466040884
H   27   1    -4.17727778763735     2.26573369139522     5.12914900961283
H   28   1    -1.52662344944051     3.68001877445626     6.59540397144508
H   29   1    -4.32916174397830     3.13643051467482     8.35225460090378
H   30   1    -5.32329548508442    -2.36691813602939     6.11583672749896
H   31   1    -5.77989366602257    -1.33896741843465     9.25748940450990
H   32   1    -3.79310905208926    -3.96389819310853     8.61386170102686
C   33   6    -1.01100794811226    -1.06331657314144     3.11929490449947
C   34   6     0.37686231036534    -0.33275864505552     1.09165013605873
H   35   1    -3.01671213906703    -1.40297922279997     2.77827895090944
C   36   6    -0.64382707979370    -0.11591880174385    -1.42063131251064
H   37   1     2.35569259782137     0.17174499283897     1.33641070251401
H   38   1    -2.63317482980319    -0.60229203511219    -1.66119700387645
C   39   6     3.51308281939799     0.56451683374771   -11.83721740116087
C   40   6     4.73454985947753    -1.32827425009098   -13.42856361339847
H   41   1     3.70368628307445     2.52946227119814   -12.41204614817202
O   42   8     5.94050384923934    -0.86285538356078   -15.33903067176323
H   43   1     4.49094488416901    -3.31470750932465   -12.76908014850535
[GTO]
1 0
 s    6 1.00
             3047.5249  0.0018347001629433
             457.36951    0.01403730124668
             103.94869   0.068842606114048
             29.210155    0.23218442062076
              9.286663    0.46794134155879
              3.163927    0.36231203217765
 s    3 1.00
             7.8682724   -0.11933240861517
             1.8812885   -0.16085421161283
             0.5442493     1.1434564825515
 s    1 1.00
             0.1687144                   1
 p    3 1.00
             7.8682724   0.068999095584993
             1.8812885    0.31642397975315
             0.5442493    0.74430825237435
 p    1 1.00
             0.1687144                   1
 d    1 1.00
                   0.8                   1

2 0
 s    3 1.00
             18.731137    0.03349459952309
             2.8253937    0.23472694665786
             0.6401217    0.81375731841339
 s    1 1.00
             0.1612778                   1

3 0
 s    6 1.00
             3047.5249  0.0018347001629433
             457.36951    0.01403730124668
             103.94869   0.068842606114048
             29.210155    0.23218442062076
              9.286663    0.46794134155879
              3.163927    0.36231203217765
 s    3 1.00
             7.8682724   -0.11933240861517
             1.8812885   -0.16085421161283
             0.5442493     1.1434564825515
 s    1 1.00
             0.1687144                   1
 p    3 1.00
             7.8682724   0.068999095584993
             1.8812885    0.31642397975315
             0.5442493    0.74430825237435
 p    1 1.00
             0.1687144                   1
 d    1 1.00
                   0.8                   1

4 0
 s    3 1.00
             18.731137    0.03349459952309
             2.8253937    0.23472694665786
             0.6401217    0.81375731841339
 s    1 1.00
             0.1612778                   1

5 0
 s    6 1.00
             3047.5249  0.0018347001629433
             457.36951    0.01403730124668
             103.94869   0.068842606114048
             29.210155    0.23218442062076
              9.286663    0.46794134155879
              3.163927    0.36231203217765
 s    3 1.00
             7.8682724   -0.11933240861517
             1.8812885   -0.16085421161283
             0.5442493     1.1434564825515
 s    1 1.00
             0.1687144                   1
 p    3 1.00
             7.8682724   0.068999095584993
             1.8812885    0.31642397975315
             0.5442493    0.74430825237435
 p    1 1.00
             0.1687144                   1
 d    1 1.00
                   0.8                   1

6 0
 s    3 1.00
             18.731137    0.03349459952309
             2.8253937    0.23472694665786
             0.6401217    0.81375731841339
 s    1 1.00
             0.1612778                   1

7 0
 s    6 1.00
             3047.5249  0.0018347001629433
             457.36951    0.01403730124668
             103.94869   0.068842606114048
             29.210155    0.23218442062076
              9.286663    0.46794134155879
              3.163927    0.36231203217765
 s    3 1.00
             7.8682724   -0.11933240861517
             1.8812885   -0.16085421161283
             0.5442493     1.1434564825515
 s    1 1.00
             0.1687144                   1
 p    3 1.00
             7.8682724   0.068999095584993
             1.8812885    0.31642397975315
             0.5442493    0.74430825237435
 p    1 1.00
             0.1687144                   1
 d    1 1.00
                   0.8                   1

8 0
 s    3 1.00
             18.731137    0.03349459952309
             2.8253937    0.23472694665786
             0.6401217    0.81375731841339
 s    1 1.00
             0.1612778                   1

9 0
 s    3 1.00
             18.731137    0.03349459952309
             2.8253937    0.23472694665786
             0.6401217    0.81375731841339
 s    1 1.00
             0.1612778                   1

10 0
 s    6 1.00
             3047.5249  0.0018347001629433
             457.36951    0.01403730124668
             103.94869   0.068842606114048
             29.210155    0.23218442062076
              9.286663    0.46794134155879
              3.163927    0.36231203217765
 s    3 1.00
             7.8682724   -0.11933240861517
             1.8812885   -0.16085421161283
             0.5442493     1.1434564825515
 s    1 1.00
             0.1687144                   1
 p    3 1.00
             7.8682724   0.068999095584993
             1.8812885    0.31642397975315
             0.5442493    0.74430825237435
 p    1 1.00
             0.1687144                   1
 d    1 1.00
                   0.8                   1

11 0
 s    3 1.00
             18.731137    0.03349459952309
             2.8253937    0.23472694665786
             0.6401217    0.81375731841339
 s    1 1.00
             0.1612778                   1

12 0
 s    6 1.00
             3047.5249  0.0018347001629433
             457.36951    0.01403730124668
             103.94869   0.068842606114048
             29.210155    0.23218442062076
              9.286663    0.46794134155879
              3.163927    0.36231203217765
 s    3 1.00
             7.8682724   -0.11933240861517
             1.8812885   -0.16085421161283
             0.5442493     1.1434564825515
 s    1 1.00
             0.1687144                   1
 p    3 1.00
             7.8682724   0.068999095584993
             1.8812885    0.31642397975315
             0.5442493    0.74430825237435
 p    1 1.00
             0.1687144                   1
 d    1 1.00
                   0.8                   1

13 0
 s    3 1.00
             18.731137    0.03349459952309
             2.8253937    0.23472694665786
             0.6401217    0.81375731841339
 s    1 1.00
             0.1612778                   1

14 0
 s    3 1.00
             18.731137    0.03349459952309
             2.8253937    0.23472694665786
             0.6401217    0.81375731841339
 s    1 1.00
             0.1612778                   1

15 0
 s    6 1.00
             3047.5249  0.0018347001629433
             457.36951    0.01403730124668
             103.94869   0.068842606114048
             29.210155    0.23218442062076
              9.286663    0.46794134155879
              3.163927    0.36231203217765
 s    3 1.00
             7.8682724   -0.11933240861517
             1.8812885   -0.16085421161283
             0.5442493     1.1434564825515
 s    1 1.00
             0.1687144                   1
 p    3 1.00
             7.8682724   0.068999095584993
             1.8812885    0.31642397975315
             0.5442493    0.74430825237435
 p    1 1.00
             0.1687144                   1
 d    1 1.00
                   0.8                   1

16 0
 s    6 1.00
             3047.5249  0.0018347001629433
             457.36951    0.01403730124668
             103.94869   0.068842606114048
             29.210155    0.23218442062076
              9.286663    0.46794134155879
              3.163927    0.36231203217765
 s    3 1.00
             7.8682724   -0.11933240861517
             1.8812885   -0.16085421161283
             0.5442493     1.1434564825515
 s    1 1.00
             0.1687144                   1
 p    3 1.00
             7.8682724   0.068999095584993
             1.8812885    0.31642397975315
             0.5442493    0.74430825237435
 p    1 1.00
             0.1687144                   1
 d    1 1.00
                   0.8                   1

17 0
 s    6 1.00
             3047.5249  0.0018347001629433
             457.36951    0.01403730124668
             103.94869   0.068842606114048
             29.210155    0.23218442062076
              9.286663    0.46794134155879
              3.163927    0.36231203217765
 s    3 1.00
             7.8682724   -0.11933240861517
             1.8812885   -0.16085421161283
             0.5442493     1.1434564825515
 s    1 1.00
             0.1687144                   1
 p    3 1.00
             7.8682724   0.068999095584993
             1.8812885    0.31642397975315
             0.5442493    0.74430825237435
 p    1 1.00
             0.1687144                   1
 d    1 1.00
                   0.8                   1

18 0
 s    6 1.00
             3047.5249  0.0018347001629433
             457.36951    0.01403730124668
             103.94869   0.068842606114048
             29.210155    0.23218442062076
              9.286663    0.46794134155879
              3.163927    0.36231203217765
 s    3 1.00
             7.8682724   -0.11933240861517
             1.8812885   -0.16085421161283
             0.5442493     1.1434564825515
 s    1 1.00
             0.1687144                   1
 p    3 1.00
             7.8682724   0.068999095584993
             1.8812885    0.31642397975315
             0.5442493    0.74430825237435
 p    1 1.00
             0.1687144                   1
 d    1 1.00
                   0.8                   1

19 0
 s    6 1.00
             3047.5249  0.0018347001629433
             457.36951    0.01403730124668
             103.94869   0.068842606114048
             29.210155    0.23218442062076
              9.286663    0.46794134155879
              3.163927    0.36231203217765
 s    3 1.00
             7.8682724   -0.11933240861517
             1.8812885   -0.16085421161283
             0.5442493     1.1434564825515
 s    1 1.00
             0.1687144                   1
 p    3 1.00
             7.8682724   0.068999095584993
             1.8812885    0.31642397975315
             0.5442493    0.74430825237435
 p    1 1.00
             0.1687144                   1
 d    1 1.00
                   0.8                   1

20 0
 s    6 1.00
             3047.5249  0.0018347001629433
             457.36951    0.01403730124668
             103.94869   0.068842606114048
             29.210155    0.23218442062076
              9.286663    0.46794134155879
              3.163927    0.36231203217765
 s    3 1.00
             7.8682724   -0.11933240861517
             1.8812885   -0.16085421161283
             0.5442493     1.1434564825515
 s    1 1.00
             0.1687144                   1
 p    3 1.00
             7.8682724   0.068999095584993
             1.8812885    0.31642397975315
             0.5442493    0.74430825237435
 p    1 1.00
             0.1687144                   1
 d    1 1.00
                   0.8                   1

21 0
 s    6 1.00
             3047.5249  0.0018347001629433
             457.36951    0.01403730124668
             103.94869   0.068842606114048
             29.210155    0.23218442062076
              9.286663    0.46794134155879
              3.163927    0.36231203217765
 s    3 1.00
             7.8682724   -0.11933240861517
             1.8812885   -0.16085421161283
             0.5442493     1.1434564825515
 s    1 1.00
             0.1687144                   1
 p    3 1.00
             7.8682724   0.068999095584993
             1.8812885    0.31642397975315
             0.5442493    0.74430825237435
 p    1 1.00
             0.1687144                   1
 d    1 1.00
                   0.8                   1

22 0
 s    3 1.00
             18.731137    0.03349459952309
             2.8253937    0.23472694665786
             0.6401217    0.81375731841339
 s    1 1.00
             0.1612778                   1

23 0
 s    3 1.00
             18.731137    0.03349459952309
             2.8253937    0.23472694665786
             0.6401217    0.81375731841339
 s    1 1.00
             0.1612778                   1

24 0
 s    3 1.00
             18.731137    0.03349459952309
             2.8253937    0.23472694665786
             0.6401217    0.81375731841339
 s    1 1.00
             0.1612778                   1

25 0
 s    3 1.00
             18.731137    0.03349459952309
             2.8253937    0.23472694665786
             0.6401217    0.81375731841339
 s    1 1.00
             0.1612778                   1

26 0
 s    3 1.00
             18.731137    0.03349459952309
             2.8253937    0.23472694665786
             0.6401217    0.81375731841339
 s    1 1.00
             0.1612778                   1

27 0
 s    3 1.00
             18.731137    0.03349459952309
             2.8253937    0.23472694665786
             0.6401217    0.81375731841339
 s    1 1.00
             0.1612778                   1

28 0
 s    3 1.00
             18.731137    0.03349459952309
             2.8253937    0.23472694665786
             0.6401217    0.81375731841339
 s    1 1.00
             0.1612778                   1

29 0
 s    3 1.00
             18.731137    0.03349459952309
             2.8253937    0.23472694665786
             0.6401217    0.81375731841339
 s    1 1.00
             0.1612778                   1

30 0
 s    3 1.00
             18.731137    0.03349459952309
             2.8253937    0.23472694665786
             0.6401217    0.81375731841339
 s    1 1.00
             0.1612778                   1

31 0
 s    3 1.00
             18.731137    0.03349459952309
             2.8253937    0.23472694665786
             0.6401217    0.81375731841339
 s    1 1.00
             0.1612778                   1

32 0
 s    3 1.00
             18.731137    0.03349459952309
             2.8253937    0.23472694665786
             0.6401217    0.81375731841339
 s    1 1.00
             0.1612778                   1

33 0
 s    6 1.00
             3047.5249  0.0018347001629433
             457.36951    0.01403730124668
             103.94869   0.068842606114048
             29.210155    0.23218442062076
              9.286663    0.46794134155879
              3.163927    0.36231203217765
 s    3 1.00
             7.8682724   -0.11933240861517
             1.8812885   -0.16085421161283
             0.5442493     1.1434564825515
 s    1 1.00
             0.1687144                   1
 p    3 1.00
             7.8682724   0.068999095584993
             1.8812885    0.31642397975315
             0.5442493    0.74430825237435
 p    1 1.00
             0.1687144                   1
 d    1 1.00
                   0.8                   1

34 0
 s    6 1.00
             3047.5249  0.0018347001629433
             457.36951    0.01403730124668
             103.94869   0.068842606114048
             29.210155    0.23218442062076
              9.286663    0.46794134155879
              3.163927    0.36231203217765
 s    3 1.00
             7.8682724   -0.11933240861517
             1.8812885   -0.16085421161283
             0.5442493     1.1434564825515
 s    1 1.00
             0.1687144                   1
 p    3 1.00
             7.8682724   0.068999095584993
             1.8812885    0.31642397975315
             0.5442493    0.74430825237435
 p    1 1.00
             0.1687144                   1
 d    1 1.00
                   0.8                   1

35 0
 s    3 1.00
             18.731137    0.03349459952309
             2.8253937    0.23472694665786
             0.6401217    0.81375731841339
 s    1 1.00
             0.1612778                   1

36 0
 s    6 1.00
             3047.5249  0.0018347001629433
             457.36951    0.01403730124668
             103.94869   0.068842606114048
             29.210155    0.23218442062076
              9.286663    0.46794134155879
              3.163927    0.36231203217765
 s    3 1.00
             7.8682724   -0.11933240861517
             1.8812885   -0.16085421161283
             0.5442493     1.1434564825515
 s    1 1.00
             0.1687144                   1
 p    3 1.00
             7.8682724   0.068999095584993
             1.8812885    0.31642397975315
             0.5442493    0.74430825237435
 p    1 1.00
             0.1687144                   1
 d    1 1.00
                   0.8                   1

37 0
 s    3 1.00
             18.731137    0.03349459952309
             2.8253937    0.23472694665786
             0.6401217    0.81375731841339
 s    1 1.00
             0.1612778                   1

38 0
 s    3 1.00
             18.731137    0.03349459952309
             2.8253937    0.23472694665786
             0.6401217    0.81375731841339
 s    1 1.00
             0.1612778                   1

39 0
 s    6 1.00
             3047.5249  0.0018347001629433
             457.36951    0.01403730124668
             103.94869   0.068842606114048
             29.210155    0.23218442062076
              9.286663    0.46794134155879
              3.163927    0.36231203217765
 s    3 1.00
             7.8682724   -0.11933240861517
             1.8812885   -0.16085421161283
             0.5442493     1.1434564825515
 s    1 1.00
             0.1687144                   1
 p    3 1.00
             7.8682724   0.068999095584993
             1.8812885    0.31642397975315
             0.5442493    0.74430825237435
 p    1 1.00
             0.1687144                   1
 d    1 1.00
                   0.8                   1

40 0
 s    6 1.00
             3047.5249  0.0018347001629433
             457.36951    0.01403730124668
             103.94869   0.068842606114048
             29.210155    0.23218442062076
              9.286663    0.46794134155879
              3.163927    0.36231203217765
 s    3 1.00
             7.8682724   -0.11933240861517
             1.8812885   -0.16085421161283
             0.5442493     1.1434564825515
 s    1 1.00
             0.1687144                   1
 p    3 1.00
             7.8682724   0.068999095584993
             1.8812885    0.31642397975315
             0.5442493    0.74430825237435
 p    1 1.00
             0.1687144                   1
 d    1 1.00
                   0.8                   1

41 0
 s    3 1.00
             18.731137    0.03349459952309
             2.8253937    0.23472694665786
             0.6401217    0.81375731841339
 s    1 1.00
             0.1612778                   1

42 0
 s    6 1.00
             5484.6717   0.001831099805527
             825.23495   0.013950098518422
             188.04696    0.06844509273075
               52.9645    0.23271427528445
              16.89757    0.47019295006289
             5.7996353    0.35852086192309
 s    3 1.00
             15.539616   -0.11077750382508
             3.5999336   -0.14802630511126
             1.0137618     1.1307670390447
 s    1 1.00
             0.2700058                   1
 p    3 1.00
             15.539616   0.070874299543311
             3.5999336    0.33975279781076
             1.0137618    0.72715859531445
 p    1 1.00
             0.2700058                   1
 d    1 1.00
                   0.8                   1

43 0
 s    3 1.00
             18.731137    0.03349459952309
             2.8253937    0.23472694665786
             0.6401217    0.81375731841339
 s    1 1.00
             0.1612778                   1

[5d]
[7f]
[9g]

[MO]
 Sym= A
 Ene=               0
 Spin= Alpha
 Occup=    1.00000
   1    1.8595100900125e-06
   2    1.789747686902e-05
   3    -1.2819500355879e-05
   4    7.8319055034916e-06
   5    -5.4551348197591e-06
   6    -7.0745951024992e-06
   7    -2.3474581875728e-05
   8    -0.00010269454113384
   9    0.00036577175477322
  10    -1.5692889316822e-07
  11    -1.1371482433969e-05
  12    -2.4293052823967e-06
  13    -1.3878030674896e-05
  14    7.7206859704532e-06
  15    1.4012876267792e-05
  16    -1.6441265259993e-05
  17    -9.8954360347105e-06
  18    -0.00015248011373591
  19    -0.00037787008427216
  20    -4.9376010195476e-05
  21    1.9211154135983e-05
  22    5.7442399900708e-05
  23    -0.00015513338579473
  24    0.00010384059860718
  25    0.00057937532773852
  26    -2.2103597101252e-05
  27    2.3167112616475e-05
  28    -1.1567244150207e-05
  29    -4.1635612325674e-05
  30     2.97994769966e-06
  31    1.0839611145606e-05
  32    -2.9342696696052e-05
  33    -3.9494193310683e-05
  34    -0.00036323534444637
  35    0.0042007932790311
  36    7.7176727494048e-05
  37    -1.4281800536547e-06
  38    -0.00011268976590666
  39     0.000485169512861
  40    -0.0018374694616331
  41    -0.00049478805619904
  42    2.5724485720496e-05
  43    -0.000108108943153
  44    6.6515799115105e-05
  45    -2.5972950607062e-05
  46    -5.404071760797e-05
  47    1.0054377033257e-05
  48    0.00026373111995215
  49    -3.3678738712172e-05
  50    -5.4626440579485e-05
  51    -0.0033591693637414
  52    -0.00013547370198927
  53    0.00022568253734731
  54    0.00017245879463819
  55      0.00167742922915
  56    -0.0025032389908632
  57    -0.0021999568795927
  58    2.0287521886758e-05
  59    -3.1820037707951e-05
  60    -0.00019596396886527
  61    -3.2310835514611e-05
  62    0.00012256952570161
  63    -0.00025189851205032
  64    -4.9305286482541e-05
  65    1.4370493394471e-07
  66    7.2386102485529e-08
  67    1.812410910055e-08
  68    6.7095825428106e-07
  69    -2.9101136470231e-06
  70    9.1629520554466e-09
  71    2.1634418072493e-07
  72    -3.1412915047564e-07
  73    -7.5509656696165e-08
  74    -1.9565342013381e-06
  75    6.7252709006883e-08
  76    4.7315250082557e-08
  77    1.0227963448308e-07
  78    -3.8792747438016e-08
  79    -7.675740036828e-08
  80    8.5114405562185e-08
  81    -1.3453382733979e-07
  82    -4.1359583261956e-07
  83    -4.3085608132976e-08
  84    1.8017670007111e-07
  85    1.3518948885163e-05
  86    -9.6315502550416e-07
  87    -3.6979338701759e-07
  88    -8.2571294435919e-07
  89    -3.5536103624258e-06
  90    4.7948761596346e-06
  91    -3.2736795065752e-06
  92    -1.392903777538e-07
  93    2.195795617044e-07
  94    -4.1640237555067e-07
  95    -6.4699386577221e-08
  96    9.331135130479e-08
  97    -1.1835641917484e-06
  98    -1.6965496347227e-06
  99    2.8987487232082e-07
 100    1.5706080053634e-06
 101    1.4321910348402e-07
 102    7.9199004138602e-07
 103    -1.4990433716251e-05
 104    1.176808868641e-06
 105    2.6609808761613e-06
 106    5.3468333365787e-07
 107    1.9681917034829e-05
 108    -1.6032125335747e-05
 109    -2.9659773898113e-05
 110    5.7382479072815e-07
 111    4.9469069589008e-07
 112    -2.3247335212649e-07
 113    -4.0409944396305e-07
 114    4.4244559926841e-07
 115    4.0824842109105e-07
 116    4.5230362100228e-06
 117    -3.5106108883381e-05
 118    5.7132271199566e-07
 119    -1.0301938458084e-06
 120    -6.6367182477289e-07
 121    8.0125379161671e-06
 122    -7.370845091954e-07
 123    -2.1031295626377e-06
 124    6.8950650532354e-08
 125    2.5410005912194e-07
 126    1.9189986829411e-07
 127    -1.4463366548145e-07
 128    3.0600555846503e-07
 129    9.7301807756418e-07
 130    8.3586543601464e-06
 131    -4.9982975215022e-05
 132    5.421434717891e-07
 133    1.950979276497e-06
 134    -3.163982171151e-06
 135    2.5236698045278e-05
 136    -7.8348327580118e-08
 137    7.8497610236528e-05
 138    -2.3030185176887e-06
 139    -1.6050020794405e-06
 140    -1.8368306073714e-07
 141    -3.507976745142e-07
 142    -1.1937882514169e-08
 143    2.8682431191361e-07
 144    3.9238437280582e-06
 145    -1.7510128432272e-05
 146    -2.4843644700145e-08
 147    -9.5555449186663e-07
 148    -9.1463070722596e-07
 149    -1.0706750315204e-05
 150    6.0505725661531e-06
 151    2.5874987850031e-06
 152    9.5052926575777e-07
 153    3.2848149767882e-07
 154    9.4230762121172e-08
 155    -6.5115198950446e-07
 156    7.4749650107819e-07
 157    -1.0335104118798e-07
 158    -8.5197729835605e-07
 159    -4.0713611604631e-07
 160    -8.9208101205561e-07
 161    2.9325811593482e-07
 162    -1.9685883179413e-07
 163    5.7203723369586e-06
 164    -4.7282642686798e-09
 165    -9.6388324905158e-07
 166    -4.5159594703146e-07
 167    1.5892403838478e-07
 168    -7.1987241255575e-09
 169    1.1308445935406e-07
 170    -2.8709304262087e-07
 171    -1.2536834897982e-07
 172    5.9057187722683e-07
 173    2.2163017285951e-06
 174    9.3824078237048e-07
 175    2.509474477919e-07
 176    -9.0681687547053e-07
 177    4.1022343368131e-07
 178    -1.4934433251076e-06
 179    1.6233630295776e-06
 180    -1.4935916722708e-07
 181    -2.0966912037972e-07
 182    -3.4075762782564e-08
 183    3.7206775708361e-07
 184    -1.6508114422945e-07
 185    3.4254289282204e-07
 186    2.8268433878578e-06
 187    -2.5173786809629e-06
 188    2.5892385092633e-07
 189    -9.3440976124321e-08
 190    -7.0856034711363e-07
 191    -1.8970145216277e-06
 192    -9.2396856090338e-07
 193    5.8405132671262e-06
 194    -3.0900178225577e-07
 195    -3.8241984908874e-09
 196    -1.551544469357e-07
 197    -7.1001823854408e-08
 198    7.9519632799448e-08
 199    6.8118867564655e-07
 200    1.1851923684884e-06
 201    1.8173476372128e-07
 202    -2.6969883795109e-06
 203    1.8557421487627e-06
 204    2.1655855232824e-06
 205    5.6139129884229e-08
 206    1.6237348910263e-06
 207    -1.2031134297031e-06
 208    1.2137943851175e-05
 209    -9.5914023263879e-07
 210    3.9090474495772e-06
 211    -4.4636488142525e-07
 212    -2.7578593435316e-06
 213    2.1930407970667e-07
 214    2.0430848921128e-06
 215    4.968026542098e-07
 216    -9.0464721655191e-07
 217    -3.7612117266894e-07
 218    -9.4315300858827e-07
 219    -2.4972030183019e-07
 220    -1.2468456749987e-06
 221    -1.9090695457413e-07
 222    9.9053569837448e-06
 223    6.9934344521256e-06
 224    1.9665826213219e-06
 225    -5.5832398923524e-07
 226    -5.683699722365e-06
 227    -1.123788470137e-05
 228    -2.7609913548089e-05
 229    9.1631694871607e-05
 230    1.0156803830455e-06
 231    4.0995739499524e-06
 232    2.1395380608521e-06
 233    -1.7965548946822e-06
 234    -2.8204783891901e-06
 235    -1.9140463512492e-06
 236    -2.3014582645085e-06
 237    -3.3889773769567e-05
 238    -5.3475103636363e-06
 239    -8.747958802016e-06
 240    4.3693190267982e-06
 241    1.6922740741966e-05
 242    5.4260483514893e-06
 243    9.1991589131995e-05
 244    -1.408112707892e-06
 245    -7.0963071204903e-06
 246    -1.9977262116632e-06
 247    -3.1536491014815e-06
 248    -1.6772713875073e-06
 249    3.6428108555524e-06
 250    -1.1177020436464e-05
 251    1.2538022419605e-05
 252    2.9085842476191e-05
 253    -0.00024031465195639
 254    -3.9615877535585e-06
 255    7.1690713950755e-06
 256    -1.9255796340385e-05
 257    -0.00010416730358063
 258    -9.9976366367384e-05
 259    0.00022834896364467
 260    -2.4186763125875e-06
 261    1.1001524004044e-05
 262    5.5646017192733e-06
 263    -7.2659341177971e-06
 264    -5.7143635574532e-06
 265    -4.5495643783728e-06
 266    -3.2065119727556e-05
 267    9.6647404106492e-06
 268    -3.5283740484281e-05
 269    -0.0002668925920903
 270    -0.00010125096077998
 271    -0.0031853770497405
 272    -0.00021726801555625
 273    0.00042038088639862
 274    0.0002452877183865
 275    -0.0021240015089224
 276    -0.00051378222081304
 277    0.0033050302545154
 278    -0.00020543627664473
 279    0.00021138797153005