[Molden Format]
made by pyscf v[2.0.1]
[Atoms] (AU)
C   1   6     0.69100024066471     0.64692934207205    -3.48223131169301
H   2   1     2.68052439830868     1.13355088658700    -3.25784032593313
C   3   6    -0.36286361513219     0.85440132524594    -5.97030179418974
H   4   1    -2.35448549047279     0.36322488579172    -6.17995817793143
C   5   6     0.93697958957450     1.61209284601821    -8.05828437677121
H   6   1     1.52220939200985     3.58023657898303    -8.21595213017833
C   7   6     1.59282573286669    -0.05175011382745   -10.09734693546315
H   8   1     0.99474836942587    -2.01839690080961    -9.91207388765078
H   9   1     1.55630230933075    -1.92953025305990    12.99630010416247
C   10   6     0.75233899775814    -2.21270439606481    11.10705728102219
H   11   1    -0.43433408177274    -3.90944857546550    11.22216085340412
C   12   6     2.86362581178706    -2.63237380607947     9.17926416456045
H   13   1     4.39038949912609    -1.24955421540245     9.49899813497433
H   14   1     3.74629220191363    -4.48798724300892     9.47414880959024
C   15   6     2.02478325613682    -2.42177285709634     6.44560829588644
C   16   6     3.88048732735477    -3.58795445234514     4.61402886975252
C   17   6    -0.18412382258602    -1.30464291234259     5.76021113872346
C   18   6    -2.10044360464350    -0.26837831858460     7.71610340967100
C   19   6    -3.08956938670431     2.35282328359417     6.88693925039594
C   20   6    -4.37372924086464    -2.09766595989678     7.93610724222001
C   21   6    -0.83850430601230     0.06372213486173    10.33002307638377
H   22   1     0.38411922151109     1.74281358582432    10.27380136542181
H   23   1    -2.30980003007874     0.45460143924521    11.73986301809809
H   24   1     4.58527064644668    -5.38706904487420     5.36778158031719
H   25   1     5.54944938085014    -2.37631462192748     4.35398898413318
H   26   1     3.06633019150423    -3.94118377050688     2.75255466040884
H   27   1    -4.17727778763735     2.26573369139522     5.12914900961283
H   28   1    -1.52662344944051     3.68001877445626     6.59540397144508
H   29   1    -4.32916174397830     3.13643051467482     8.35225460090378
H   30   1    -5.32329548508442    -2.36691813602939     6.11583672749896
H   31   1    -5.77989366602257    -1.33896741843465     9.25748940450990
H   32   1    -3.79310905208926    -3.96389819310853     8.61386170102686
C   33   6    -1.01100794811226    -1.06331657314144     3.11929490449947
C   34   6     0.37686231036534    -0.33275864505552     1.09165013605873
H   35   1    -3.01671213906703    -1.40297922279997     2.77827895090944
C   36   6    -0.64382707979370    -0.11591880174385    -1.42063131251064
H   37   1     2.35569259782137     0.17174499283897     1.33641070251401
H   38   1    -2.63317482980319    -0.60229203511219    -1.66119700387645
C   39   6     2.88089126504443     0.61821658123040   -12.21129238571255
C   40   6     3.45664863859100    -1.22033421200677   -14.18493293343049
H   41   1     3.53070761900678     2.54536442784122   -12.51396089296279
O   42   8     4.60321296142939    -0.74877588551315   -16.13014426558594
H   43   1     2.75622344406002    -3.16930929543288   -13.79624335354022
[GTO]
1 0
 s    6 1.00
             3047.5249  0.0018347001629433
             457.36951    0.01403730124668
             103.94869   0.068842606114048
             29.210155    0.23218442062076
              9.286663    0.46794134155879
              3.163927    0.36231203217765
 s    3 1.00
             7.8682724   -0.11933240861517
             1.8812885   -0.16085421161283
             0.5442493     1.1434564825515
 s    1 1.00
             0.1687144                   1
 p    3 1.00
             7.8682724   0.068999095584993
             1.8812885    0.31642397975315
             0.5442493    0.74430825237435
 p    1 1.00
             0.1687144                   1
 d    1 1.00
                   0.8                   1

2 0
 s    3 1.00
             18.731137    0.03349459952309
             2.8253937    0.23472694665786
             0.6401217    0.81375731841339
 s    1 1.00
             0.1612778                   1

3 0
 s    6 1.00
             3047.5249  0.0018347001629433
             457.36951    0.01403730124668
             103.94869   0.068842606114048
             29.210155    0.23218442062076
              9.286663    0.46794134155879
              3.163927    0.36231203217765
 s    3 1.00
             7.8682724   -0.11933240861517
             1.8812885   -0.16085421161283
             0.5442493     1.1434564825515
 s    1 1.00
             0.1687144                   1
 p    3 1.00
             7.8682724   0.068999095584993
             1.8812885    0.31642397975315
             0.5442493    0.74430825237435
 p    1 1.00
             0.1687144                   1
 d    1 1.00
                   0.8                   1

4 0
 s    3 1.00
             18.731137    0.03349459952309
             2.8253937    0.23472694665786
             0.6401217    0.81375731841339
 s    1 1.00
             0.1612778                   1

5 0
 s    6 1.00
             3047.5249  0.0018347001629433
             457.36951    0.01403730124668
             103.94869   0.068842606114048
             29.210155    0.23218442062076
              9.286663    0.46794134155879
              3.163927    0.36231203217765
 s    3 1.00
             7.8682724   -0.11933240861517
             1.8812885   -0.16085421161283
             0.5442493     1.1434564825515
 s    1 1.00
             0.1687144                   1
 p    3 1.00
             7.8682724   0.068999095584993
             1.8812885    0.31642397975315
             0.5442493    0.74430825237435
 p    1 1.00
             0.1687144                   1
 d    1 1.00
                   0.8                   1

6 0
 s    3 1.00
             18.731137    0.03349459952309
             2.8253937    0.23472694665786
             0.6401217    0.81375731841339
 s    1 1.00
             0.1612778                   1

7 0
 s    6 1.00
             3047.5249  0.0018347001629433
             457.36951    0.01403730124668
             103.94869   0.068842606114048
             29.210155    0.23218442062076
              9.286663    0.46794134155879
              3.163927    0.36231203217765
 s    3 1.00
             7.8682724   -0.11933240861517
             1.8812885   -0.16085421161283
             0.5442493     1.1434564825515
 s    1 1.00
             0.1687144                   1
 p    3 1.00
             7.8682724   0.068999095584993
             1.8812885    0.31642397975315
             0.5442493    0.74430825237435
 p    1 1.00
             0.1687144                   1
 d    1 1.00
                   0.8                   1

8 0
 s    3 1.00
             18.731137    0.03349459952309
             2.8253937    0.23472694665786
             0.6401217    0.81375731841339
 s    1 1.00
             0.1612778                   1

9 0
 s    3 1.00
             18.731137    0.03349459952309
             2.8253937    0.23472694665786
             0.6401217    0.81375731841339
 s    1 1.00
             0.1612778                   1

10 0
 s    6 1.00
             3047.5249  0.0018347001629433
             457.36951    0.01403730124668
             103.94869   0.068842606114048
             29.210155    0.23218442062076
              9.286663    0.46794134155879
              3.163927    0.36231203217765
 s    3 1.00
             7.8682724   -0.11933240861517
             1.8812885   -0.16085421161283
             0.5442493     1.1434564825515
 s    1 1.00
             0.1687144                   1
 p    3 1.00
             7.8682724   0.068999095584993
             1.8812885    0.31642397975315
             0.5442493    0.74430825237435
 p    1 1.00
             0.1687144                   1
 d    1 1.00
                   0.8                   1

11 0
 s    3 1.00
             18.731137    0.03349459952309
             2.8253937    0.23472694665786
             0.6401217    0.81375731841339
 s    1 1.00
             0.1612778                   1

12 0
 s    6 1.00
             3047.5249  0.0018347001629433
             457.36951    0.01403730124668
             103.94869   0.068842606114048
             29.210155    0.23218442062076
              9.286663    0.46794134155879
              3.163927    0.36231203217765
 s    3 1.00
             7.8682724   -0.11933240861517
             1.8812885   -0.16085421161283
             0.5442493     1.1434564825515
 s    1 1.00
             0.1687144                   1
 p    3 1.00
             7.8682724   0.068999095584993
             1.8812885    0.31642397975315
             0.5442493    0.74430825237435
 p    1 1.00
             0.1687144                   1
 d    1 1.00
                   0.8                   1

13 0
 s    3 1.00
             18.731137    0.03349459952309
             2.8253937    0.23472694665786
             0.6401217    0.81375731841339
 s    1 1.00
             0.1612778                   1

14 0
 s    3 1.00
             18.731137    0.03349459952309
             2.8253937    0.23472694665786
             0.6401217    0.81375731841339
 s    1 1.00
             0.1612778                   1

15 0
 s    6 1.00
             3047.5249  0.0018347001629433
             457.36951    0.01403730124668
             103.94869   0.068842606114048
             29.210155    0.23218442062076
              9.286663    0.46794134155879
              3.163927    0.36231203217765
 s    3 1.00
             7.8682724   -0.11933240861517
             1.8812885   -0.16085421161283
             0.5442493     1.1434564825515
 s    1 1.00
             0.1687144                   1
 p    3 1.00
             7.8682724   0.068999095584993
             1.8812885    0.31642397975315
             0.5442493    0.74430825237435
 p    1 1.00
             0.1687144                   1
 d    1 1.00
                   0.8                   1

16 0
 s    6 1.00
             3047.5249  0.0018347001629433
             457.36951    0.01403730124668
             103.94869   0.068842606114048
             29.210155    0.23218442062076
              9.286663    0.46794134155879
              3.163927    0.36231203217765
 s    3 1.00
             7.8682724   -0.11933240861517
             1.8812885   -0.16085421161283
             0.5442493     1.1434564825515
 s    1 1.00
             0.1687144                   1
 p    3 1.00
             7.8682724   0.068999095584993
             1.8812885    0.31642397975315
             0.5442493    0.74430825237435
 p    1 1.00
             0.1687144                   1
 d    1 1.00
                   0.8                   1

17 0
 s    6 1.00
             3047.5249  0.0018347001629433
             457.36951    0.01403730124668
             103.94869   0.068842606114048
             29.210155    0.23218442062076
              9.286663    0.46794134155879
              3.163927    0.36231203217765
 s    3 1.00
             7.8682724   -0.11933240861517
             1.8812885   -0.16085421161283
             0.5442493     1.1434564825515
 s    1 1.00
             0.1687144                   1
 p    3 1.00
             7.8682724   0.068999095584993
             1.8812885    0.31642397975315
             0.5442493    0.74430825237435
 p    1 1.00
             0.1687144                   1
 d    1 1.00
                   0.8                   1

18 0
 s    6 1.00
             3047.5249  0.0018347001629433
             457.36951    0.01403730124668
             103.94869   0.068842606114048
             29.210155    0.23218442062076
              9.286663    0.46794134155879
              3.163927    0.36231203217765
 s    3 1.00
             7.8682724   -0.11933240861517
             1.8812885   -0.16085421161283
             0.5442493     1.1434564825515
 s    1 1.00
             0.1687144                   1
 p    3 1.00
             7.8682724   0.068999095584993
             1.8812885    0.31642397975315
             0.5442493    0.74430825237435
 p    1 1.00
             0.1687144                   1
 d    1 1.00
                   0.8                   1

19 0
 s    6 1.00
             3047.5249  0.0018347001629433
             457.36951    0.01403730124668
             103.94869   0.068842606114048
             29.210155    0.23218442062076
              9.286663    0.46794134155879
              3.163927    0.36231203217765
 s    3 1.00
             7.8682724   -0.11933240861517
             1.8812885   -0.16085421161283
             0.5442493     1.1434564825515
 s    1 1.00
             0.1687144                   1
 p    3 1.00
             7.8682724   0.068999095584993
             1.8812885    0.31642397975315
             0.5442493    0.74430825237435
 p    1 1.00
             0.1687144                   1
 d    1 1.00
                   0.8                   1

20 0
 s    6 1.00
             3047.5249  0.0018347001629433
             457.36951    0.01403730124668
             103.94869   0.068842606114048
             29.210155    0.23218442062076
              9.286663    0.46794134155879
              3.163927    0.36231203217765
 s    3 1.00
             7.8682724   -0.11933240861517
             1.8812885   -0.16085421161283
             0.5442493     1.1434564825515
 s    1 1.00
             0.1687144                   1
 p    3 1.00
             7.8682724   0.068999095584993
             1.8812885    0.31642397975315
             0.5442493    0.74430825237435
 p    1 1.00
             0.1687144                   1
 d    1 1.00
                   0.8                   1

21 0
 s    6 1.00
             3047.5249  0.0018347001629433
             457.36951    0.01403730124668
             103.94869   0.068842606114048
             29.210155    0.23218442062076
              9.286663    0.46794134155879
              3.163927    0.36231203217765
 s    3 1.00
             7.8682724   -0.11933240861517
             1.8812885   -0.16085421161283
             0.5442493     1.1434564825515
 s    1 1.00
             0.1687144                   1
 p    3 1.00
             7.8682724   0.068999095584993
             1.8812885    0.31642397975315
             0.5442493    0.74430825237435
 p    1 1.00
             0.1687144                   1
 d    1 1.00
                   0.8                   1

22 0
 s    3 1.00
             18.731137    0.03349459952309
             2.8253937    0.23472694665786
             0.6401217    0.81375731841339
 s    1 1.00
             0.1612778                   1

23 0
 s    3 1.00
             18.731137    0.03349459952309
             2.8253937    0.23472694665786
             0.6401217    0.81375731841339
 s    1 1.00
             0.1612778                   1

24 0
 s    3 1.00
             18.731137    0.03349459952309
             2.8253937    0.23472694665786
             0.6401217    0.81375731841339
 s    1 1.00
             0.1612778                   1

25 0
 s    3 1.00
             18.731137    0.03349459952309
             2.8253937    0.23472694665786
             0.6401217    0.81375731841339
 s    1 1.00
             0.1612778                   1

26 0
 s    3 1.00
             18.731137    0.03349459952309
             2.8253937    0.23472694665786
             0.6401217    0.81375731841339
 s    1 1.00
             0.1612778                   1

27 0
 s    3 1.00
             18.731137    0.03349459952309
             2.8253937    0.23472694665786
             0.6401217    0.81375731841339
 s    1 1.00
             0.1612778                   1

28 0
 s    3 1.00
             18.731137    0.03349459952309
             2.8253937    0.23472694665786
             0.6401217    0.81375731841339
 s    1 1.00
             0.1612778                   1

29 0
 s    3 1.00
             18.731137    0.03349459952309
             2.8253937    0.23472694665786
             0.6401217    0.81375731841339
 s    1 1.00
             0.1612778                   1

30 0
 s    3 1.00
             18.731137    0.03349459952309
             2.8253937    0.23472694665786
             0.6401217    0.81375731841339
 s    1 1.00
             0.1612778                   1

31 0
 s    3 1.00
             18.731137    0.03349459952309
             2.8253937    0.23472694665786
             0.6401217    0.81375731841339
 s    1 1.00
             0.1612778                   1

32 0
 s    3 1.00
             18.731137    0.03349459952309
             2.8253937    0.23472694665786
             0.6401217    0.81375731841339
 s    1 1.00
             0.1612778                   1

33 0
 s    6 1.00
             3047.5249  0.0018347001629433
             457.36951    0.01403730124668
             103.94869   0.068842606114048
             29.210155    0.23218442062076
              9.286663    0.46794134155879
              3.163927    0.36231203217765
 s    3 1.00
             7.8682724   -0.11933240861517
             1.8812885   -0.16085421161283
             0.5442493     1.1434564825515
 s    1 1.00
             0.1687144                   1
 p    3 1.00
             7.8682724   0.068999095584993
             1.8812885    0.31642397975315
             0.5442493    0.74430825237435
 p    1 1.00
             0.1687144                   1
 d    1 1.00
                   0.8                   1

34 0
 s    6 1.00
             3047.5249  0.0018347001629433
             457.36951    0.01403730124668
             103.94869   0.068842606114048
             29.210155    0.23218442062076
              9.286663    0.46794134155879
              3.163927    0.36231203217765
 s    3 1.00
             7.8682724   -0.11933240861517
             1.8812885   -0.16085421161283
             0.5442493     1.1434564825515
 s    1 1.00
             0.1687144                   1
 p    3 1.00
             7.8682724   0.068999095584993
             1.8812885    0.31642397975315
             0.5442493    0.74430825237435
 p    1 1.00
             0.1687144                   1
 d    1 1.00
                   0.8                   1

35 0
 s    3 1.00
             18.731137    0.03349459952309
             2.8253937    0.23472694665786
             0.6401217    0.81375731841339
 s    1 1.00
             0.1612778                   1

36 0
 s    6 1.00
             3047.5249  0.0018347001629433
             457.36951    0.01403730124668
             103.94869   0.068842606114048
             29.210155    0.23218442062076
              9.286663    0.46794134155879
              3.163927    0.36231203217765
 s    3 1.00
             7.8682724   -0.11933240861517
             1.8812885   -0.16085421161283
             0.5442493     1.1434564825515
 s    1 1.00
             0.1687144                   1
 p    3 1.00
             7.8682724   0.068999095584993
             1.8812885    0.31642397975315
             0.5442493    0.74430825237435
 p    1 1.00
             0.1687144                   1
 d    1 1.00
                   0.8                   1

37 0
 s    3 1.00
             18.731137    0.03349459952309
             2.8253937    0.23472694665786
             0.6401217    0.81375731841339
 s    1 1.00
             0.1612778                   1

38 0
 s    3 1.00
             18.731137    0.03349459952309
             2.8253937    0.23472694665786
             0.6401217    0.81375731841339
 s    1 1.00
             0.1612778                   1

39 0
 s    6 1.00
             3047.5249  0.0018347001629433
             457.36951    0.01403730124668
             103.94869   0.068842606114048
             29.210155    0.23218442062076
              9.286663    0.46794134155879
              3.163927    0.36231203217765
 s    3 1.00
             7.8682724   -0.11933240861517
             1.8812885   -0.16085421161283
             0.5442493     1.1434564825515
 s    1 1.00
             0.1687144                   1
 p    3 1.00
             7.8682724   0.068999095584993
             1.8812885    0.31642397975315
             0.5442493    0.74430825237435
 p    1 1.00
             0.1687144                   1
 d    1 1.00
                   0.8                   1

40 0
 s    6 1.00
             3047.5249  0.0018347001629433
             457.36951    0.01403730124668
             103.94869   0.068842606114048
             29.210155    0.23218442062076
              9.286663    0.46794134155879
              3.163927    0.36231203217765
 s    3 1.00
             7.8682724   -0.11933240861517
             1.8812885   -0.16085421161283
             0.5442493     1.1434564825515
 s    1 1.00
             0.1687144                   1
 p    3 1.00
             7.8682724   0.068999095584993
             1.8812885    0.31642397975315
             0.5442493    0.74430825237435
 p    1 1.00
             0.1687144                   1
 d    1 1.00
                   0.8                   1

41 0
 s    3 1.00
             18.731137    0.03349459952309
             2.8253937    0.23472694665786
             0.6401217    0.81375731841339
 s    1 1.00
             0.1612778                   1

42 0
 s    6 1.00
             5484.6717   0.001831099805527
             825.23495   0.013950098518422
             188.04696    0.06844509273075
               52.9645    0.23271427528445
              16.89757    0.47019295006289
             5.7996353    0.35852086192309
 s    3 1.00
             15.539616   -0.11077750382508
             3.5999336   -0.14802630511126
             1.0137618     1.1307670390447
 s    1 1.00
             0.2700058                   1
 p    3 1.00
             15.539616   0.070874299543311
             3.5999336    0.33975279781076
             1.0137618    0.72715859531445
 p    1 1.00
             0.2700058                   1
 d    1 1.00
                   0.8                   1

43 0
 s    3 1.00
             18.731137    0.03349459952309
             2.8253937    0.23472694665786
             0.6401217    0.81375731841339
 s    1 1.00
             0.1612778                   1

[5d]
[7f]
[9g]

[MO]
 Sym= A
 Ene=               0
 Spin= Alpha
 Occup=    1.00000
   1    9.7284718964741e-07
   2    1.8989036139286e-05
   3    -0.00011313600124624
   4    5.6165593271608e-06
   5    -1.5959452597172e-05
   6    -1.23610129904e-05
   7    4.0144217474247e-05
   8    8.9656978878305e-06
   9    0.00022974013328019
  10    2.2024778955374e-06
  11    -8.4777241089915e-06
  12    -3.5996186352613e-06
  13    -1.158236094021e-05
  14    6.2454836244866e-06
  15    7.1404457482242e-06
  16    -2.8119827888688e-05
  17    -5.4949139616256e-06
  18    -0.00013066388667139
  19    -0.00056863804453215
  20    -4.32586050761e-05
  21    1.3160633033131e-05
  22    6.7898921082839e-05
  23    -0.00015571803289788
  24    3.4158247293581e-05
  25    0.00067250319007195
  26    -2.519373136946e-05
  27    2.151813589241e-05
  28    4.9457148823219e-07
  29    -4.0875798864335e-05
  30    1.7663235676993e-05
  31    7.6673537439282e-06
  32    -1.1369787372467e-05
  33    -5.2490600714934e-05
  34    -0.00033898975897035
  35    0.0043231896422531
  36    6.6036488334587e-05
  37    -1.6513657297187e-05
  38    -0.00013400394433387
  39    -8.6876718102933e-05
  40    -0.0018186704370207
  41    -0.00078360641824108
  42    5.972380128947e-05
  43    -8.1366658686227e-05
  44    8.7784213037134e-05
  45    -4.1121339599198e-05
  46    -1.0308298859172e-05
  47    1.3187105640671e-05
  48    0.00027388783665272
  49    -4.8372894731014e-05
  50    -0.00019693395712102
  51    -0.0034897358863704
  52    -0.0001145175278049
  53    0.00020564601899451
  54    0.00031749042765159
  55    0.00079559354896175
  56    -0.0024304563355102
  57    -0.0026707660908076
  58    -2.0538575204379e-05
  59    -6.0830292276803e-05
  60    -0.00018268060917693
  61    -1.9098786844792e-06
  62    0.00011504881950426
  63    -0.00030142391601708
  64    -7.6361313841223e-05
  65    2.0683498951264e-07
  66    4.4927214496635e-07
  67    2.7417551508701e-08
  68    3.7181912028493e-07
  69    -2.7710240564408e-06
  70    -1.4930403862886e-07
  71    2.0360287921166e-07
  72    -2.0409921434716e-08
  73    4.001621583637e-08
  74    -1.3887437320937e-06
  75    -4.2538150152766e-07
  76    5.930050457901e-08
  77    1.1035110368552e-07
  78    -3.6265778354623e-08
  79    -6.6841091318085e-08
  80    8.6129124428628e-08
  81    -4.1088260487638e-08
  82    -9.2481999661182e-08
  83    -6.5770040093973e-09
  84    1.5627270106715e-07
  85    8.8101748333432e-06
  86    -3.911559735757e-07
  87    -1.4350773597488e-07
  88    -6.1874739303085e-07
  89    -2.479327945311e-06
  90    3.5364472054719e-06
  91    -1.9473177741761e-06
  92    -1.3976513383988e-07
  93    1.8822823701262e-07
  94    -2.0078790841437e-07
  95    -3.072326208432e-08
  96    1.122712483167e-07
  97    -4.3057412986662e-07
  98    -7.7804900409461e-07
  99    8.5309397510419e-08
 100    9.155382458146e-07
 101    7.0392489673172e-08
 102    1.0003962336378e-06
 103    -1.0272690214851e-05
 104    -3.0867379963471e-08
 105    7.9079595529452e-07
 106      2.0000060388e-07
 107    1.3423815309001e-05
 108    -1.1119121968712e-05
 109    -2.0358632042489e-05
 110    5.0350166673637e-07
 111    4.6418324967003e-07
 112    -2.1438333732551e-07
 113    -5.2819208482565e-07
 114    2.7345502909871e-07
 115    4.3500898004448e-07
 116    4.1773630720553e-06
 117    -2.9698638615345e-05
 118    4.8382036760986e-07
 119    -8.4550144414808e-07
 120    -7.3374059544622e-07
 121    5.790053877495e-06
 122    9.0466713120228e-08
 123    9.3967304743705e-07
 124    5.5087456684331e-08
 125    2.1728013445127e-08
 126    1.4259051417032e-07
 127    2.965494070883e-08
 128    2.0045693101447e-07
 129    7.6994125182701e-07
 130    7.3643389779736e-06
 131    -2.9516293573613e-05
 132    2.7817117712515e-07
 133    9.5174600061677e-07
 134    -3.2492949020892e-06
 135    1.3882260299466e-05
 136    -4.5200528155748e-06
 137    5.4138130367336e-05
 138    -1.7622267747741e-06
 139    -9.5498509231567e-07
 140    -3.5179480143646e-08
 141    -3.2664594487315e-07
 142    -1.259532432652e-08
 143    1.7966750063306e-07
 144    1.7297036239124e-06
 145    -1.0836531431115e-05
 146    -3.1755974605244e-07
 147    -8.2170548436188e-07
 148    1.219339630457e-07
 149    -7.066386729537e-06
 150    9.880063432068e-06
 151    -1.6533332303227e-06
 152    7.9497174639969e-07
 153    2.2818808298643e-07
 154    -1.0622256807858e-07
 155    -5.6285665356906e-07
 156    3.5497860264381e-07
 157    -7.4679912681959e-09
 158    -1.3567495969127e-07
 159    -5.1315300460645e-06
 160    -6.3105792042035e-07
 161    2.8313010747652e-07
 162    -1.8160229559175e-07
 163    3.265538988409e-06
 164    1.7183323967267e-06
 165    -3.8342569814836e-07
 166    -1.5910018746224e-07
 167    -2.8070496520523e-08
 168    2.9863730316868e-08
 169    1.4039148236249e-07
 170    -8.3476010376289e-08
 171    -2.611388300356e-08
 172    3.0052936946597e-07
 173    2.5760332223182e-06
 174    5.685138431917e-07
 175    7.3023478841427e-08
 176    -5.1570579893731e-07
 177    1.4184413203834e-06
 178    -4.3622899403824e-07
 179    2.3966187600657e-06
 180    -1.7721489883343e-07
 181    -4.7710244872529e-08
 182    5.5915686764007e-08
 183    3.6696061875845e-07
 184    -4.6381963862252e-08
 185    1.8977612816244e-07
 186    1.9252585174811e-06
 187    -3.1061458716709e-07
 188    1.3787950703749e-07
 189    -1.0134755236749e-07
 190    -7.984830249442e-07
 191    -2.1520251089472e-06
 192    -2.0378670481789e-06
 193    4.1007639415859e-06
 194    -3.0378021949853e-07
 195    9.2502453668949e-08
 196    7.4386834873349e-08
 197    -5.9547026100685e-08
 198    8.8147632694931e-08
 199    5.2729394720512e-07
 200    1.4360542773139e-06
 201    -1.0609590689511e-07
 202    -2.4990690003019e-06
 203    1.4317868247071e-06
 204    1.6366207066325e-06
 205    4.8422635234359e-07
 206    1.8881815116197e-06
 207    -1.7266596936813e-06
 208    1.4623479016845e-05
 209    -5.4673906963973e-07
 210    3.2166797113138e-06
 211    -5.5997771590326e-08
 212    -1.921381905552e-06
 213    1.8372448665323e-07
 214    1.4039695278204e-06
 215    2.0929651821467e-07
 216    1.1128275056978e-06
 217    -2.4440583468775e-07
 218    -8.4040954783691e-07
 219    -9.3870677228188e-08
 220    -1.1093764464118e-06
 221    3.4425003048785e-07
 222    5.4861231590787e-06
 223    1.4352631010702e-05
 224    9.1477833576598e-07
 225    -4.902015636741e-07
 226    -2.575858519852e-06
 227    -1.4784918259979e-05
 228    -1.6029035760993e-05
 229    4.6356048906032e-05
 230    1.3277374556488e-06
 231    2.1937343295148e-06
 232    1.3133411098731e-06
 233    -1.0945301600795e-06
 234    -2.2357597186831e-06
 235    1.8039510415834e-06
 236    1.4634775553879e-05
 237    -9.6421761076779e-05
 238    8.2531693259612e-07
 239    -3.2623772323905e-06
 240    -1.3454545772938e-06
 241    3.4674025445951e-05
 242    1.4953475204534e-05
 243    9.9788787164632e-05
 244    -4.3140828450146e-06
 245    -5.5432754487921e-06
 246    -2.1492954631306e-06
 247    -2.1355413057742e-06
 248    -2.6156228167927e-06
 249    1.4253890160236e-06
 250    -1.1980988304649e-05
 251    5.9135549346412e-07
 252    1.6602659977236e-05
 253    -4.780492304569e-05
 254    -5.0807990164931e-06
 255    1.339143881917e-05
 256    -9.3674305329259e-06
 257    -2.4146201664549e-05
 258    -9.675993392947e-05
 259    0.00018541262072487
 260    1.6994371353787e-06
 261    8.6215049965485e-06
 262    5.6105205989823e-06
 263    -4.0363776079295e-06
 264    -7.3285013678826e-06
 265    3.8874130814204e-06
 266    -2.3403328653353e-05
 267    9.0048162019827e-06
 268    -2.7619994108608e-05
 269    8.3790671283642e-06
 270    4.5400073271734e-05
 271    -0.0030621497788466
 272    4.6754259362191e-05
 273    0.00018882290209625
 274    -3.2377035284907e-07
 275    -0.0019074394861646
 276    -0.00060058838532419
 277    0.0033325141009582
 278    -0.00027837359078077
 279     0.000169942431511
 280    -0.00011283362386759