[Molden Format]
made by pyscf v[2.0.1]
[Atoms] (AU)
C   1   6     0.69100024069495     0.64692934212497    -3.48223131168734
H   2   1     2.68052439835215     1.13355088667581    -3.25784032595959
C   3   6    -0.36286361514353     0.85440132525350    -5.97030179416329
H   4   1    -2.35448549056350     0.36322488588432    -6.17995817799568
C   5   6     0.93697958950647     1.61209284601065    -8.05828437675987
H   6   1     2.92721069186250     2.10853558287052    -7.87534295441726
C   7   6    -0.17413039189613     1.80008207487984   -10.52534301739428
H   8   1    -2.16943049770440     1.29533627648343   -10.67939296478009
H   9   1     1.55630230933264    -1.92953025311848    12.99630010417381
C   10   6     0.75233899783373    -2.21270439606859    11.10705728099195
H   11   1    -0.43433408176896    -3.90944857543337    11.22216085348160
C   12   6     2.86362581169447    -2.63237380608325     9.17926416459635
H   13   1     4.39038949906562    -1.24955421532309     9.49899813488174
H   14   1     3.74629220184371    -4.48798724298246     9.47414880962803
C   15   6     2.02478325622942    -2.42177285713224     6.44560829586187
C   16   6     3.88048732732831    -3.58795445236593     4.61402886975252
C   17   6    -0.18412382264649    -1.30464291231236     5.76021113881606
C   18   6    -2.10044360460382    -0.26837831862807     7.71610340970501
C   19   6    -3.08956938678556     2.35282328352614     6.88693925042618
C   20   6    -4.37372924094212    -2.09766595985142     7.93610724215954
C   21   6    -0.83850430593104     0.06372213486551    10.33002307643668
H   22   1     0.38411922142983     1.74281358590180    10.27380136539346
H   23   1    -2.30980003011276     0.45460143923765    11.73986301804329
H   24   1     4.58527064636731    -5.38706904479673     5.36778158023404
H   25   1     5.54944938091628    -2.37631462201630     4.35398898404058
H   26   1     3.06633019144754    -3.94118377051822     2.75255466032570
H   27   1    -4.17727778763546     2.26573369145191     5.12914900957504
H   28   1    -1.52662344935358     3.68001877441469     6.59540397151878
H   29   1    -4.32916174393862     3.13643051473529     8.35225460094913
H   30   1    -5.32329548507875    -2.36691813603695     6.11583672741581
H   31   1    -5.77989366598289    -1.33896741838552     9.25748940451935
H   32   1    -3.79310905209871    -3.96389819308585     8.61386170106276
C   33   6    -1.01100794815762    -1.06331657313199     3.11929490450892
C   34   6     0.37686231029920    -0.33275864510088     1.09165013596992
H   35   1    -3.01671213911428    -1.40297922289257     2.77827895090755
C   36   6    -0.64382707979748    -0.11591880174763    -1.42063131255788
H   37   1     2.35569259790262     0.17174499287298     1.33641070253857
H   38   1    -2.63317482972383    -0.60229203504227    -1.66119700396716
C   39   6     1.04406642127022     2.54697835791677   -12.65486785204246
C   40   6    -0.25769856063703     2.67711278008941   -15.08293200861523
H   41   1     3.03094671002655     3.07573165426063   -12.63261900496242
O   42   8     0.71886931482866     3.33224024015006   -17.06735820381613
H   43   1    -2.28855418566595     2.11893682007881   -15.01778643592878
[GTO]
1 0
 s    6 1.00
             3047.5249  0.0018347001629433
             457.36951    0.01403730124668
             103.94869   0.068842606114048
             29.210155    0.23218442062076
              9.286663    0.46794134155879
              3.163927    0.36231203217765
 s    3 1.00
             7.8682724   -0.11933240861517
             1.8812885   -0.16085421161283
             0.5442493     1.1434564825515
 s    1 1.00
             0.1687144                   1
 p    3 1.00
             7.8682724   0.068999095584993
             1.8812885    0.31642397975315
             0.5442493    0.74430825237435
 p    1 1.00
             0.1687144                   1
 d    1 1.00
                   0.8                   1

2 0
 s    3 1.00
             18.731137    0.03349459952309
             2.8253937    0.23472694665786
             0.6401217    0.81375731841339
 s    1 1.00
             0.1612778                   1

3 0
 s    6 1.00
             3047.5249  0.0018347001629433
             457.36951    0.01403730124668
             103.94869   0.068842606114048
             29.210155    0.23218442062076
              9.286663    0.46794134155879
              3.163927    0.36231203217765
 s    3 1.00
             7.8682724   -0.11933240861517
             1.8812885   -0.16085421161283
             0.5442493     1.1434564825515
 s    1 1.00
             0.1687144                   1
 p    3 1.00
             7.8682724   0.068999095584993
             1.8812885    0.31642397975315
             0.5442493    0.74430825237435
 p    1 1.00
             0.1687144                   1
 d    1 1.00
                   0.8                   1

4 0
 s    3 1.00
             18.731137    0.03349459952309
             2.8253937    0.23472694665786
             0.6401217    0.81375731841339
 s    1 1.00
             0.1612778                   1

5 0
 s    6 1.00
             3047.5249  0.0018347001629433
             457.36951    0.01403730124668
             103.94869   0.068842606114048
             29.210155    0.23218442062076
              9.286663    0.46794134155879
              3.163927    0.36231203217765
 s    3 1.00
             7.8682724   -0.11933240861517
             1.8812885   -0.16085421161283
             0.5442493     1.1434564825515
 s    1 1.00
             0.1687144                   1
 p    3 1.00
             7.8682724   0.068999095584993
             1.8812885    0.31642397975315
             0.5442493    0.74430825237435
 p    1 1.00
             0.1687144                   1
 d    1 1.00
                   0.8                   1

6 0
 s    3 1.00
             18.731137    0.03349459952309
             2.8253937    0.23472694665786
             0.6401217    0.81375731841339
 s    1 1.00
             0.1612778                   1

7 0
 s    6 1.00
             3047.5249  0.0018347001629433
             457.36951    0.01403730124668
             103.94869   0.068842606114048
             29.210155    0.23218442062076
              9.286663    0.46794134155879
              3.163927    0.36231203217765
 s    3 1.00
             7.8682724   -0.11933240861517
             1.8812885   -0.16085421161283
             0.5442493     1.1434564825515
 s    1 1.00
             0.1687144                   1
 p    3 1.00
             7.8682724   0.068999095584993
             1.8812885    0.31642397975315
             0.5442493    0.74430825237435
 p    1 1.00
             0.1687144                   1
 d    1 1.00
                   0.8                   1

8 0
 s    3 1.00
             18.731137    0.03349459952309
             2.8253937    0.23472694665786
             0.6401217    0.81375731841339
 s    1 1.00
             0.1612778                   1

9 0
 s    3 1.00
             18.731137    0.03349459952309
             2.8253937    0.23472694665786
             0.6401217    0.81375731841339
 s    1 1.00
             0.1612778                   1

10 0
 s    6 1.00
             3047.5249  0.0018347001629433
             457.36951    0.01403730124668
             103.94869   0.068842606114048
             29.210155    0.23218442062076
              9.286663    0.46794134155879
              3.163927    0.36231203217765
 s    3 1.00
             7.8682724   -0.11933240861517
             1.8812885   -0.16085421161283
             0.5442493     1.1434564825515
 s    1 1.00
             0.1687144                   1
 p    3 1.00
             7.8682724   0.068999095584993
             1.8812885    0.31642397975315
             0.5442493    0.74430825237435
 p    1 1.00
             0.1687144                   1
 d    1 1.00
                   0.8                   1

11 0
 s    3 1.00
             18.731137    0.03349459952309
             2.8253937    0.23472694665786
             0.6401217    0.81375731841339
 s    1 1.00
             0.1612778                   1

12 0
 s    6 1.00
             3047.5249  0.0018347001629433
             457.36951    0.01403730124668
             103.94869   0.068842606114048
             29.210155    0.23218442062076
              9.286663    0.46794134155879
              3.163927    0.36231203217765
 s    3 1.00
             7.8682724   -0.11933240861517
             1.8812885   -0.16085421161283
             0.5442493     1.1434564825515
 s    1 1.00
             0.1687144                   1
 p    3 1.00
             7.8682724   0.068999095584993
             1.8812885    0.31642397975315
             0.5442493    0.74430825237435
 p    1 1.00
             0.1687144                   1
 d    1 1.00
                   0.8                   1

13 0
 s    3 1.00
             18.731137    0.03349459952309
             2.8253937    0.23472694665786
             0.6401217    0.81375731841339
 s    1 1.00
             0.1612778                   1

14 0
 s    3 1.00
             18.731137    0.03349459952309
             2.8253937    0.23472694665786
             0.6401217    0.81375731841339
 s    1 1.00
             0.1612778                   1

15 0
 s    6 1.00
             3047.5249  0.0018347001629433
             457.36951    0.01403730124668
             103.94869   0.068842606114048
             29.210155    0.23218442062076
              9.286663    0.46794134155879
              3.163927    0.36231203217765
 s    3 1.00
             7.8682724   -0.11933240861517
             1.8812885   -0.16085421161283
             0.5442493     1.1434564825515
 s    1 1.00
             0.1687144                   1
 p    3 1.00
             7.8682724   0.068999095584993
             1.8812885    0.31642397975315
             0.5442493    0.74430825237435
 p    1 1.00
             0.1687144                   1
 d    1 1.00
                   0.8                   1

16 0
 s    6 1.00
             3047.5249  0.0018347001629433
             457.36951    0.01403730124668
             103.94869   0.068842606114048
             29.210155    0.23218442062076
              9.286663    0.46794134155879
              3.163927    0.36231203217765
 s    3 1.00
             7.8682724   -0.11933240861517
             1.8812885   -0.16085421161283
             0.5442493     1.1434564825515
 s    1 1.00
             0.1687144                   1
 p    3 1.00
             7.8682724   0.068999095584993
             1.8812885    0.31642397975315
             0.5442493    0.74430825237435
 p    1 1.00
             0.1687144                   1
 d    1 1.00
                   0.8                   1

17 0
 s    6 1.00
             3047.5249  0.0018347001629433
             457.36951    0.01403730124668
             103.94869   0.068842606114048
             29.210155    0.23218442062076
              9.286663    0.46794134155879
              3.163927    0.36231203217765
 s    3 1.00
             7.8682724   -0.11933240861517
             1.8812885   -0.16085421161283
             0.5442493     1.1434564825515
 s    1 1.00
             0.1687144                   1
 p    3 1.00
             7.8682724   0.068999095584993
             1.8812885    0.31642397975315
             0.5442493    0.74430825237435
 p    1 1.00
             0.1687144                   1
 d    1 1.00
                   0.8                   1

18 0
 s    6 1.00
             3047.5249  0.0018347001629433
             457.36951    0.01403730124668
             103.94869   0.068842606114048
             29.210155    0.23218442062076
              9.286663    0.46794134155879
              3.163927    0.36231203217765
 s    3 1.00
             7.8682724   -0.11933240861517
             1.8812885   -0.16085421161283
             0.5442493     1.1434564825515
 s    1 1.00
             0.1687144                   1
 p    3 1.00
             7.8682724   0.068999095584993
             1.8812885    0.31642397975315
             0.5442493    0.74430825237435
 p    1 1.00
             0.1687144                   1
 d    1 1.00
                   0.8                   1

19 0
 s    6 1.00
             3047.5249  0.0018347001629433
             457.36951    0.01403730124668
             103.94869   0.068842606114048
             29.210155    0.23218442062076
              9.286663    0.46794134155879
              3.163927    0.36231203217765
 s    3 1.00
             7.8682724   -0.11933240861517
             1.8812885   -0.16085421161283
             0.5442493     1.1434564825515
 s    1 1.00
             0.1687144                   1
 p    3 1.00
             7.8682724   0.068999095584993
             1.8812885    0.31642397975315
             0.5442493    0.74430825237435
 p    1 1.00
             0.1687144                   1
 d    1 1.00
                   0.8                   1

20 0
 s    6 1.00
             3047.5249  0.0018347001629433
             457.36951    0.01403730124668
             103.94869   0.068842606114048
             29.210155    0.23218442062076
              9.286663    0.46794134155879
              3.163927    0.36231203217765
 s    3 1.00
             7.8682724   -0.11933240861517
             1.8812885   -0.16085421161283
             0.5442493     1.1434564825515
 s    1 1.00
             0.1687144                   1
 p    3 1.00
             7.8682724   0.068999095584993
             1.8812885    0.31642397975315
             0.5442493    0.74430825237435
 p    1 1.00
             0.1687144                   1
 d    1 1.00
                   0.8                   1

21 0
 s    6 1.00
             3047.5249  0.0018347001629433
             457.36951    0.01403730124668
             103.94869   0.068842606114048
             29.210155    0.23218442062076
              9.286663    0.46794134155879
              3.163927    0.36231203217765
 s    3 1.00
             7.8682724   -0.11933240861517
             1.8812885   -0.16085421161283
             0.5442493     1.1434564825515
 s    1 1.00
             0.1687144                   1
 p    3 1.00
             7.8682724   0.068999095584993
             1.8812885    0.31642397975315
             0.5442493    0.74430825237435
 p    1 1.00
             0.1687144                   1
 d    1 1.00
                   0.8                   1

22 0
 s    3 1.00
             18.731137    0.03349459952309
             2.8253937    0.23472694665786
             0.6401217    0.81375731841339
 s    1 1.00
             0.1612778                   1

23 0
 s    3 1.00
             18.731137    0.03349459952309
             2.8253937    0.23472694665786
             0.6401217    0.81375731841339
 s    1 1.00
             0.1612778                   1

24 0
 s    3 1.00
             18.731137    0.03349459952309
             2.8253937    0.23472694665786
             0.6401217    0.81375731841339
 s    1 1.00
             0.1612778                   1

25 0
 s    3 1.00
             18.731137    0.03349459952309
             2.8253937    0.23472694665786
             0.6401217    0.81375731841339
 s    1 1.00
             0.1612778                   1

26 0
 s    3 1.00
             18.731137    0.03349459952309
             2.8253937    0.23472694665786
             0.6401217    0.81375731841339
 s    1 1.00
             0.1612778                   1

27 0
 s    3 1.00
             18.731137    0.03349459952309
             2.8253937    0.23472694665786
             0.6401217    0.81375731841339
 s    1 1.00
             0.1612778                   1

28 0
 s    3 1.00
             18.731137    0.03349459952309
             2.8253937    0.23472694665786
             0.6401217    0.81375731841339
 s    1 1.00
             0.1612778                   1

29 0
 s    3 1.00
             18.731137    0.03349459952309
             2.8253937    0.23472694665786
             0.6401217    0.81375731841339
 s    1 1.00
             0.1612778                   1

30 0
 s    3 1.00
             18.731137    0.03349459952309
             2.8253937    0.23472694665786
             0.6401217    0.81375731841339
 s    1 1.00
             0.1612778                   1

31 0
 s    3 1.00
             18.731137    0.03349459952309
             2.8253937    0.23472694665786
             0.6401217    0.81375731841339
 s    1 1.00
             0.1612778                   1

32 0
 s    3 1.00
             18.731137    0.03349459952309
             2.8253937    0.23472694665786
             0.6401217    0.81375731841339
 s    1 1.00
             0.1612778                   1

33 0
 s    6 1.00
             3047.5249  0.0018347001629433
             457.36951    0.01403730124668
             103.94869   0.068842606114048
             29.210155    0.23218442062076
              9.286663    0.46794134155879
              3.163927    0.36231203217765
 s    3 1.00
             7.8682724   -0.11933240861517
             1.8812885   -0.16085421161283
             0.5442493     1.1434564825515
 s    1 1.00
             0.1687144                   1
 p    3 1.00
             7.8682724   0.068999095584993
             1.8812885    0.31642397975315
             0.5442493    0.74430825237435
 p    1 1.00
             0.1687144                   1
 d    1 1.00
                   0.8                   1

34 0
 s    6 1.00
             3047.5249  0.0018347001629433
             457.36951    0.01403730124668
             103.94869   0.068842606114048
             29.210155    0.23218442062076
              9.286663    0.46794134155879
              3.163927    0.36231203217765
 s    3 1.00
             7.8682724   -0.11933240861517
             1.8812885   -0.16085421161283
             0.5442493     1.1434564825515
 s    1 1.00
             0.1687144                   1
 p    3 1.00
             7.8682724   0.068999095584993
             1.8812885    0.31642397975315
             0.5442493    0.74430825237435
 p    1 1.00
             0.1687144                   1
 d    1 1.00
                   0.8                   1

35 0
 s    3 1.00
             18.731137    0.03349459952309
             2.8253937    0.23472694665786
             0.6401217    0.81375731841339
 s    1 1.00
             0.1612778                   1

36 0
 s    6 1.00
             3047.5249  0.0018347001629433
             457.36951    0.01403730124668
             103.94869   0.068842606114048
             29.210155    0.23218442062076
              9.286663    0.46794134155879
              3.163927    0.36231203217765
 s    3 1.00
             7.8682724   -0.11933240861517
             1.8812885   -0.16085421161283
             0.5442493     1.1434564825515
 s    1 1.00
             0.1687144                   1
 p    3 1.00
             7.8682724   0.068999095584993
             1.8812885    0.31642397975315
             0.5442493    0.74430825237435
 p    1 1.00
             0.1687144                   1
 d    1 1.00
                   0.8                   1

37 0
 s    3 1.00
             18.731137    0.03349459952309
             2.8253937    0.23472694665786
             0.6401217    0.81375731841339
 s    1 1.00
             0.1612778                   1

38 0
 s    3 1.00
             18.731137    0.03349459952309
             2.8253937    0.23472694665786
             0.6401217    0.81375731841339
 s    1 1.00
             0.1612778                   1

39 0
 s    6 1.00
             3047.5249  0.0018347001629433
             457.36951    0.01403730124668
             103.94869   0.068842606114048
             29.210155    0.23218442062076
              9.286663    0.46794134155879
              3.163927    0.36231203217765
 s    3 1.00
             7.8682724   -0.11933240861517
             1.8812885   -0.16085421161283
             0.5442493     1.1434564825515
 s    1 1.00
             0.1687144                   1
 p    3 1.00
             7.8682724   0.068999095584993
             1.8812885    0.31642397975315
             0.5442493    0.74430825237435
 p    1 1.00
             0.1687144                   1
 d    1 1.00
                   0.8                   1

40 0
 s    6 1.00
             3047.5249  0.0018347001629433
             457.36951    0.01403730124668
             103.94869   0.068842606114048
             29.210155    0.23218442062076
              9.286663    0.46794134155879
              3.163927    0.36231203217765
 s    3 1.00
             7.8682724   -0.11933240861517
             1.8812885   -0.16085421161283
             0.5442493     1.1434564825515
 s    1 1.00
             0.1687144                   1
 p    3 1.00
             7.8682724   0.068999095584993
             1.8812885    0.31642397975315
             0.5442493    0.74430825237435
 p    1 1.00
             0.1687144                   1
 d    1 1.00
                   0.8                   1

41 0
 s    3 1.00
             18.731137    0.03349459952309
             2.8253937    0.23472694665786
             0.6401217    0.81375731841339
 s    1 1.00
             0.1612778                   1

42 0
 s    6 1.00
             5484.6717   0.001831099805527
             825.23495   0.013950098518422
             188.04696    0.06844509273075
               52.9645    0.23271427528445
              16.89757    0.47019295006289
             5.7996353    0.35852086192309
 s    3 1.00
             15.539616   -0.11077750382508
             3.5999336   -0.14802630511126
             1.0137618     1.1307670390447
 s    1 1.00
             0.2700058                   1
 p    3 1.00
             15.539616   0.070874299543311
             3.5999336    0.33975279781076
             1.0137618    0.72715859531445
 p    1 1.00
             0.2700058                   1
 d    1 1.00
                   0.8                   1

43 0
 s    3 1.00
             18.731137    0.03349459952309
             2.8253937    0.23472694665786
             0.6401217    0.81375731841339
 s    1 1.00
             0.1612778                   1

[5d]
[7f]
[9g]

[MO]
 Sym= A
 Ene=               0
 Spin= Alpha
 Occup=    1.00000
   1    -5.1916068102912e-06
   2    -6.8387996380432e-05
   3    -6.3384574691588e-05
   4    -2.0385409365211e-05
   5    -1.4585690595539e-05
   6    4.6553614744921e-05
   7    0.00027922089348432
   8    0.00028215216578238
   9    -0.0010577857463018
  10    2.416059844989e-05
  11    3.919567331504e-05
  12    8.0707053676116e-07
  13    8.2863840246746e-06
  14    -3.5022221637768e-06
  15    -5.8468196144283e-05
  16    -2.9389387636858e-05
  17    1.7916208154177e-05
  18    0.00011373248949139
  19    -0.002243976766743
  20    -1.0286384894967e-06
  21    -1.0294717543708e-05
  22    5.0995649292969e-05
  23    -0.00042872394378034
  24    -0.00024739738180499
  25    0.00067654250481753
  26    -6.4751202916125e-05
  27    9.0010777854944e-06
  28    2.4272825541276e-05
  29    5.6487342407334e-06
  30    6.6289734819168e-09
  31    5.6095100705127e-06
  32    0.00014011661262529
  33    -5.11847762484e-05
  34    -0.00041720474557288
  35    0.0055365108882291
  36    4.6041701245485e-05
  37    2.5467316639418e-05
  38    -6.6763129249574e-05
  39    -0.0020944261029632
  40    -0.0002873951176028
  41    -0.0013869383257633
  42    0.00015959316933393
  43    6.879512629794e-05
  44    -4.7163119108706e-05
  45    4.4446238352413e-05
  46    1.3638120600258e-05
  47    4.5020319225005e-05
  48    0.00031980639501562
  49    -2.3937304541345e-05
  50    8.1942157372809e-06
  51    -0.0040954686823816
  52    0.00016223910460801
  53    -8.5618074995627e-06
  54    0.00026476978027254
  55    -0.0019232633017732
  56    0.00023883698384144
  57    -0.0038304671998566
  58    -0.00011467769380794
  59    -0.00020479849966962
  60    -3.4799323654338e-05
  61    6.6131211643284e-05
  62    8.3705639530566e-05
  63    -0.00023841350712112
  64    -0.00010967971810158
  65    -1.5877263297395e-07
  66    2.1335513937384e-06
  67    -1.6820639302289e-07
  68    -1.7236991611772e-06
  69    9.9478006326257e-07
  70    1.005743939939e-06
  71    -1.0542950213048e-06
  72    4.4133555260032e-07
  73    1.9845938510574e-06
  74    7.0787342437605e-07
  75    -3.1392355758018e-06
  76    2.7169809489708e-07
  77    4.5401792648192e-08
  78    1.7995170303469e-07
  79    1.5873594661102e-07
  80    7.0128411568008e-08
  81    4.2628697620193e-08
  82     5.27073285029e-07
  83    3.0697213210514e-07
  84    2.426390061547e-06
  85    -1.2117281007826e-05
  86    3.6432217950468e-07
  87    1.3135113530589e-07
  88    7.989335681111e-07
  89    6.5310155055044e-06
  90    -1.0168056779772e-05
  91    2.5386450650773e-07
  92    -1.4810391929649e-07
  93    -5.8152578548912e-07
  94    1.0593427629641e-06
  95    -3.8006096590967e-07
  96    -4.6743632120802e-09
  97    1.5330198157175e-06
  98    7.6853231886329e-07
  99    -4.2670046164919e-07
 100    -1.8329510887768e-06
 101    -8.1069287819407e-07
 102    -3.7590076723213e-06
 103    0.00010236766498303
 104    -1.1390461894766e-06
 105    2.6284728214906e-07
 106    -2.6234699890487e-06
 107    -4.0387653426912e-05
 108    4.0041826529196e-05
 109    -7.0768053495197e-06
 110    8.6536720846795e-07
 111    1.227274616356e-06
 112    -5.4193417700689e-07
 113    -2.4362786650848e-07
 114    -1.8862163656027e-06
 115    2.8238442128846e-07
 116     4.04837925018e-06
 117    -2.991768318888e-06
 118    -6.7820013867442e-07
 119    2.6872612587481e-06
 120    -2.0158802645666e-06
 121    4.8910476690301e-06
 122    -1.6362129980238e-05
 123    1.6198340963215e-05
 124    6.4669221993607e-07
 125    -4.7299734259052e-07
 126    -9.0013174502409e-07
 127    -3.4761010153267e-07
 128    -1.4985296555843e-07
 129    4.3107432082102e-08
 130    2.0917412765159e-06
 131    5.3929768917262e-05
 132    6.1794304455362e-06
 133    1.1245963796414e-06
 134    -4.2637751019986e-06
 135    -0.00013268045361818
 136    1.7137292149637e-05
 137    -4.0904777779379e-05
 138    1.5464696329699e-06
 139    9.7830683237344e-07
 140    2.9999378603942e-06
 141    -3.948131679261e-07
 142    1.9699867442343e-06
 143    1.6227889124309e-07
 144    -1.0421499310061e-06
 145    -4.6312686050666e-05
 146    -4.7213457839013e-07
 147    -9.6965819744882e-07
 148    5.458974167568e-06
 149    -1.4034927076869e-05
 150    3.6538074800604e-05
 151    -1.316437812116e-05
 152    -1.3006191221088e-06
 153    3.6935912269451e-07
 154    -2.1941008392554e-06
 155    -4.6892126633804e-08
 156    -9.9449214040752e-07
 157    6.7652028933918e-07
 158    5.4778701345101e-06
 159    -2.9938007831241e-05
 160    6.0912106337496e-07
 161    7.0687216398285e-07
 162    -9.1256312167184e-07
 163    -1.1362292863608e-05
 164    1.1443866332993e-05
 165    1.405460668382e-06
 166    1.0376731044883e-06
 167    -1.6611908301444e-07
 168    2.4186304368907e-07
 169    4.064405160359e-07
 170    8.3812364604663e-07
 171    4.683275948012e-08
 172    4.6183180873115e-07
 173    3.2521661198088e-06
 174    -1.9256271772127e-07
 175    -2.0149890798301e-07
 176    1.4899390131779e-06
 177    1.2238500145762e-05
 178    4.3181757683591e-06
 179    4.6949320075901e-06
 180    -2.7702374330774e-07
 181    1.4849361023123e-06
 182    -1.1661384841303e-07
 183    7.0941763932172e-07
 184    1.1485936396964e-06
 185    -8.2431780828998e-07
 186    -6.7621728222133e-06
 187    3.0341677419218e-05
 188    -1.3748165646962e-06
 189    -8.4580102053644e-08
 190    -1.5253657520568e-07
 191    8.6848719481335e-07
 192    -9.4696344767243e-06
 193    -1.5868031901497e-05
 194    7.7622903928162e-07
 195    8.1935019923638e-07
 196    1.5238956012834e-06
 197    -5.5058302261685e-07
 198    3.7907253893579e-07
 199    -2.1241475948328e-06
 200     8.54948060801e-07
 201    -3.7653085838913e-07
 202    2.3320184773954e-06
 203    -1.7875306843823e-06
 204    -9.7470773579515e-06
 205    3.3814142624813e-06
 206    1.0081737950637e-06
 207    1.1831771014737e-06
 208    9.9318098344427e-06
 209    2.5067704101685e-06
 210    -8.550216480233e-07
 211    1.8045406708548e-06
 212    4.2752917647506e-06
 213    5.6065471000413e-07
 214    -3.8641193186719e-06
 215    -2.9398839387973e-06
 216    1.7994499813947e-05
 217    8.3716164396673e-07
 218    4.6575772670726e-08
 219    8.1282790388021e-07
 220    -2.0836872092439e-06
 221    -4.0013644534644e-06
 222    -2.4988109706223e-05
 223    0.0002669656223798
 224    6.7650128415827e-06
 225    1.6103035185497e-06
 226    3.4928505411446e-07
 227    5.2312295754282e-05
 228    5.9288799598967e-05
 229    -0.00029618964293527
 230    6.2110473981012e-06
 231    -9.6808936584931e-06
 232    -7.4859225606301e-06
 233    3.2372665378864e-06
 234    3.1807195190992e-06
 235    1.0384542020375e-05
 236    4.9766977391582e-05
 237    -0.00075569969782158
 238    -1.1481965862682e-05
 239    -5.0695396992552e-06
 240    1.0568412558479e-05
 241    0.00024160724326051
 242    4.7171473325557e-05
 243    8.330095263022e-05
 244    -1.9155024365758e-05
 245    4.7545331834657e-06
 246    8.1575545876309e-06
 247    -1.4407867466066e-06
 248    -2.0440567102619e-06
 249    -1.2253833871638e-05
 250    -1.9456138319966e-05
 251    1.3994087142245e-05
 252    -4.610411442039e-05
 253    0.0011360672662176
 254    -9.8277367698547e-06
 255    1.7198788479168e-06
 256    -2.3383295683244e-05
 257    0.00049281872288217
 258    0.0001158797467164
 259    8.8918545787834e-05
 260    1.940782638772e-05
 261    -5.7683168883463e-06
 262    -9.9581535492038e-06
 263    6.0017938412275e-06
 264    5.3883180554328e-06
 265    -1.2395492706572e-05
 266    -5.6256231889081e-06
 267    2.979828986708e-05
 268    7.5539639222229e-05
 269    -0.0002684050213555
 270    -0.0001053755311718
 271    -0.003225551136725
 272    0.00032067868691832
 273    9.4285274260089e-07
 274    0.00043060506401626
 275    -0.0012768744377767
 276    -0.0010770174492549
 277    0.0037154795146573
 278    -0.0003539239145255
 279    1.5602901579701e-05
 280    9.7090293006627e-05