[Molden Format]
made by pyscf v[2.0.1]
[Atoms] (AU)
C   1   6     0.69100024066471     0.64692934207205    -3.48223131169301
H   2   1     2.68052439830868     1.13355088658700    -3.25784032593313
C   3   6    -0.36286361513219     0.85440132524594    -5.97030179418974
H   4   1    -2.35448549047279     0.36322488579172    -6.17995817793143
C   5   6     0.93697958957450     1.61209284601821    -8.05828437677121
H   6   1     0.93570604399073     3.60645829547735    -8.57155587183010
C   7   6     2.33064164489587    -0.08500019610028    -9.65009622470686
H   8   1     2.31545752956704    -2.07726916449957    -9.11124928966168
H   9   1     1.55630230933075    -1.92953025305990    12.99630010416247
C   10   6     0.75233899775814    -2.21270439606481    11.10705728102219
H   11   1    -0.43433408177274    -3.90944857546550    11.22216085340412
C   12   6     2.86362581178706    -2.63237380607947     9.17926416456045
H   13   1     4.39038949912609    -1.24955421540245     9.49899813497433
H   14   1     3.74629220191363    -4.48798724300892     9.47414880959024
C   15   6     2.02478325613682    -2.42177285709634     6.44560829588644
C   16   6     3.88048732735477    -3.58795445234514     4.61402886975252
C   17   6    -0.18412382258602    -1.30464291234259     5.76021113872346
C   18   6    -2.10044360464350    -0.26837831858460     7.71610340967100
C   19   6    -3.08956938670431     2.35282328359417     6.88693925039594
C   20   6    -4.37372924086464    -2.09766595989678     7.93610724222001
C   21   6    -0.83850430601230     0.06372213486173    10.33002307638377
H   22   1     0.38411922151109     1.74281358582432    10.27380136542181
H   23   1    -2.30980003007874     0.45460143924521    11.73986301809809
H   24   1     4.58527064644668    -5.38706904487420     5.36778158031719
H   25   1     5.54944938085014    -2.37631462192748     4.35398898413318
H   26   1     3.06633019150423    -3.94118377050688     2.75255466040884
H   27   1    -4.17727778763735     2.26573369139522     5.12914900961283
H   28   1    -1.52662344944051     3.68001877445626     6.59540397144508
H   29   1    -4.32916174397830     3.13643051467482     8.35225460090378
H   30   1    -5.32329548508442    -2.36691813602939     6.11583672749896
H   31   1    -5.77989366602257    -1.33896741843465     9.25748940450990
H   32   1    -3.79310905208926    -3.96389819310853     8.61386170102686
C   33   6    -1.01100794811226    -1.06331657314144     3.11929490449947
C   34   6     0.37686231036534    -0.33275864505552     1.09165013605873
H   35   1    -3.01671213906703    -1.40297922279997     2.77827895090944
C   36   6    -0.64382707979370    -0.11591880174385    -1.42063131251064
H   37   1     2.35569259782137     0.17174499283897     1.33641070251401
H   38   1    -2.63317482980319    -0.60229203511219    -1.66119700387645
C   39   6     3.64869579482306     0.58263290243353   -11.74621951745329
C   40   6     5.00865186237336    -1.29151691020822   -13.24458681490645
H   41   1     3.74083961582251     2.53414495508714   -12.38721761884598
O   42   8     6.22738846457655    -0.82464446464225   -15.14656876600025
H   43   1     4.86298794977594    -3.26455446446118   -12.51927050350916
[GTO]
1 0
 s    6 1.00
             3047.5249  0.0018347001629433
             457.36951    0.01403730124668
             103.94869   0.068842606114048
             29.210155    0.23218442062076
              9.286663    0.46794134155879
              3.163927    0.36231203217765
 s    3 1.00
             7.8682724   -0.11933240861517
             1.8812885   -0.16085421161283
             0.5442493     1.1434564825515
 s    1 1.00
             0.1687144                   1
 p    3 1.00
             7.8682724   0.068999095584993
             1.8812885    0.31642397975315
             0.5442493    0.74430825237435
 p    1 1.00
             0.1687144                   1
 d    1 1.00
                   0.8                   1

2 0
 s    3 1.00
             18.731137    0.03349459952309
             2.8253937    0.23472694665786
             0.6401217    0.81375731841339
 s    1 1.00
             0.1612778                   1

3 0
 s    6 1.00
             3047.5249  0.0018347001629433
             457.36951    0.01403730124668
             103.94869   0.068842606114048
             29.210155    0.23218442062076
              9.286663    0.46794134155879
              3.163927    0.36231203217765
 s    3 1.00
             7.8682724   -0.11933240861517
             1.8812885   -0.16085421161283
             0.5442493     1.1434564825515
 s    1 1.00
             0.1687144                   1
 p    3 1.00
             7.8682724   0.068999095584993
             1.8812885    0.31642397975315
             0.5442493    0.74430825237435
 p    1 1.00
             0.1687144                   1
 d    1 1.00
                   0.8                   1

4 0
 s    3 1.00
             18.731137    0.03349459952309
             2.8253937    0.23472694665786
             0.6401217    0.81375731841339
 s    1 1.00
             0.1612778                   1

5 0
 s    6 1.00
             3047.5249  0.0018347001629433
             457.36951    0.01403730124668
             103.94869   0.068842606114048
             29.210155    0.23218442062076
              9.286663    0.46794134155879
              3.163927    0.36231203217765
 s    3 1.00
             7.8682724   -0.11933240861517
             1.8812885   -0.16085421161283
             0.5442493     1.1434564825515
 s    1 1.00
             0.1687144                   1
 p    3 1.00
             7.8682724   0.068999095584993
             1.8812885    0.31642397975315
             0.5442493    0.74430825237435
 p    1 1.00
             0.1687144                   1
 d    1 1.00
                   0.8                   1

6 0
 s    3 1.00
             18.731137    0.03349459952309
             2.8253937    0.23472694665786
             0.6401217    0.81375731841339
 s    1 1.00
             0.1612778                   1

7 0
 s    6 1.00
             3047.5249  0.0018347001629433
             457.36951    0.01403730124668
             103.94869   0.068842606114048
             29.210155    0.23218442062076
              9.286663    0.46794134155879
              3.163927    0.36231203217765
 s    3 1.00
             7.8682724   -0.11933240861517
             1.8812885   -0.16085421161283
             0.5442493     1.1434564825515
 s    1 1.00
             0.1687144                   1
 p    3 1.00
             7.8682724   0.068999095584993
             1.8812885    0.31642397975315
             0.5442493    0.74430825237435
 p    1 1.00
             0.1687144                   1
 d    1 1.00
                   0.8                   1

8 0
 s    3 1.00
             18.731137    0.03349459952309
             2.8253937    0.23472694665786
             0.6401217    0.81375731841339
 s    1 1.00
             0.1612778                   1

9 0
 s    3 1.00
             18.731137    0.03349459952309
             2.8253937    0.23472694665786
             0.6401217    0.81375731841339
 s    1 1.00
             0.1612778                   1

10 0
 s    6 1.00
             3047.5249  0.0018347001629433
             457.36951    0.01403730124668
             103.94869   0.068842606114048
             29.210155    0.23218442062076
              9.286663    0.46794134155879
              3.163927    0.36231203217765
 s    3 1.00
             7.8682724   -0.11933240861517
             1.8812885   -0.16085421161283
             0.5442493     1.1434564825515
 s    1 1.00
             0.1687144                   1
 p    3 1.00
             7.8682724   0.068999095584993
             1.8812885    0.31642397975315
             0.5442493    0.74430825237435
 p    1 1.00
             0.1687144                   1
 d    1 1.00
                   0.8                   1

11 0
 s    3 1.00
             18.731137    0.03349459952309
             2.8253937    0.23472694665786
             0.6401217    0.81375731841339
 s    1 1.00
             0.1612778                   1

12 0
 s    6 1.00
             3047.5249  0.0018347001629433
             457.36951    0.01403730124668
             103.94869   0.068842606114048
             29.210155    0.23218442062076
              9.286663    0.46794134155879
              3.163927    0.36231203217765
 s    3 1.00
             7.8682724   -0.11933240861517
             1.8812885   -0.16085421161283
             0.5442493     1.1434564825515
 s    1 1.00
             0.1687144                   1
 p    3 1.00
             7.8682724   0.068999095584993
             1.8812885    0.31642397975315
             0.5442493    0.74430825237435
 p    1 1.00
             0.1687144                   1
 d    1 1.00
                   0.8                   1

13 0
 s    3 1.00
             18.731137    0.03349459952309
             2.8253937    0.23472694665786
             0.6401217    0.81375731841339
 s    1 1.00
             0.1612778                   1

14 0
 s    3 1.00
             18.731137    0.03349459952309
             2.8253937    0.23472694665786
             0.6401217    0.81375731841339
 s    1 1.00
             0.1612778                   1

15 0
 s    6 1.00
             3047.5249  0.0018347001629433
             457.36951    0.01403730124668
             103.94869   0.068842606114048
             29.210155    0.23218442062076
              9.286663    0.46794134155879
              3.163927    0.36231203217765
 s    3 1.00
             7.8682724   -0.11933240861517
             1.8812885   -0.16085421161283
             0.5442493     1.1434564825515
 s    1 1.00
             0.1687144                   1
 p    3 1.00
             7.8682724   0.068999095584993
             1.8812885    0.31642397975315
             0.5442493    0.74430825237435
 p    1 1.00
             0.1687144                   1
 d    1 1.00
                   0.8                   1

16 0
 s    6 1.00
             3047.5249  0.0018347001629433
             457.36951    0.01403730124668
             103.94869   0.068842606114048
             29.210155    0.23218442062076
              9.286663    0.46794134155879
              3.163927    0.36231203217765
 s    3 1.00
             7.8682724   -0.11933240861517
             1.8812885   -0.16085421161283
             0.5442493     1.1434564825515
 s    1 1.00
             0.1687144                   1
 p    3 1.00
             7.8682724   0.068999095584993
             1.8812885    0.31642397975315
             0.5442493    0.74430825237435
 p    1 1.00
             0.1687144                   1
 d    1 1.00
                   0.8                   1

17 0
 s    6 1.00
             3047.5249  0.0018347001629433
             457.36951    0.01403730124668
             103.94869   0.068842606114048
             29.210155    0.23218442062076
              9.286663    0.46794134155879
              3.163927    0.36231203217765
 s    3 1.00
             7.8682724   -0.11933240861517
             1.8812885   -0.16085421161283
             0.5442493     1.1434564825515
 s    1 1.00
             0.1687144                   1
 p    3 1.00
             7.8682724   0.068999095584993
             1.8812885    0.31642397975315
             0.5442493    0.74430825237435
 p    1 1.00
             0.1687144                   1
 d    1 1.00
                   0.8                   1

18 0
 s    6 1.00
             3047.5249  0.0018347001629433
             457.36951    0.01403730124668
             103.94869   0.068842606114048
             29.210155    0.23218442062076
              9.286663    0.46794134155879
              3.163927    0.36231203217765
 s    3 1.00
             7.8682724   -0.11933240861517
             1.8812885   -0.16085421161283
             0.5442493     1.1434564825515
 s    1 1.00
             0.1687144                   1
 p    3 1.00
             7.8682724   0.068999095584993
             1.8812885    0.31642397975315
             0.5442493    0.74430825237435
 p    1 1.00
             0.1687144                   1
 d    1 1.00
                   0.8                   1

19 0
 s    6 1.00
             3047.5249  0.0018347001629433
             457.36951    0.01403730124668
             103.94869   0.068842606114048
             29.210155    0.23218442062076
              9.286663    0.46794134155879
              3.163927    0.36231203217765
 s    3 1.00
             7.8682724   -0.11933240861517
             1.8812885   -0.16085421161283
             0.5442493     1.1434564825515
 s    1 1.00
             0.1687144                   1
 p    3 1.00
             7.8682724   0.068999095584993
             1.8812885    0.31642397975315
             0.5442493    0.74430825237435
 p    1 1.00
             0.1687144                   1
 d    1 1.00
                   0.8                   1

20 0
 s    6 1.00
             3047.5249  0.0018347001629433
             457.36951    0.01403730124668
             103.94869   0.068842606114048
             29.210155    0.23218442062076
              9.286663    0.46794134155879
              3.163927    0.36231203217765
 s    3 1.00
             7.8682724   -0.11933240861517
             1.8812885   -0.16085421161283
             0.5442493     1.1434564825515
 s    1 1.00
             0.1687144                   1
 p    3 1.00
             7.8682724   0.068999095584993
             1.8812885    0.31642397975315
             0.5442493    0.74430825237435
 p    1 1.00
             0.1687144                   1
 d    1 1.00
                   0.8                   1

21 0
 s    6 1.00
             3047.5249  0.0018347001629433
             457.36951    0.01403730124668
             103.94869   0.068842606114048
             29.210155    0.23218442062076
              9.286663    0.46794134155879
              3.163927    0.36231203217765
 s    3 1.00
             7.8682724   -0.11933240861517
             1.8812885   -0.16085421161283
             0.5442493     1.1434564825515
 s    1 1.00
             0.1687144                   1
 p    3 1.00
             7.8682724   0.068999095584993
             1.8812885    0.31642397975315
             0.5442493    0.74430825237435
 p    1 1.00
             0.1687144                   1
 d    1 1.00
                   0.8                   1

22 0
 s    3 1.00
             18.731137    0.03349459952309
             2.8253937    0.23472694665786
             0.6401217    0.81375731841339
 s    1 1.00
             0.1612778                   1

23 0
 s    3 1.00
             18.731137    0.03349459952309
             2.8253937    0.23472694665786
             0.6401217    0.81375731841339
 s    1 1.00
             0.1612778                   1

24 0
 s    3 1.00
             18.731137    0.03349459952309
             2.8253937    0.23472694665786
             0.6401217    0.81375731841339
 s    1 1.00
             0.1612778                   1

25 0
 s    3 1.00
             18.731137    0.03349459952309
             2.8253937    0.23472694665786
             0.6401217    0.81375731841339
 s    1 1.00
             0.1612778                   1

26 0
 s    3 1.00
             18.731137    0.03349459952309
             2.8253937    0.23472694665786
             0.6401217    0.81375731841339
 s    1 1.00
             0.1612778                   1

27 0
 s    3 1.00
             18.731137    0.03349459952309
             2.8253937    0.23472694665786
             0.6401217    0.81375731841339
 s    1 1.00
             0.1612778                   1

28 0
 s    3 1.00
             18.731137    0.03349459952309
             2.8253937    0.23472694665786
             0.6401217    0.81375731841339
 s    1 1.00
             0.1612778                   1

29 0
 s    3 1.00
             18.731137    0.03349459952309
             2.8253937    0.23472694665786
             0.6401217    0.81375731841339
 s    1 1.00
             0.1612778                   1

30 0
 s    3 1.00
             18.731137    0.03349459952309
             2.8253937    0.23472694665786
             0.6401217    0.81375731841339
 s    1 1.00
             0.1612778                   1

31 0
 s    3 1.00
             18.731137    0.03349459952309
             2.8253937    0.23472694665786
             0.6401217    0.81375731841339
 s    1 1.00
             0.1612778                   1

32 0
 s    3 1.00
             18.731137    0.03349459952309
             2.8253937    0.23472694665786
             0.6401217    0.81375731841339
 s    1 1.00
             0.1612778                   1

33 0
 s    6 1.00
             3047.5249  0.0018347001629433
             457.36951    0.01403730124668
             103.94869   0.068842606114048
             29.210155    0.23218442062076
              9.286663    0.46794134155879
              3.163927    0.36231203217765
 s    3 1.00
             7.8682724   -0.11933240861517
             1.8812885   -0.16085421161283
             0.5442493     1.1434564825515
 s    1 1.00
             0.1687144                   1
 p    3 1.00
             7.8682724   0.068999095584993
             1.8812885    0.31642397975315
             0.5442493    0.74430825237435
 p    1 1.00
             0.1687144                   1
 d    1 1.00
                   0.8                   1

34 0
 s    6 1.00
             3047.5249  0.0018347001629433
             457.36951    0.01403730124668
             103.94869   0.068842606114048
             29.210155    0.23218442062076
              9.286663    0.46794134155879
              3.163927    0.36231203217765
 s    3 1.00
             7.8682724   -0.11933240861517
             1.8812885   -0.16085421161283
             0.5442493     1.1434564825515
 s    1 1.00
             0.1687144                   1
 p    3 1.00
             7.8682724   0.068999095584993
             1.8812885    0.31642397975315
             0.5442493    0.74430825237435
 p    1 1.00
             0.1687144                   1
 d    1 1.00
                   0.8                   1

35 0
 s    3 1.00
             18.731137    0.03349459952309
             2.8253937    0.23472694665786
             0.6401217    0.81375731841339
 s    1 1.00
             0.1612778                   1

36 0
 s    6 1.00
             3047.5249  0.0018347001629433
             457.36951    0.01403730124668
             103.94869   0.068842606114048
             29.210155    0.23218442062076
              9.286663    0.46794134155879
              3.163927    0.36231203217765
 s    3 1.00
             7.8682724   -0.11933240861517
             1.8812885   -0.16085421161283
             0.5442493     1.1434564825515
 s    1 1.00
             0.1687144                   1
 p    3 1.00
             7.8682724   0.068999095584993
             1.8812885    0.31642397975315
             0.5442493    0.74430825237435
 p    1 1.00
             0.1687144                   1
 d    1 1.00
                   0.8                   1

37 0
 s    3 1.00
             18.731137    0.03349459952309
             2.8253937    0.23472694665786
             0.6401217    0.81375731841339
 s    1 1.00
             0.1612778                   1

38 0
 s    3 1.00
             18.731137    0.03349459952309
             2.8253937    0.23472694665786
             0.6401217    0.81375731841339
 s    1 1.00
             0.1612778                   1

39 0
 s    6 1.00
             3047.5249  0.0018347001629433
             457.36951    0.01403730124668
             103.94869   0.068842606114048
             29.210155    0.23218442062076
              9.286663    0.46794134155879
              3.163927    0.36231203217765
 s    3 1.00
             7.8682724   -0.11933240861517
             1.8812885   -0.16085421161283
             0.5442493     1.1434564825515
 s    1 1.00
             0.1687144                   1
 p    3 1.00
             7.8682724   0.068999095584993
             1.8812885    0.31642397975315
             0.5442493    0.74430825237435
 p    1 1.00
             0.1687144                   1
 d    1 1.00
                   0.8                   1

40 0
 s    6 1.00
             3047.5249  0.0018347001629433
             457.36951    0.01403730124668
             103.94869   0.068842606114048
             29.210155    0.23218442062076
              9.286663    0.46794134155879
              3.163927    0.36231203217765
 s    3 1.00
             7.8682724   -0.11933240861517
             1.8812885   -0.16085421161283
             0.5442493     1.1434564825515
 s    1 1.00
             0.1687144                   1
 p    3 1.00
             7.8682724   0.068999095584993
             1.8812885    0.31642397975315
             0.5442493    0.74430825237435
 p    1 1.00
             0.1687144                   1
 d    1 1.00
                   0.8                   1

41 0
 s    3 1.00
             18.731137    0.03349459952309
             2.8253937    0.23472694665786
             0.6401217    0.81375731841339
 s    1 1.00
             0.1612778                   1

42 0
 s    6 1.00
             5484.6717   0.001831099805527
             825.23495   0.013950098518422
             188.04696    0.06844509273075
               52.9645    0.23271427528445
              16.89757    0.47019295006289
             5.7996353    0.35852086192309
 s    3 1.00
             15.539616   -0.11077750382508
             3.5999336   -0.14802630511126
             1.0137618     1.1307670390447
 s    1 1.00
             0.2700058                   1
 p    3 1.00
             15.539616   0.070874299543311
             3.5999336    0.33975279781076
             1.0137618    0.72715859531445
 p    1 1.00
             0.2700058                   1
 d    1 1.00
                   0.8                   1

43 0
 s    3 1.00
             18.731137    0.03349459952309
             2.8253937    0.23472694665786
             0.6401217    0.81375731841339
 s    1 1.00
             0.1612778                   1

[5d]
[7f]
[9g]

[MO]
 Sym= A
 Ene=               0
 Spin= Alpha
 Occup=    1.00000
   1    -1.3438065605165e-07
   2    -1.3034959023593e-05
   3    -2.5086647953872e-05
   4    -4.7855479112281e-06
   5    -5.7148804205563e-06
   6    1.437788623459e-05
   7    3.896975445617e-05
   8    0.00011587420387536
   9    -0.00036352593114845
  10    -5.280113240554e-08
  11    1.0519565543844e-05
  12    1.3000065895058e-06
  13    1.3802897678032e-05
  14    -7.6358758781822e-06
  15    -1.3015250006022e-05
  16    1.3257086060072e-05
  17    8.1359937287791e-06
  18     0.000158064542264
  19    0.0004239216493948
  20    5.420252198715e-05
  21    -6.3282645853701e-06
  22    -6.7585851775585e-05
  23    0.00018461774813966
  24    -0.00010487812535833
  25    -0.00057140357785862
  26    2.1230558038735e-05
  27    -2.3469262334967e-05
  28    1.2708848614809e-05
  29    4.1026996937121e-05
  30    1.0972377240977e-06
  31    -1.0676675886385e-05
  32    3.4682745008382e-05
  33    5.338692933562e-05
  34    0.00035416714497275
  35    -0.0042773837406859
  36    -8.4728779735773e-05
  37    1.5392214037217e-05
  38    0.00013069697695465
  39    -0.00060174464562444
  40    0.0018638656097489
  41    0.00042101671164698
  42    -1.6183780728053e-05
  43    0.0001074655955753
  44    -5.7974998394967e-05
  45    2.1224834144895e-05
  46    6.1821718903515e-05
  47    -1.4977910053545e-05
  48    -0.00027323589123937
  49    4.8317860086452e-05
  50    0.00019604406044027
  51    0.0034919868821162
  52    0.00021436685287412
  53    -0.00021020277910922
  54    -0.00025860096628151
  55    -0.0018598831900154
  56    0.0024814246939276
  57    0.0020688178902401
  58    -3.2635648226196e-05
  59    2.8518289760332e-05
  60    0.00018536037352294
  61    3.2519266957571e-05
  62    -0.00011638028475676
  63    0.00030026664004198
  64    7.6002300223589e-05
  65    -2.0504850743966e-07
  66    -2.8489959490395e-07
  67    -4.0398256073625e-08
  68    -5.6770729594868e-07
  69    2.7538527256958e-06
  70    2.1850549253777e-07
  71    -3.2622351588859e-07
  72    1.4228770327825e-07
  73    2.6241855134439e-07
  74    1.6644893218304e-06
  75    2.1373459446029e-08
  76    -5.6118822836006e-08
  77    -1.2012224212341e-07
  78    4.5602946880433e-08
  79    6.7983295910118e-08
  80    -1.053242075289e-07
  81    9.4708000741816e-08
  82    2.1262165191835e-07
  83    1.8286435895605e-08
  84    -2.2531088183609e-07
  85    -1.3750542674181e-05
  86    6.6347244274234e-07
  87    4.3252263985024e-08
  88    8.9503636228517e-07
  89    3.3115859450071e-06
  90    -4.6822778602624e-06
  91    3.4330484914234e-06
  92    1.7323692946807e-07
  93    -2.7553363997248e-07
  94    3.5643286379685e-07
  95    5.0328720463409e-08
  96    -1.6121282947165e-07
  97    6.7390299391048e-07
  98    8.3901516548553e-07
  99    -1.0102469268162e-08
 100    -1.0684975696894e-06
 101    -5.5245154331649e-08
 102    -7.8689030033263e-07
 103    1.2658921202018e-05
 104    2.1986872838932e-07
 105    -9.8830561197867e-07
 106    -6.4433739223882e-07
 107    -1.9186795760807e-05
 108    1.7795766086344e-05
 109    3.1605645911122e-05
 110    -5.934738091048e-07
 111    -5.5355942958697e-07
 112    2.3462371246695e-07
 113    3.0457598400136e-07
 114    -5.0790514600846e-07
 115    -4.803992309287e-07
 116    -4.4060362185979e-06
 117    3.6327994691821e-05
 118    -6.6846310037274e-07
 119    9.762479422444e-07
 120    8.4798383416577e-07
 121    -8.5884979023681e-06
 122    1.3949153943068e-06
 123    3.0127457095027e-06
 124    -8.8018002302103e-08
 125    -2.5364238909906e-07
 126    -1.1161567052301e-07
 127    1.2902630806768e-07
 128    -3.7509141083705e-07
 129    -9.7371848284129e-07
 130    -8.6363588646391e-06
 131    5.2680116444583e-05
 132    1.5013107413257e-07
 133    -1.7256164007927e-07
 134    3.3400684385696e-06
 135    -2.3656127549832e-05
 136    -2.37796182299e-07
 137    -8.2869528724129e-05
 138    2.494543897596e-06
 139    1.6138546691369e-06
 140    2.2569382320936e-07
 141    4.2186721729316e-07
 142    4.6377510392775e-08
 143    -4.3510675942169e-07
 144    -4.1433003133454e-06
 145    2.1197244638508e-05
 146    1.853170998861e-07
 147    4.6104554614514e-07
 148    4.3998795678109e-07
 149    1.2557028838213e-05
 150    -6.1960746010048e-06
 151    -3.435574261684e-06
 152    -9.8269232531968e-07
 153    -3.9340648992671e-07
 154    -1.1906109297949e-07
 155    7.2061863687053e-07
 156    -7.7241260048662e-07
 157    1.0853007433626e-07
 158    8.5376917082405e-07
 159    2.2569982646615e-07
 160    6.9093596660487e-07
 161    -7.0518820607697e-08
 162    -1.0282112174214e-07
 163    -6.4077954784074e-06
 164    3.4196673249488e-07
 165    8.3686702825797e-07
 166    4.7311979871667e-07
 167    -1.968226260684e-07
 168    2.0885308405321e-08
 169    -1.1031896852788e-07
 170    3.0814504746362e-07
 171    2.5002576083525e-08
 172    -4.2103923944622e-07
 173    -1.3547014671997e-06
 174    -6.2022963019384e-07
 175    -1.6526779073016e-07
 176    7.4829108292082e-07
 177    -3.7325580412945e-07
 178    1.7475840362225e-06
 179    -1.6534323826614e-06
 180    1.3641094089819e-07
 181    2.1372458701891e-07
 182    4.4763255533996e-08
 183    -3.8214729527657e-07
 184    1.7909460417823e-07
 185    -2.9523608283693e-07
 186    -2.9831102591307e-06
 187    1.8614146545706e-06
 188    -2.1625209507045e-07
 189     1.30766179564e-07
 190    1.1469357922794e-06
 191    2.1596943540089e-06
 192    7.3806957308684e-07
 193    -5.3824939452077e-06
 194    2.9204587064383e-07
 195    -3.7952142077782e-08
 196    1.9667608704329e-07
 197    9.4879831868416e-08
 198    -9.281686265677e-08
 199    -7.1328186834772e-07
 200    -1.1508902300869e-06
 201    3.9048730727503e-08
 202    3.2595593710305e-06
 203    -1.6370970667449e-06
 204    -1.7072542632128e-06
 205    -3.0988282667403e-07
 206    -2.3590669715923e-06
 207    1.0480901906327e-06
 208    -1.0925396171947e-05
 209    1.1130236711054e-06
 210    -4.3074856727571e-06
 211    5.1172563571958e-07
 212    2.8414263049091e-06
 213    -2.2770502739976e-07
 214    -2.1245156674343e-06
 215    -4.6706524335809e-07
 216    6.4171722044642e-07
 217    2.5871534435119e-07
 218    7.4395192611852e-07
 219    2.8385811854707e-07
 220    1.1219379736705e-06
 221    -6.638145317943e-07
 222    -8.0315536399747e-06
 223    -9.780348642968e-06
 224    3.6783529030704e-07
 225    -8.6575823481835e-07
 226    3.9047547910228e-06
 227    1.0111630030712e-05
 228    2.7351698807938e-05
 229    -9.5981488605683e-05
 230    -1.1159801558401e-06
 231    -4.1374276879909e-06
 232    -1.9057935520512e-06
 233    1.8334195596081e-06
 234    2.7509016852343e-06
 235    -8.8004659216787e-07
 236    -9.4927309940376e-06
 237    2.1892405885861e-05
 238    -7.2985915058693e-07
 239    3.2736737395189e-06
 240    3.0746529294416e-06
 241    -2.1637445041617e-05
 242    -7.2421841674135e-06
 243    -8.5820691925173e-05
 244    1.4048486903332e-06
 245    6.7068088212508e-06
 246    1.7268221433095e-06
 247    2.6443741786631e-06
 248    1.2521314336777e-06
 249    -4.3078302735838e-06
 250    1.0590339965444e-05
 251    -1.5655693582961e-06
 252    -2.8882592915048e-05
 253    0.00026708853125725
 254    3.4188076947181e-06
 255    -8.7751213344126e-06
 256    6.7126129516293e-06
 257    0.00011283020331443
 258    9.5124569312366e-05
 259    -0.00024475263236504
 260    2.6157823488724e-06
 261    -1.2263758802418e-05
 262    -5.1957906310159e-06
 263    8.0156208754511e-06
 264    5.162240917065e-06
 265    -3.8118931863008e-06
 266    2.7811736008809e-05
 267    -7.7541948003348e-06
 268    3.6968624323781e-05
 269    -8.5599514309184e-06
 270    -4.8008959653738e-05
 271    0.0030882700371833
 272    1.0617021335477e-05
 273    -0.00019109756147273
 274    3.5247638577896e-05
 275    0.0020873729274909
 276    0.00058322840889337
 277    -0.0032015729680597
 278    0.00019436665337294
 279    -0.00021986554646435
 280    0.00015865072386176