[Molden Format]
made by pyscf v[2.0.1]
[Atoms] (AU)
C   1   6     0.69100024066471     0.64692934207205    -3.48223131169301
H   2   1     2.68052439830868     1.13355088658700    -3.25784032593313
C   3   6    -0.36286361513219     0.85440132524594    -5.97030179418974
H   4   1    -2.35448549047279     0.36322488579172    -6.17995817793143
C   5   6     0.93697958957450     1.61209284601821    -8.05828437677121
H   6   1    -0.10682308805726     2.30253989392639    -9.69373588628611
C   7   6     3.64263503193718     1.55467149193689    -8.23832629511906
H   8   1     4.66272936056768     0.85936926442728    -6.58433578959761
H   9   1     1.55630230933075    -1.92953025305990    12.99630010416247
C   10   6     0.75233899775814    -2.21270439606481    11.10705728102219
H   11   1    -0.43433408177274    -3.90944857546550    11.22216085340412
C   12   6     2.86362581178706    -2.63237380607947     9.17926416456045
H   13   1     4.39038949912609    -1.24955421540245     9.49899813497433
H   14   1     3.74629220191363    -4.48798724300892     9.47414880959024
C   15   6     2.02478325613682    -2.42177285709634     6.44560829588644
C   16   6     3.88048732735477    -3.58795445234514     4.61402886975252
C   17   6    -0.18412382258602    -1.30464291234259     5.76021113872346
C   18   6    -2.10044360464350    -0.26837831858460     7.71610340967100
C   19   6    -3.08956938670431     2.35282328359417     6.88693925039594
C   20   6    -4.37372924086464    -2.09766595989678     7.93610724222001
C   21   6    -0.83850430601230     0.06372213486173    10.33002307638377
H   22   1     0.38411922151109     1.74281358582432    10.27380136542181
H   23   1    -2.30980003007874     0.45460143924521    11.73986301809809
H   24   1     4.58527064644668    -5.38706904487420     5.36778158031719
H   25   1     5.54944938085014    -2.37631462192748     4.35398898413318
H   26   1     3.06633019150423    -3.94118377050688     2.75255466040884
H   27   1    -4.17727778763735     2.26573369139522     5.12914900961283
H   28   1    -1.52662344944051     3.68001877445626     6.59540397144508
H   29   1    -4.32916174397830     3.13643051467482     8.35225460090378
H   30   1    -5.32329548508442    -2.36691813602939     6.11583672749896
H   31   1    -5.77989366602257    -1.33896741843465     9.25748940450990
H   32   1    -3.79310905208926    -3.96389819310853     8.61386170102686
C   33   6    -1.01100794811226    -1.06331657314144     3.11929490449947
C   34   6     0.37686231036534    -0.33275864505552     1.09165013605873
H   35   1    -3.01671213906703    -1.40297922279997     2.77827895090944
C   36   6    -0.64382707979370    -0.11591880174385    -1.42063131251064
H   37   1     2.35569259782137     0.17174499283897     1.33641070251401
H   38   1    -2.63317482980319    -0.60229203511219    -1.66119700387645
C   39   6     5.01588399354044     2.28654094702299   -10.27677863573407
C   40   6     7.77080404832789     2.15450646451281   -10.27454889780196
H   41   1     4.11782812209845     2.99683739506263   -11.98462609656630
O   42   8     9.12060555425099     2.77825484064970   -12.03801083010553
H   43   1     8.60983853061047     1.41663292301779    -8.48800399433497
[GTO]
1 0
 s    6 1.00
             3047.5249  0.0018347001629433
             457.36951    0.01403730124668
             103.94869   0.068842606114048
             29.210155    0.23218442062076
              9.286663    0.46794134155879
              3.163927    0.36231203217765
 s    3 1.00
             7.8682724   -0.11933240861517
             1.8812885   -0.16085421161283
             0.5442493     1.1434564825515
 s    1 1.00
             0.1687144                   1
 p    3 1.00
             7.8682724   0.068999095584993
             1.8812885    0.31642397975315
             0.5442493    0.74430825237435
 p    1 1.00
             0.1687144                   1
 d    1 1.00
                   0.8                   1

2 0
 s    3 1.00
             18.731137    0.03349459952309
             2.8253937    0.23472694665786
             0.6401217    0.81375731841339
 s    1 1.00
             0.1612778                   1

3 0
 s    6 1.00
             3047.5249  0.0018347001629433
             457.36951    0.01403730124668
             103.94869   0.068842606114048
             29.210155    0.23218442062076
              9.286663    0.46794134155879
              3.163927    0.36231203217765
 s    3 1.00
             7.8682724   -0.11933240861517
             1.8812885   -0.16085421161283
             0.5442493     1.1434564825515
 s    1 1.00
             0.1687144                   1
 p    3 1.00
             7.8682724   0.068999095584993
             1.8812885    0.31642397975315
             0.5442493    0.74430825237435
 p    1 1.00
             0.1687144                   1
 d    1 1.00
                   0.8                   1

4 0
 s    3 1.00
             18.731137    0.03349459952309
             2.8253937    0.23472694665786
             0.6401217    0.81375731841339
 s    1 1.00
             0.1612778                   1

5 0
 s    6 1.00
             3047.5249  0.0018347001629433
             457.36951    0.01403730124668
             103.94869   0.068842606114048
             29.210155    0.23218442062076
              9.286663    0.46794134155879
              3.163927    0.36231203217765
 s    3 1.00
             7.8682724   -0.11933240861517
             1.8812885   -0.16085421161283
             0.5442493     1.1434564825515
 s    1 1.00
             0.1687144                   1
 p    3 1.00
             7.8682724   0.068999095584993
             1.8812885    0.31642397975315
             0.5442493    0.74430825237435
 p    1 1.00
             0.1687144                   1
 d    1 1.00
                   0.8                   1

6 0
 s    3 1.00
             18.731137    0.03349459952309
             2.8253937    0.23472694665786
             0.6401217    0.81375731841339
 s    1 1.00
             0.1612778                   1

7 0
 s    6 1.00
             3047.5249  0.0018347001629433
             457.36951    0.01403730124668
             103.94869   0.068842606114048
             29.210155    0.23218442062076
              9.286663    0.46794134155879
              3.163927    0.36231203217765
 s    3 1.00
             7.8682724   -0.11933240861517
             1.8812885   -0.16085421161283
             0.5442493     1.1434564825515
 s    1 1.00
             0.1687144                   1
 p    3 1.00
             7.8682724   0.068999095584993
             1.8812885    0.31642397975315
             0.5442493    0.74430825237435
 p    1 1.00
             0.1687144                   1
 d    1 1.00
                   0.8                   1

8 0
 s    3 1.00
             18.731137    0.03349459952309
             2.8253937    0.23472694665786
             0.6401217    0.81375731841339
 s    1 1.00
             0.1612778                   1

9 0
 s    3 1.00
             18.731137    0.03349459952309
             2.8253937    0.23472694665786
             0.6401217    0.81375731841339
 s    1 1.00
             0.1612778                   1

10 0
 s    6 1.00
             3047.5249  0.0018347001629433
             457.36951    0.01403730124668
             103.94869   0.068842606114048
             29.210155    0.23218442062076
              9.286663    0.46794134155879
              3.163927    0.36231203217765
 s    3 1.00
             7.8682724   -0.11933240861517
             1.8812885   -0.16085421161283
             0.5442493     1.1434564825515
 s    1 1.00
             0.1687144                   1
 p    3 1.00
             7.8682724   0.068999095584993
             1.8812885    0.31642397975315
             0.5442493    0.74430825237435
 p    1 1.00
             0.1687144                   1
 d    1 1.00
                   0.8                   1

11 0
 s    3 1.00
             18.731137    0.03349459952309
             2.8253937    0.23472694665786
             0.6401217    0.81375731841339
 s    1 1.00
             0.1612778                   1

12 0
 s    6 1.00
             3047.5249  0.0018347001629433
             457.36951    0.01403730124668
             103.94869   0.068842606114048
             29.210155    0.23218442062076
              9.286663    0.46794134155879
              3.163927    0.36231203217765
 s    3 1.00
             7.8682724   -0.11933240861517
             1.8812885   -0.16085421161283
             0.5442493     1.1434564825515
 s    1 1.00
             0.1687144                   1
 p    3 1.00
             7.8682724   0.068999095584993
             1.8812885    0.31642397975315
             0.5442493    0.74430825237435
 p    1 1.00
             0.1687144                   1
 d    1 1.00
                   0.8                   1

13 0
 s    3 1.00
             18.731137    0.03349459952309
             2.8253937    0.23472694665786
             0.6401217    0.81375731841339
 s    1 1.00
             0.1612778                   1

14 0
 s    3 1.00
             18.731137    0.03349459952309
             2.8253937    0.23472694665786
             0.6401217    0.81375731841339
 s    1 1.00
             0.1612778                   1

15 0
 s    6 1.00
             3047.5249  0.0018347001629433
             457.36951    0.01403730124668
             103.94869   0.068842606114048
             29.210155    0.23218442062076
              9.286663    0.46794134155879
              3.163927    0.36231203217765
 s    3 1.00
             7.8682724   -0.11933240861517
             1.8812885   -0.16085421161283
             0.5442493     1.1434564825515
 s    1 1.00
             0.1687144                   1
 p    3 1.00
             7.8682724   0.068999095584993
             1.8812885    0.31642397975315
             0.5442493    0.74430825237435
 p    1 1.00
             0.1687144                   1
 d    1 1.00
                   0.8                   1

16 0
 s    6 1.00
             3047.5249  0.0018347001629433
             457.36951    0.01403730124668
             103.94869   0.068842606114048
             29.210155    0.23218442062076
              9.286663    0.46794134155879
              3.163927    0.36231203217765
 s    3 1.00
             7.8682724   -0.11933240861517
             1.8812885   -0.16085421161283
             0.5442493     1.1434564825515
 s    1 1.00
             0.1687144                   1
 p    3 1.00
             7.8682724   0.068999095584993
             1.8812885    0.31642397975315
             0.5442493    0.74430825237435
 p    1 1.00
             0.1687144                   1
 d    1 1.00
                   0.8                   1

17 0
 s    6 1.00
             3047.5249  0.0018347001629433
             457.36951    0.01403730124668
             103.94869   0.068842606114048
             29.210155    0.23218442062076
              9.286663    0.46794134155879
              3.163927    0.36231203217765
 s    3 1.00
             7.8682724   -0.11933240861517
             1.8812885   -0.16085421161283
             0.5442493     1.1434564825515
 s    1 1.00
             0.1687144                   1
 p    3 1.00
             7.8682724   0.068999095584993
             1.8812885    0.31642397975315
             0.5442493    0.74430825237435
 p    1 1.00
             0.1687144                   1
 d    1 1.00
                   0.8                   1

18 0
 s    6 1.00
             3047.5249  0.0018347001629433
             457.36951    0.01403730124668
             103.94869   0.068842606114048
             29.210155    0.23218442062076
              9.286663    0.46794134155879
              3.163927    0.36231203217765
 s    3 1.00
             7.8682724   -0.11933240861517
             1.8812885   -0.16085421161283
             0.5442493     1.1434564825515
 s    1 1.00
             0.1687144                   1
 p    3 1.00
             7.8682724   0.068999095584993
             1.8812885    0.31642397975315
             0.5442493    0.74430825237435
 p    1 1.00
             0.1687144                   1
 d    1 1.00
                   0.8                   1

19 0
 s    6 1.00
             3047.5249  0.0018347001629433
             457.36951    0.01403730124668
             103.94869   0.068842606114048
             29.210155    0.23218442062076
              9.286663    0.46794134155879
              3.163927    0.36231203217765
 s    3 1.00
             7.8682724   -0.11933240861517
             1.8812885   -0.16085421161283
             0.5442493     1.1434564825515
 s    1 1.00
             0.1687144                   1
 p    3 1.00
             7.8682724   0.068999095584993
             1.8812885    0.31642397975315
             0.5442493    0.74430825237435
 p    1 1.00
             0.1687144                   1
 d    1 1.00
                   0.8                   1

20 0
 s    6 1.00
             3047.5249  0.0018347001629433
             457.36951    0.01403730124668
             103.94869   0.068842606114048
             29.210155    0.23218442062076
              9.286663    0.46794134155879
              3.163927    0.36231203217765
 s    3 1.00
             7.8682724   -0.11933240861517
             1.8812885   -0.16085421161283
             0.5442493     1.1434564825515
 s    1 1.00
             0.1687144                   1
 p    3 1.00
             7.8682724   0.068999095584993
             1.8812885    0.31642397975315
             0.5442493    0.74430825237435
 p    1 1.00
             0.1687144                   1
 d    1 1.00
                   0.8                   1

21 0
 s    6 1.00
             3047.5249  0.0018347001629433
             457.36951    0.01403730124668
             103.94869   0.068842606114048
             29.210155    0.23218442062076
              9.286663    0.46794134155879
              3.163927    0.36231203217765
 s    3 1.00
             7.8682724   -0.11933240861517
             1.8812885   -0.16085421161283
             0.5442493     1.1434564825515
 s    1 1.00
             0.1687144                   1
 p    3 1.00
             7.8682724   0.068999095584993
             1.8812885    0.31642397975315
             0.5442493    0.74430825237435
 p    1 1.00
             0.1687144                   1
 d    1 1.00
                   0.8                   1

22 0
 s    3 1.00
             18.731137    0.03349459952309
             2.8253937    0.23472694665786
             0.6401217    0.81375731841339
 s    1 1.00
             0.1612778                   1

23 0
 s    3 1.00
             18.731137    0.03349459952309
             2.8253937    0.23472694665786
             0.6401217    0.81375731841339
 s    1 1.00
             0.1612778                   1

24 0
 s    3 1.00
             18.731137    0.03349459952309
             2.8253937    0.23472694665786
             0.6401217    0.81375731841339
 s    1 1.00
             0.1612778                   1

25 0
 s    3 1.00
             18.731137    0.03349459952309
             2.8253937    0.23472694665786
             0.6401217    0.81375731841339
 s    1 1.00
             0.1612778                   1

26 0
 s    3 1.00
             18.731137    0.03349459952309
             2.8253937    0.23472694665786
             0.6401217    0.81375731841339
 s    1 1.00
             0.1612778                   1

27 0
 s    3 1.00
             18.731137    0.03349459952309
             2.8253937    0.23472694665786
             0.6401217    0.81375731841339
 s    1 1.00
             0.1612778                   1

28 0
 s    3 1.00
             18.731137    0.03349459952309
             2.8253937    0.23472694665786
             0.6401217    0.81375731841339
 s    1 1.00
             0.1612778                   1

29 0
 s    3 1.00
             18.731137    0.03349459952309
             2.8253937    0.23472694665786
             0.6401217    0.81375731841339
 s    1 1.00
             0.1612778                   1

30 0
 s    3 1.00
             18.731137    0.03349459952309
             2.8253937    0.23472694665786
             0.6401217    0.81375731841339
 s    1 1.00
             0.1612778                   1

31 0
 s    3 1.00
             18.731137    0.03349459952309
             2.8253937    0.23472694665786
             0.6401217    0.81375731841339
 s    1 1.00
             0.1612778                   1

32 0
 s    3 1.00
             18.731137    0.03349459952309
             2.8253937    0.23472694665786
             0.6401217    0.81375731841339
 s    1 1.00
             0.1612778                   1

33 0
 s    6 1.00
             3047.5249  0.0018347001629433
             457.36951    0.01403730124668
             103.94869   0.068842606114048
             29.210155    0.23218442062076
              9.286663    0.46794134155879
              3.163927    0.36231203217765
 s    3 1.00
             7.8682724   -0.11933240861517
             1.8812885   -0.16085421161283
             0.5442493     1.1434564825515
 s    1 1.00
             0.1687144                   1
 p    3 1.00
             7.8682724   0.068999095584993
             1.8812885    0.31642397975315
             0.5442493    0.74430825237435
 p    1 1.00
             0.1687144                   1
 d    1 1.00
                   0.8                   1

34 0
 s    6 1.00
             3047.5249  0.0018347001629433
             457.36951    0.01403730124668
             103.94869   0.068842606114048
             29.210155    0.23218442062076
              9.286663    0.46794134155879
              3.163927    0.36231203217765
 s    3 1.00
             7.8682724   -0.11933240861517
             1.8812885   -0.16085421161283
             0.5442493     1.1434564825515
 s    1 1.00
             0.1687144                   1
 p    3 1.00
             7.8682724   0.068999095584993
             1.8812885    0.31642397975315
             0.5442493    0.74430825237435
 p    1 1.00
             0.1687144                   1
 d    1 1.00
                   0.8                   1

35 0
 s    3 1.00
             18.731137    0.03349459952309
             2.8253937    0.23472694665786
             0.6401217    0.81375731841339
 s    1 1.00
             0.1612778                   1

36 0
 s    6 1.00
             3047.5249  0.0018347001629433
             457.36951    0.01403730124668
             103.94869   0.068842606114048
             29.210155    0.23218442062076
              9.286663    0.46794134155879
              3.163927    0.36231203217765
 s    3 1.00
             7.8682724   -0.11933240861517
             1.8812885   -0.16085421161283
             0.5442493     1.1434564825515
 s    1 1.00
             0.1687144                   1
 p    3 1.00
             7.8682724   0.068999095584993
             1.8812885    0.31642397975315
             0.5442493    0.74430825237435
 p    1 1.00
             0.1687144                   1
 d    1 1.00
                   0.8                   1

37 0
 s    3 1.00
             18.731137    0.03349459952309
             2.8253937    0.23472694665786
             0.6401217    0.81375731841339
 s    1 1.00
             0.1612778                   1

38 0
 s    3 1.00
             18.731137    0.03349459952309
             2.8253937    0.23472694665786
             0.6401217    0.81375731841339
 s    1 1.00
             0.1612778                   1

39 0
 s    6 1.00
             3047.5249  0.0018347001629433
             457.36951    0.01403730124668
             103.94869   0.068842606114048
             29.210155    0.23218442062076
              9.286663    0.46794134155879
              3.163927    0.36231203217765
 s    3 1.00
             7.8682724   -0.11933240861517
             1.8812885   -0.16085421161283
             0.5442493     1.1434564825515
 s    1 1.00
             0.1687144                   1
 p    3 1.00
             7.8682724   0.068999095584993
             1.8812885    0.31642397975315
             0.5442493    0.74430825237435
 p    1 1.00
             0.1687144                   1
 d    1 1.00
                   0.8                   1

40 0
 s    6 1.00
             3047.5249  0.0018347001629433
             457.36951    0.01403730124668
             103.94869   0.068842606114048
             29.210155    0.23218442062076
              9.286663    0.46794134155879
              3.163927    0.36231203217765
 s    3 1.00
             7.8682724   -0.11933240861517
             1.8812885   -0.16085421161283
             0.5442493     1.1434564825515
 s    1 1.00
             0.1687144                   1
 p    3 1.00
             7.8682724   0.068999095584993
             1.8812885    0.31642397975315
             0.5442493    0.74430825237435
 p    1 1.00
             0.1687144                   1
 d    1 1.00
                   0.8                   1

41 0
 s    3 1.00
             18.731137    0.03349459952309
             2.8253937    0.23472694665786
             0.6401217    0.81375731841339
 s    1 1.00
             0.1612778                   1

42 0
 s    6 1.00
             5484.6717   0.001831099805527
             825.23495   0.013950098518422
             188.04696    0.06844509273075
               52.9645    0.23271427528445
              16.89757    0.47019295006289
             5.7996353    0.35852086192309
 s    3 1.00
             15.539616   -0.11077750382508
             3.5999336   -0.14802630511126
             1.0137618     1.1307670390447
 s    1 1.00
             0.2700058                   1
 p    3 1.00
             15.539616   0.070874299543311
             3.5999336    0.33975279781076
             1.0137618    0.72715859531445
 p    1 1.00
             0.2700058                   1
 d    1 1.00
                   0.8                   1

43 0
 s    3 1.00
             18.731137    0.03349459952309
             2.8253937    0.23472694665786
             0.6401217    0.81375731841339
 s    1 1.00
             0.1612778                   1

[5d]
[7f]
[9g]

[MO]
 Sym= A
 Ene=               0
 Spin= Alpha
 Occup=    1.00000
   1    -1.0336612355728e-05
   2    -0.00010055846396289
   3    0.0012789981691706
   4    -3.8046948331099e-05
   5    1.8272648943069e-05
   6    1.768565561241e-07
   7    -6.0345644430751e-05
   8    9.3496180388372e-05
   9    -0.0012343761985598
  10    4.0042685958004e-05
  11    3.7273749955839e-05
  12    4.7374404966496e-06
  13    3.3878585228935e-06
  14    -2.0914371797141e-06
  15    -4.4801264141718e-05
  16    -3.1012056341494e-06
  17    2.1859323757548e-05
  18    0.00015573699641253
  19    -0.0025501879317841
  20    -1.2148446008703e-05
  21    -1.0950356466927e-05
  22    6.6559361403618e-05
  23    -0.0016566982972665
  24    -0.00015334234566625
  25    -0.00046700131536712
  26    -4.3450541742849e-05
  27    2.7308675875333e-05
  28    3.0110145360851e-06
  29    -2.8713798900612e-05
  30    -2.7122839040562e-05
  31    -7.1159488925398e-05
  32    -0.00038633253073258
  33    -5.144278237115e-05
  34    -0.00042538871518781
  35    0.0054224336767607
  36    6.2681080337862e-05
  37    2.365282094594e-05
  38    -7.1504513952501e-05
  39    0.0025445550624037
  40    -0.00057020820623537
  41    0.0013893611986245
  42    -2.0528943702663e-05
  43    -4.9807215730119e-05
  44    -4.1780550078458e-05
  45    0.00015265890457985
  46    -4.505687958366e-06
  47    5.3840846452217e-05
  48    0.00052638452802717
  49    -2.8595990888412e-05
  50    -2.2655925480757e-05
  51    -0.0040269442214689
  52    -0.00031033084164301
  53    3.3622743508014e-05
  54    -9.7841013043506e-06
  55    0.0044576733258335
  56    -0.000194448679058
  57    -0.00020615699425463
  58    0.00020681231252447
  59    -1.9388929863206e-05
  60    -0.00010847498223285
  61    -0.00011908557051362
  62    2.1849417807404e-05
  63    -0.00022128311679017
  64    -0.00021454131465061
  65    -2.6964407010794e-07
  66    1.5770850619638e-06
  67    -9.6802502489272e-08
  68    -9.2077570339909e-07
  69    -8.1451230021808e-07
  70    4.7334395836641e-07
  71    -8.1260394467046e-07
  72    1.3490339983327e-07
  73    2.3785641805132e-06
  74    2.3842784796647e-06
  75    -1.0647840624142e-06
  76    3.2122934541163e-07
  77    2.0746995314867e-07
  78    6.9426145609563e-08
  79    1.6013214152216e-07
  80    2.0534112749533e-07
  81    2.8412977204233e-07
  82    1.7701101461236e-06
  83    2.6886208550324e-07
  84    2.5240906253822e-06
  85    3.7503531059243e-06
  86    1.4165906094784e-08
  87    1.0362010319509e-06
  88    -6.2537087283575e-08
  89    2.7161518274634e-06
  90    -1.0271159889214e-05
  91    -4.6355507453036e-06
  92    -1.6919820632687e-07
  93    -1.9150319669728e-07
  94    7.5000964491029e-07
  95    -4.3634401021974e-07
  96    1.4492122669043e-07
  97    1.6199746979315e-06
  98    2.5278115273897e-06
  99    -1.1827339112048e-06
 100    -3.0072585322405e-06
 101    -8.6411803355993e-07
 102    -3.1165498421131e-06
 103    8.2988600260341e-05
 104    -3.3141619590675e-06
 105    -1.3287843771505e-06
 106    -1.2790607204045e-06
 107    -1.9793226460526e-05
 108    2.2326215447593e-05
 109    -3.9391480049772e-05
 110    6.2919832813968e-07
 111    1.6209390484738e-06
 112    -6.6005415931881e-07
 113    2.4747583176079e-08
 114    -1.0350613677244e-06
 115    2.2087875004131e-07
 116    3.0113126457709e-06
 117    -1.6938965567923e-05
 118    1.5475668151839e-09
 119    1.5254405924356e-06
 120    -2.2478086507794e-06
 121    1.0525479808015e-05
 122    -1.732881788289e-05
 123    2.9406080180766e-06
 124    7.4713953359469e-07
 125    -1.2183503968156e-07
 126    -1.0951560135998e-06
 127    -4.7680072602018e-07
 128    2.5235050558399e-07
 129    6.4634889607774e-07
 130    6.1285804569539e-06
 131    -2.9777540826598e-05
 132    3.8406736639609e-06
 133    -2.6477273891429e-06
 134    -4.2365247837973e-06
 135    -9.8015965045805e-05
 136    1.7193245875159e-05
 137    5.7731571491511e-05
 138    -2.1622280535401e-06
 139    -1.5341268343725e-07
 140    2.4666408928918e-06
 141    -2.6240192521871e-07
 142    2.425426963701e-06
 143    8.4225022131066e-07
 144    2.8879930521247e-06
 145    -6.9338023304582e-05
 146    -1.4133757516914e-07
 147    4.9251179389221e-07
 148    6.0009133710961e-06
 149    -3.4284299669408e-05
 150    3.4868912128098e-05
 151    -1.6574673284148e-05
 152    -3.056388894731e-07
 153    2.1625175717394e-07
 154    -1.7750285691321e-06
 155    -6.9928408242283e-07
 156    1.7452117951776e-08
 157    6.9713388624213e-07
 158    5.551436627524e-06
 159    -3.0361665942624e-05
 160    8.2185719988022e-07
 161    3.5839491075414e-07
 162    -4.478198594687e-07
 163    -5.421800555824e-06
 164    1.1907741823601e-05
 165    3.9324612940732e-06
 166    6.118881543013e-07
 167    6.8701404396935e-08
 168    -3.8618500740351e-08
 169    7.6914265570255e-07
 170    2.1207964469359e-07
 171    1.4278378471869e-08
 172    -6.6000877461257e-07
 173    -1.2157822706782e-07
 174    -1.1225851917383e-06
 175    -9.8350537205928e-08
 176    1.8166395721097e-06
 177    1.5182758955043e-05
 178    -7.0812840314859e-07
 179    3.0174943987978e-06
 180    -1.7071997447699e-07
 181    1.4919492380359e-06
 182    -1.7879948853146e-07
 183    1.0254323861623e-06
 184    1.0544299174667e-06
 185    -7.2777003573609e-07
 186    -4.1311097250929e-06
 187    3.5669975775479e-05
 188    -1.2733541962095e-06
 189    -4.1598377917549e-07
 190    -2.0922029084725e-06
 191    -3.8438335861692e-06
 192    -7.9813574419593e-06
 193    -1.5681898044234e-05
 194    7.5114826993754e-07
 195    1.0105390865154e-06
 196    1.0559103425756e-06
 197    -6.214988235848e-07
 198    5.5589436401877e-07
 199    -1.5766763373778e-06
 200    1.136217327113e-06
 201    -9.2783089163778e-07
 202    -1.6849038098067e-06
 203    -1.5057332289548e-06
 204    -7.6752954424988e-06
 205    2.9985863577869e-06
 206    3.8859338688961e-07
 207    3.2046707597403e-06
 208    -1.5851473321916e-06
 209    1.9345781825642e-06
 210    3.9627230892265e-06
 211    1.3782504172112e-06
 212    2.6349152520619e-06
 213    7.8593205443631e-07
 214    -3.7026383414919e-06
 215    -3.301116152231e-06
 216    1.8058888386089e-05
 217    1.0993180862206e-06
 218    2.9943771483511e-06
 219    6.0092270463946e-08
 220    -3.9664663158595e-06
 221    -3.6840493184221e-06
 222    -3.044006701951e-05
 223    0.00039922418478384
 224    7.6608389848391e-08
 225    9.0024195987444e-06
 226    -3.8892225753962e-06
 227    0.00011517220508757
 228    5.1003123549089e-05
 229    -0.00018526388704778
 230    8.3525925221607e-06
 231    -6.7225756438075e-06
 232    -7.6079216848396e-06
 233    2.8782707842315e-06
 234    3.096998451613e-06
 235    1.338755877179e-05
 236    5.5387774829952e-05
 237    -0.00060000581213302
 238    -1.3069454627597e-05
 239    5.4593353257206e-06
 240    -8.0500790269537e-06
 241    0.00024643271767139
 242     8.00861132708e-05
 243    -7.1070818612645e-05
 244    -1.0597605027381e-05
 245    7.4805324076685e-06
 246    7.5036130546256e-06
 247    1.7679910473823e-07
 248    -2.3594302284679e-09
 249    -3.4827014577895e-06
 250    -1.3853349266534e-05
 251    1.5735540730396e-05
 252    -3.7453371854956e-06
 253    0.00052943638038654
 254    1.1586666922825e-05
 255    3.2045907353219e-06
 256    1.3609525933092e-05
 257    0.00032674756779084
 258    9.0335868339112e-05
 259    0.00026478674737002
 260    5.5440109435078e-06
 261    3.2782320796186e-06
 262    -5.8292847809627e-06
 263    -4.0784684420337e-07
 264    7.781905215618e-06
 265    -1.1219533086641e-05
 266    -9.4775349535821e-06
 267    9.2508663733422e-06
 268    8.8126305973884e-05
 269    -0.00026789694854515
 270    -9.2611036318852e-05
 271    -0.0034175371029384
 272    -0.00052857456741544
 273    6.0015750868217e-05
 274    -7.8114393859161e-05
 275    -0.0027748986159283
 276    -0.00090162486413729
 277    0.0027199590951462
 278    0.0001389108102037
 279    0.00031798004273259
 280    -4.746747704748e-05