[Molden Format]
made by pyscf v[2.0.1]
[Atoms] (AU)
C   1   6     0.69100024066471     0.64692934207205    -3.48223131169301
H   2   1     2.68052439830868     1.13355088658700    -3.25784032593313
C   3   6    -0.36286361513219     0.85440132524594    -5.97030179418974
H   4   1    -2.35448549047279     0.36322488579172    -6.17995817793143
C   5   6     0.93697958957450     1.61209284601821    -8.05828437677121
H   6   1    -0.06960811584452     2.58702669474359    -9.56733307637730
C   7   6     3.59571274713804     1.19684402678434    -8.39738626626495
H   8   1     4.57899779978681     0.21871567749258    -6.86894337963000
H   9   1     1.55630230933075    -1.92953025305990    12.99630010416247
C   10   6     0.75233899775814    -2.21270439606481    11.10705728102219
H   11   1    -0.43433408177274    -3.90944857546550    11.22216085340412
C   12   6     2.86362581178706    -2.63237380607947     9.17926416456045
H   13   1     4.39038949912609    -1.24955421540245     9.49899813497433
H   14   1     3.74629220191363    -4.48798724300892     9.47414880959024
C   15   6     2.02478325613682    -2.42177285709634     6.44560829588644
C   16   6     3.88048732735477    -3.58795445234514     4.61402886975252
C   17   6    -0.18412382258602    -1.30464291234259     5.76021113872346
C   18   6    -2.10044360464350    -0.26837831858460     7.71610340967100
C   19   6    -3.08956938670431     2.35282328359417     6.88693925039594
C   20   6    -4.37372924086464    -2.09766595989678     7.93610724222001
C   21   6    -0.83850430601230     0.06372213486173    10.33002307638377
H   22   1     0.38411922151109     1.74281358582432    10.27380136542181
H   23   1    -2.30980003007874     0.45460143924521    11.73986301809809
H   24   1     4.58527064644668    -5.38706904487420     5.36778158031719
H   25   1     5.54944938085014    -2.37631462192748     4.35398898413318
H   26   1     3.06633019150423    -3.94118377050688     2.75255466040884
H   27   1    -4.17727778763735     2.26573369139522     5.12914900961283
H   28   1    -1.52662344944051     3.68001877445626     6.59540397144508
H   29   1    -4.32916174397830     3.13643051467482     8.35225460090378
H   30   1    -5.32329548508442    -2.36691813602939     6.11583672749896
H   31   1    -5.77989366602257    -1.33896741843465     9.25748940450990
H   32   1    -3.79310905208926    -3.96389819310853     8.61386170102686
C   33   6    -1.01100794811226    -1.06331657314144     3.11929490449947
C   34   6     0.37686231036534    -0.33275864505552     1.09165013605873
H   35   1    -3.01671213906703    -1.40297922279997     2.77827895090944
C   36   6    -0.64382707979370    -0.11591880174385    -1.42063131251064
H   37   1     2.35569259782137     0.17174499283897     1.33641070251401
H   38   1    -2.63317482980319    -0.60229203511219    -1.66119700387645
C   39   6     4.96665860975130     1.91437223239220   -10.44247655051683
C   40   6     7.67160233174465     1.40206885234173   -10.60935163126053
H   41   1     4.10375913642339     2.89528826049847   -12.03023490303406
O   42   8     9.01623610133373     1.99111078946158   -12.38862500825095
H   43   1     8.47573431044455     0.39495244048141    -8.94223819440966
[GTO]
1 0
 s    6 1.00
             3047.5249  0.0018347001629433
             457.36951    0.01403730124668
             103.94869   0.068842606114048
             29.210155    0.23218442062076
              9.286663    0.46794134155879
              3.163927    0.36231203217765
 s    3 1.00
             7.8682724   -0.11933240861517
             1.8812885   -0.16085421161283
             0.5442493     1.1434564825515
 s    1 1.00
             0.1687144                   1
 p    3 1.00
             7.8682724   0.068999095584993
             1.8812885    0.31642397975315
             0.5442493    0.74430825237435
 p    1 1.00
             0.1687144                   1
 d    1 1.00
                   0.8                   1

2 0
 s    3 1.00
             18.731137    0.03349459952309
             2.8253937    0.23472694665786
             0.6401217    0.81375731841339
 s    1 1.00
             0.1612778                   1

3 0
 s    6 1.00
             3047.5249  0.0018347001629433
             457.36951    0.01403730124668
             103.94869   0.068842606114048
             29.210155    0.23218442062076
              9.286663    0.46794134155879
              3.163927    0.36231203217765
 s    3 1.00
             7.8682724   -0.11933240861517
             1.8812885   -0.16085421161283
             0.5442493     1.1434564825515
 s    1 1.00
             0.1687144                   1
 p    3 1.00
             7.8682724   0.068999095584993
             1.8812885    0.31642397975315
             0.5442493    0.74430825237435
 p    1 1.00
             0.1687144                   1
 d    1 1.00
                   0.8                   1

4 0
 s    3 1.00
             18.731137    0.03349459952309
             2.8253937    0.23472694665786
             0.6401217    0.81375731841339
 s    1 1.00
             0.1612778                   1

5 0
 s    6 1.00
             3047.5249  0.0018347001629433
             457.36951    0.01403730124668
             103.94869   0.068842606114048
             29.210155    0.23218442062076
              9.286663    0.46794134155879
              3.163927    0.36231203217765
 s    3 1.00
             7.8682724   -0.11933240861517
             1.8812885   -0.16085421161283
             0.5442493     1.1434564825515
 s    1 1.00
             0.1687144                   1
 p    3 1.00
             7.8682724   0.068999095584993
             1.8812885    0.31642397975315
             0.5442493    0.74430825237435
 p    1 1.00
             0.1687144                   1
 d    1 1.00
                   0.8                   1

6 0
 s    3 1.00
             18.731137    0.03349459952309
             2.8253937    0.23472694665786
             0.6401217    0.81375731841339
 s    1 1.00
             0.1612778                   1

7 0
 s    6 1.00
             3047.5249  0.0018347001629433
             457.36951    0.01403730124668
             103.94869   0.068842606114048
             29.210155    0.23218442062076
              9.286663    0.46794134155879
              3.163927    0.36231203217765
 s    3 1.00
             7.8682724   -0.11933240861517
             1.8812885   -0.16085421161283
             0.5442493     1.1434564825515
 s    1 1.00
             0.1687144                   1
 p    3 1.00
             7.8682724   0.068999095584993
             1.8812885    0.31642397975315
             0.5442493    0.74430825237435
 p    1 1.00
             0.1687144                   1
 d    1 1.00
                   0.8                   1

8 0
 s    3 1.00
             18.731137    0.03349459952309
             2.8253937    0.23472694665786
             0.6401217    0.81375731841339
 s    1 1.00
             0.1612778                   1

9 0
 s    3 1.00
             18.731137    0.03349459952309
             2.8253937    0.23472694665786
             0.6401217    0.81375731841339
 s    1 1.00
             0.1612778                   1

10 0
 s    6 1.00
             3047.5249  0.0018347001629433
             457.36951    0.01403730124668
             103.94869   0.068842606114048
             29.210155    0.23218442062076
              9.286663    0.46794134155879
              3.163927    0.36231203217765
 s    3 1.00
             7.8682724   -0.11933240861517
             1.8812885   -0.16085421161283
             0.5442493     1.1434564825515
 s    1 1.00
             0.1687144                   1
 p    3 1.00
             7.8682724   0.068999095584993
             1.8812885    0.31642397975315
             0.5442493    0.74430825237435
 p    1 1.00
             0.1687144                   1
 d    1 1.00
                   0.8                   1

11 0
 s    3 1.00
             18.731137    0.03349459952309
             2.8253937    0.23472694665786
             0.6401217    0.81375731841339
 s    1 1.00
             0.1612778                   1

12 0
 s    6 1.00
             3047.5249  0.0018347001629433
             457.36951    0.01403730124668
             103.94869   0.068842606114048
             29.210155    0.23218442062076
              9.286663    0.46794134155879
              3.163927    0.36231203217765
 s    3 1.00
             7.8682724   -0.11933240861517
             1.8812885   -0.16085421161283
             0.5442493     1.1434564825515
 s    1 1.00
             0.1687144                   1
 p    3 1.00
             7.8682724   0.068999095584993
             1.8812885    0.31642397975315
             0.5442493    0.74430825237435
 p    1 1.00
             0.1687144                   1
 d    1 1.00
                   0.8                   1

13 0
 s    3 1.00
             18.731137    0.03349459952309
             2.8253937    0.23472694665786
             0.6401217    0.81375731841339
 s    1 1.00
             0.1612778                   1

14 0
 s    3 1.00
             18.731137    0.03349459952309
             2.8253937    0.23472694665786
             0.6401217    0.81375731841339
 s    1 1.00
             0.1612778                   1

15 0
 s    6 1.00
             3047.5249  0.0018347001629433
             457.36951    0.01403730124668
             103.94869   0.068842606114048
             29.210155    0.23218442062076
              9.286663    0.46794134155879
              3.163927    0.36231203217765
 s    3 1.00
             7.8682724   -0.11933240861517
             1.8812885   -0.16085421161283
             0.5442493     1.1434564825515
 s    1 1.00
             0.1687144                   1
 p    3 1.00
             7.8682724   0.068999095584993
             1.8812885    0.31642397975315
             0.5442493    0.74430825237435
 p    1 1.00
             0.1687144                   1
 d    1 1.00
                   0.8                   1

16 0
 s    6 1.00
             3047.5249  0.0018347001629433
             457.36951    0.01403730124668
             103.94869   0.068842606114048
             29.210155    0.23218442062076
              9.286663    0.46794134155879
              3.163927    0.36231203217765
 s    3 1.00
             7.8682724   -0.11933240861517
             1.8812885   -0.16085421161283
             0.5442493     1.1434564825515
 s    1 1.00
             0.1687144                   1
 p    3 1.00
             7.8682724   0.068999095584993
             1.8812885    0.31642397975315
             0.5442493    0.74430825237435
 p    1 1.00
             0.1687144                   1
 d    1 1.00
                   0.8                   1

17 0
 s    6 1.00
             3047.5249  0.0018347001629433
             457.36951    0.01403730124668
             103.94869   0.068842606114048
             29.210155    0.23218442062076
              9.286663    0.46794134155879
              3.163927    0.36231203217765
 s    3 1.00
             7.8682724   -0.11933240861517
             1.8812885   -0.16085421161283
             0.5442493     1.1434564825515
 s    1 1.00
             0.1687144                   1
 p    3 1.00
             7.8682724   0.068999095584993
             1.8812885    0.31642397975315
             0.5442493    0.74430825237435
 p    1 1.00
             0.1687144                   1
 d    1 1.00
                   0.8                   1

18 0
 s    6 1.00
             3047.5249  0.0018347001629433
             457.36951    0.01403730124668
             103.94869   0.068842606114048
             29.210155    0.23218442062076
              9.286663    0.46794134155879
              3.163927    0.36231203217765
 s    3 1.00
             7.8682724   -0.11933240861517
             1.8812885   -0.16085421161283
             0.5442493     1.1434564825515
 s    1 1.00
             0.1687144                   1
 p    3 1.00
             7.8682724   0.068999095584993
             1.8812885    0.31642397975315
             0.5442493    0.74430825237435
 p    1 1.00
             0.1687144                   1
 d    1 1.00
                   0.8                   1

19 0
 s    6 1.00
             3047.5249  0.0018347001629433
             457.36951    0.01403730124668
             103.94869   0.068842606114048
             29.210155    0.23218442062076
              9.286663    0.46794134155879
              3.163927    0.36231203217765
 s    3 1.00
             7.8682724   -0.11933240861517
             1.8812885   -0.16085421161283
             0.5442493     1.1434564825515
 s    1 1.00
             0.1687144                   1
 p    3 1.00
             7.8682724   0.068999095584993
             1.8812885    0.31642397975315
             0.5442493    0.74430825237435
 p    1 1.00
             0.1687144                   1
 d    1 1.00
                   0.8                   1

20 0
 s    6 1.00
             3047.5249  0.0018347001629433
             457.36951    0.01403730124668
             103.94869   0.068842606114048
             29.210155    0.23218442062076
              9.286663    0.46794134155879
              3.163927    0.36231203217765
 s    3 1.00
             7.8682724   -0.11933240861517
             1.8812885   -0.16085421161283
             0.5442493     1.1434564825515
 s    1 1.00
             0.1687144                   1
 p    3 1.00
             7.8682724   0.068999095584993
             1.8812885    0.31642397975315
             0.5442493    0.74430825237435
 p    1 1.00
             0.1687144                   1
 d    1 1.00
                   0.8                   1

21 0
 s    6 1.00
             3047.5249  0.0018347001629433
             457.36951    0.01403730124668
             103.94869   0.068842606114048
             29.210155    0.23218442062076
              9.286663    0.46794134155879
              3.163927    0.36231203217765
 s    3 1.00
             7.8682724   -0.11933240861517
             1.8812885   -0.16085421161283
             0.5442493     1.1434564825515
 s    1 1.00
             0.1687144                   1
 p    3 1.00
             7.8682724   0.068999095584993
             1.8812885    0.31642397975315
             0.5442493    0.74430825237435
 p    1 1.00
             0.1687144                   1
 d    1 1.00
                   0.8                   1

22 0
 s    3 1.00
             18.731137    0.03349459952309
             2.8253937    0.23472694665786
             0.6401217    0.81375731841339
 s    1 1.00
             0.1612778                   1

23 0
 s    3 1.00
             18.731137    0.03349459952309
             2.8253937    0.23472694665786
             0.6401217    0.81375731841339
 s    1 1.00
             0.1612778                   1

24 0
 s    3 1.00
             18.731137    0.03349459952309
             2.8253937    0.23472694665786
             0.6401217    0.81375731841339
 s    1 1.00
             0.1612778                   1

25 0
 s    3 1.00
             18.731137    0.03349459952309
             2.8253937    0.23472694665786
             0.6401217    0.81375731841339
 s    1 1.00
             0.1612778                   1

26 0
 s    3 1.00
             18.731137    0.03349459952309
             2.8253937    0.23472694665786
             0.6401217    0.81375731841339
 s    1 1.00
             0.1612778                   1

27 0
 s    3 1.00
             18.731137    0.03349459952309
             2.8253937    0.23472694665786
             0.6401217    0.81375731841339
 s    1 1.00
             0.1612778                   1

28 0
 s    3 1.00
             18.731137    0.03349459952309
             2.8253937    0.23472694665786
             0.6401217    0.81375731841339
 s    1 1.00
             0.1612778                   1

29 0
 s    3 1.00
             18.731137    0.03349459952309
             2.8253937    0.23472694665786
             0.6401217    0.81375731841339
 s    1 1.00
             0.1612778                   1

30 0
 s    3 1.00
             18.731137    0.03349459952309
             2.8253937    0.23472694665786
             0.6401217    0.81375731841339
 s    1 1.00
             0.1612778                   1

31 0
 s    3 1.00
             18.731137    0.03349459952309
             2.8253937    0.23472694665786
             0.6401217    0.81375731841339
 s    1 1.00
             0.1612778                   1

32 0
 s    3 1.00
             18.731137    0.03349459952309
             2.8253937    0.23472694665786
             0.6401217    0.81375731841339
 s    1 1.00
             0.1612778                   1

33 0
 s    6 1.00
             3047.5249  0.0018347001629433
             457.36951    0.01403730124668
             103.94869   0.068842606114048
             29.210155    0.23218442062076
              9.286663    0.46794134155879
              3.163927    0.36231203217765
 s    3 1.00
             7.8682724   -0.11933240861517
             1.8812885   -0.16085421161283
             0.5442493     1.1434564825515
 s    1 1.00
             0.1687144                   1
 p    3 1.00
             7.8682724   0.068999095584993
             1.8812885    0.31642397975315
             0.5442493    0.74430825237435
 p    1 1.00
             0.1687144                   1
 d    1 1.00
                   0.8                   1

34 0
 s    6 1.00
             3047.5249  0.0018347001629433
             457.36951    0.01403730124668
             103.94869   0.068842606114048
             29.210155    0.23218442062076
              9.286663    0.46794134155879
              3.163927    0.36231203217765
 s    3 1.00
             7.8682724   -0.11933240861517
             1.8812885   -0.16085421161283
             0.5442493     1.1434564825515
 s    1 1.00
             0.1687144                   1
 p    3 1.00
             7.8682724   0.068999095584993
             1.8812885    0.31642397975315
             0.5442493    0.74430825237435
 p    1 1.00
             0.1687144                   1
 d    1 1.00
                   0.8                   1

35 0
 s    3 1.00
             18.731137    0.03349459952309
             2.8253937    0.23472694665786
             0.6401217    0.81375731841339
 s    1 1.00
             0.1612778                   1

36 0
 s    6 1.00
             3047.5249  0.0018347001629433
             457.36951    0.01403730124668
             103.94869   0.068842606114048
             29.210155    0.23218442062076
              9.286663    0.46794134155879
              3.163927    0.36231203217765
 s    3 1.00
             7.8682724   -0.11933240861517
             1.8812885   -0.16085421161283
             0.5442493     1.1434564825515
 s    1 1.00
             0.1687144                   1
 p    3 1.00
             7.8682724   0.068999095584993
             1.8812885    0.31642397975315
             0.5442493    0.74430825237435
 p    1 1.00
             0.1687144                   1
 d    1 1.00
                   0.8                   1

37 0
 s    3 1.00
             18.731137    0.03349459952309
             2.8253937    0.23472694665786
             0.6401217    0.81375731841339
 s    1 1.00
             0.1612778                   1

38 0
 s    3 1.00
             18.731137    0.03349459952309
             2.8253937    0.23472694665786
             0.6401217    0.81375731841339
 s    1 1.00
             0.1612778                   1

39 0
 s    6 1.00
             3047.5249  0.0018347001629433
             457.36951    0.01403730124668
             103.94869   0.068842606114048
             29.210155    0.23218442062076
              9.286663    0.46794134155879
              3.163927    0.36231203217765
 s    3 1.00
             7.8682724   -0.11933240861517
             1.8812885   -0.16085421161283
             0.5442493     1.1434564825515
 s    1 1.00
             0.1687144                   1
 p    3 1.00
             7.8682724   0.068999095584993
             1.8812885    0.31642397975315
             0.5442493    0.74430825237435
 p    1 1.00
             0.1687144                   1
 d    1 1.00
                   0.8                   1

40 0
 s    6 1.00
             3047.5249  0.0018347001629433
             457.36951    0.01403730124668
             103.94869   0.068842606114048
             29.210155    0.23218442062076
              9.286663    0.46794134155879
              3.163927    0.36231203217765
 s    3 1.00
             7.8682724   -0.11933240861517
             1.8812885   -0.16085421161283
             0.5442493     1.1434564825515
 s    1 1.00
             0.1687144                   1
 p    3 1.00
             7.8682724   0.068999095584993
             1.8812885    0.31642397975315
             0.5442493    0.74430825237435
 p    1 1.00
             0.1687144                   1
 d    1 1.00
                   0.8                   1

41 0
 s    3 1.00
             18.731137    0.03349459952309
             2.8253937    0.23472694665786
             0.6401217    0.81375731841339
 s    1 1.00
             0.1612778                   1

42 0
 s    6 1.00
             5484.6717   0.001831099805527
             825.23495   0.013950098518422
             188.04696    0.06844509273075
               52.9645    0.23271427528445
              16.89757    0.47019295006289
             5.7996353    0.35852086192309
 s    3 1.00
             15.539616   -0.11077750382508
             3.5999336   -0.14802630511126
             1.0137618     1.1307670390447
 s    1 1.00
             0.2700058                   1
 p    3 1.00
             15.539616   0.070874299543311
             3.5999336    0.33975279781076
             1.0137618    0.72715859531445
 p    1 1.00
             0.2700058                   1
 d    1 1.00
                   0.8                   1

43 0
 s    3 1.00
             18.731137    0.03349459952309
             2.8253937    0.23472694665786
             0.6401217    0.81375731841339
 s    1 1.00
             0.1612778                   1

[5d]
[7f]
[9g]

[MO]
 Sym= A
 Ene=               0
 Spin= Alpha
 Occup=    1.00000
   1     9.97025917202e-06
   2    7.8180288290381e-05
   3    -0.0010538234929438
   4    3.220522519237e-05
   5    -2.2046638864016e-05
   6    -6.7697380307391e-06
   7    4.5558570259111e-05
   8    4.9502935872022e-07
   9    0.00085289115693954
  10    -3.0399535646802e-05
  11    -2.581177862643e-05
  12    -6.1653694660253e-06
  13    -1.0959361973909e-06
  14    -1.2213849473481e-06
  15    2.5858524296831e-05
  16    2.7792539509705e-05
  17    -1.9157460390593e-05
  18    -8.4058758081135e-05
  19     0.002067935514226
  20    2.7388156717735e-05
  21    1.250335748352e-05
  22    -6.7011702276074e-05
  23    0.0013236796964134
  24    5.2035306550831e-05
  25    0.00024646303728633
  26    3.9048467349919e-05
  27    -2.6970858174442e-05
  28    7.1783875795403e-06
  29    2.6994556029492e-05
  30    2.6666722351451e-05
  31    4.7684259388248e-05
  32    0.00028227894455574
  33    6.0757065338473e-05
  34    0.00037686154548864
  35    -0.0050644486557038
  36    -9.6315336077816e-05
  37    -1.8637000468979e-05
  38    7.5476227315155e-05
  39    -0.0022638142621716
  40    0.00090908072496302
  41    -0.0010443030792279
  42    2.2656569992646e-05
  43    5.9968436867989e-05
  44    3.5696390173945e-05
  45    -0.00013135764068077
  46    4.2898299386588e-05
  47    -4.2559861385427e-05
  48    -0.00044486518496656
  49     4.48565143276e-05
  50    0.00017630932300445
  51    0.0039706739487349
  52    0.00038164609994932
  53    -5.1139311037798e-05
  54    -9.2453810850885e-05
  55    -0.0040839635733218
  56    0.00078388789591775
  57    0.00035888108868396
  58    -0.00017583090812329
  59    1.4210451121037e-05
  60    0.00011906252283259
  61    0.00010541577773609
  62    -4.7900881880098e-05
  63    0.00028410629471123
  64    0.00019276918550465
  65    2.5178396411464e-07
  66    -1.042172856976e-06
  67    6.1370807029606e-08
  68    4.9078438093333e-07
  69    1.2790340181109e-06
  70    -4.7976273354401e-07
  71    6.6014115549167e-07
  72    6.7264731856706e-08
  73    -1.9250619846705e-06
  74    -1.4111147645382e-06
  75    4.5039148912836e-07
  76    -2.5783825799903e-07
  77    -1.7654105546829e-07
  78    -6.2241040672862e-08
  79    -1.1553035797027e-07
  80    -1.8478814553554e-07
  81    -1.875132594736e-07
  82    -1.3128387530584e-06
  83    -2.1030016743857e-07
  84    -2.0829644185865e-06
  85    -7.6969080036457e-06
  86    4.5973553358837e-07
  87    -7.132594603679e-07
  88    2.9131182414953e-07
  89    -1.1895116723073e-06
  90    7.1843853802799e-06
  91    5.1288139745488e-06
  92    1.4420591662059e-07
  93    1.2449161088319e-07
  94    -4.5067968690198e-07
  95    3.8802549549936e-07
  96    -1.2696100495264e-07
  97    -7.6301239067943e-07
  98    -1.4975702698099e-06
  99    8.6936202596529e-07
 100    1.964583028679e-06
 101    5.6199844444807e-07
 102    2.9094081077978e-06
 103    -6.5184646714238e-05
 104    1.7981900656121e-06
 105    -2.4523055534775e-07
 106    4.179033279097e-07
 107    1.1687672678982e-05
 108    -1.3879254148105e-05
 109    4.206618268582e-05
 110    -6.0087266086546e-07
 111    -1.4084465542154e-06
 112    5.9332368933402e-07
 113    -6.2017292344305e-08
 114    7.2402973280878e-07
 115    -3.6112877957547e-07
 116    -3.0526119153741e-06
 117    2.253498427413e-05
 118    -2.8586572474818e-07
 119    -9.4694148380914e-07
 120    1.4364149340221e-06
 121    -1.1417237462127e-05
 122    1.4401068264137e-05
 123    -1.658414133869e-06
 124    -6.3210980897154e-07
 125    -5.7843878108088e-08
 126    9.1291760577268e-07
 127    5.537990928432e-07
 128    -2.8070082257972e-07
 129    -1.049894839122e-06
 130    -6.124165183646e-06
 131    4.6620898113625e-05
 132    -3.3956330863847e-06
 133    1.3626176591946e-06
 134    2.4789161382473e-06
 135    7.2238185286156e-05
 136    -1.8102086687733e-05
 137    -7.2659704680472e-05
 138    2.3125504775363e-06
 139    7.7964346303819e-07
 140    -1.9849556287254e-06
 141    2.7972058693579e-07
 142    -2.0618743531395e-06
 143    -6.6555737404054e-07
 144    -4.4639001895856e-06
 145    6.324613028923e-05
 146    -5.3829552328828e-07
 147    -1.7169965406349e-07
 148    -3.5712430634657e-06
 149    3.1420425247937e-05
 150    -2.6503569421123e-05
 151    1.0774637077423e-05
 152    1.0572982046497e-07
 153    -2.6098778281025e-07
 154    1.327034605435e-06
 155    6.8813668415118e-07
 156    -3.2614526218972e-07
 157    -4.4176577722309e-07
 158    -4.0419737679107e-06
 159    2.1351419533197e-05
 160    -4.9433435609074e-07
 161    -1.766723709619e-07
 162    4.8802033843897e-07
 163    2.1705011060378e-06
 164    -8.4871422287939e-06
 165    -2.7152413360643e-06
 166    -2.5091645826336e-07
 167    -2.1935112999308e-07
 168    5.1965374679921e-08
 169    -6.1518311026547e-07
 170    -4.2346747926421e-09
 171    1.3833218627937e-08
 172    4.3563177786788e-07
 173    8.9771173988103e-10
 174    6.6606577730843e-07
 175    -2.6977290558071e-08
 176    -1.3731867891893e-06
 177    -1.1388862857104e-05
 178    1.4813286968382e-06
 179    -2.1410349420454e-06
 180    1.3638063620744e-07
 181    -1.0843567911751e-06
 182    2.0975785916914e-07
 183    -8.8645468013133e-07
 184    -7.4373148536886e-07
 185    4.011184048428e-07
 186    2.6937121319837e-06
 187    -2.7406457592647e-05
 188    8.6421093746256e-07
 189     2.88790968438e-07
 190    1.4296898509384e-06
 191    3.1537681891557e-06
 192    5.9951246064374e-06
 193    1.099844398628e-05
 194    -6.0616788698351e-07
 195    -7.5220825454371e-07
 196    -7.1032013115307e-07
 197    5.3457639307101e-07
 198    -4.5462299986965e-07
 199    1.1659396764686e-06
 200    -9.7516230242207e-07
 201    4.389834849197e-07
 202    1.5008077058466e-06
 203    5.6590126026882e-07
 204    5.2990480960155e-06
 205    -2.2736249565118e-06
 206    2.7553449159755e-08
 207    -2.58776314833e-06
 208    -1.0110561486167e-07
 209    -1.2453523221414e-06
 210    -4.05754622515e-06
 211    -8.5579042453488e-07
 212    -1.0984969816634e-06
 213    -6.3922101319198e-07
 214    2.4167051871831e-06
 215    2.5000267126692e-06
 216    -1.2621393072437e-05
 217    -9.0285714157637e-07
 218    -2.4061212586529e-06
 219    7.0717780584547e-08
 220    3.3636443841511e-06
 221    3.3499505010512e-06
 222    2.1356388201691e-05
 223    -0.00032102070439555
 224    -1.4562301469452e-06
 225    -4.2192924569713e-06
 226    5.6101411241604e-06
 227    -9.8733927752411e-05
 228    -2.9254780468806e-05
 229    0.00011277420777679
 230    -6.2321989409389e-06
 231    3.9464339946415e-06
 232    5.1213759710558e-06
 233    -2.0786559904084e-06
 234    -1.8113466941871e-06
 235    -3.629277170371e-06
 236    -1.9061405026068e-05
 237    0.00046935895470067
 238    5.5585930937751e-06
 239    6.9501998793127e-06
 240    -1.4696119727351e-05
 241    -0.00019019766656189
 242    -5.630936148569e-05
 243    4.8343060217487e-05
 244    8.046136711309e-06
 245    -4.0452751746001e-06
 246    -6.262829649747e-06
 247    1.0883460566996e-06
 248    -3.7049432287483e-07
 249    3.1353568786898e-08
 250    7.3866493103882e-06
 251    -8.2395225451697e-07
 252    -4.2091651832332e-07
 253    -0.00029337056096603
 254    7.2330632772158e-06
 255    1.7460544645992e-06
 256    2.0225096961632e-05
 257    -0.00019232321279178
 258    -5.7810745658144e-05
 259    -0.00025150475608881
 260    -1.2355755986678e-06
 261    -5.3282550653968e-06
 262    4.2848155579515e-06
 263    3.3230444653957e-06
 264    -6.866801437241e-06
 265    1.4252797775436e-05
 266    6.6722269468047e-06
 267    -1.9586529234037e-05
 268    -6.5490822978495e-05
 269    -8.1026553915777e-06
 270    -4.9717311082853e-05
 271    0.0031727384528624
 272    0.00010122075566036
 273    -8.677832225481e-05
 274    0.0001318990533291
 275    0.0025696827889535
 276    0.00082400297687508
 277    -0.0028357795258435
 278    -8.768354695036e-05
 279    -0.00032408239041735
 280    8.9200844900057e-05