[Molden Format]
made by pyscf v[2.0.1]
[Atoms] (AU)
C   1   6    -0.00491185910195    -0.00302299034612    -6.30478139015019
O   2   8    -0.00302499062123    -0.00226824280266    -4.17507277885027
[GTO]
1 0
 s    5 1.00
          1238.4016938  0.0055173650481097
          186.29004992   0.041088828555946
          42.251176346     0.1822538212649
          11.676557932    0.46828459437429
          3.5930506482    0.44575817336002
 s    1 1.00
         0.40245147363                   1
 s    1 1.00
         0.13090182668                   1
 p    3 1.00
          9.4680970621   0.056888332011037
          2.0103545142    0.31294059336471
         0.54771004707    0.76065016509135
 p    1 1.00
         0.15268613795                   1
 d    1 1.00
                   0.8                   1

2 0
 s    5 1.00
          2266.1767785  -0.0053893503921743
          340.87010191   -0.04023472138896
          77.363135167   -0.18008184205526
           21.47964494   -0.46828857657651
          6.6589433124   -0.44692617160187
 s    1 1.00
         0.80975975668                   1
 s    1 1.00
         0.25530772234                   1
 p    3 1.00
          17.721504317   0.062630248763161
           3.863550544    0.33331138482352
          1.0480920883    0.74148638308122
 p    1 1.00
         0.27641544411                   1
 d    1 1.00
                   1.2                   1

[5d]
[7f]
[9g]

[MO]
 Sym= A
 Ene=               0
 Spin= Alpha
 Occup=    1.00000
   1    -0.0026827620232221
   2    0.0047430397279207
   3    -0.0089679547265465
   4    2.9018310082495e-06
   5    1.1607326463713e-06
   6    0.0032751790133317
   7    -7.067636654167e-06
   8    -2.827055222847e-06
   9    -0.0079772784100232
  10     0.002324596044641
  11    3.5672038352084e-06
  12    1.426881818836e-06
  13    1.327813195971e-09
  14    1.263976291197e-09
  15      0.98369633939698
  16    -0.052435164206487
  17     0.020135372312631
  18    -3.8643425186211e-06
  19    -1.5457372805964e-06
  20    -0.0043620685542526
  21    -8.3404983580242e-06
  22    -3.3362000128081e-06
  23    -0.0094139017252094
  24    -0.00056870156664914
  25    -8.7280047695249e-07
  26    -3.4912027203737e-07
  27    -3.2699226141906e-10
  28    -3.0820403323717e-10
 Sym= A
 Ene=               1
 Spin= Alpha
 Occup=    1.00000
   1     -0.98325509665113
   2    -0.056076352541942
   3    -0.0028872823556826
   4    2.4582861396173e-06
   5    9.8331459931237e-07
   6    0.0027749769547063
   7    -9.8139733220428e-07
   8    -3.9255900544151e-07
   9    -0.001107651473876
  10    -0.0022623376696851
  11    -3.4717823004818e-06
  12    -1.388713217814e-06
  13    -1.2921123270106e-09
  14    -1.2301655692045e-09
  15    0.00060338687495089
  16    0.0033498589289775
  17     0.012660145405185
  18    -4.4209193505766e-06
  19    -1.7683681192814e-06
  20    -0.0049899806994459
  21    -8.913259865307e-06
  22    -3.5653046721889e-06
  23    -0.010060421416663
  24    0.00026139390269086
  25    4.0084476995026e-07
  26    1.6033792512548e-07
  27    1.4980745535453e-10
  28    1.4133624600609e-10
 Sym= A
 Ene=               2
 Spin= Alpha
 Occup=    1.00000
   1        0.175437509678
   2     -0.34905620256293
   3    -0.0076705639888814
   4    -0.0002667799481208
   5    -0.00010671200097518
   6     -0.30111334874731
   7    -1.6519069576741e-05
   8    -6.6076291501514e-06
   9    -0.018644466367011
  10    -0.035250496778289
  11    -5.4091942954716e-05
  12    -2.1636781616679e-05
  13    -2.0177630591836e-08
  14    -1.9146866366778e-08
  15     -0.20235772862455
  16     -0.39674560028268
  17    -0.096083257719948
  18    0.00031988396274836
  19    0.00012795361058618
  20      0.36105586155559
  21    9.075397831919e-05
  22    3.6301598578408e-05
  23      0.10243501651805
  24    -0.021998674246901
  25    -3.37590595968e-05
  26    -1.3503626608992e-05
  27    -1.2551498933376e-08
  28    -1.1971946660939e-08
