[Molden Format]
made by pyscf v[2.0.1]
[Atoms] (AU)
O   1   8     0.00000000000000     0.00000000000000     9.80791491072852
H   2   1     0.00000000000000     0.00000000000000     7.98451308882755
H   3   1    -0.05031916615174     1.78353065140343    10.18378660719519
O   4   8     0.00000000000000     0.00000000000000     2.31533471513237
C   5   6     0.00000000000000     0.00000000000000     0.00000000000000
C   6   6     2.01118073026938    -1.40227222164369    -1.50774939176400
C   7   6    -2.01249334291722     1.41331050329955    -1.50315905028694
H   8   1     3.32037363730244    -2.26721897153159    -0.13599698591495
C   9   6     3.45899267434009     0.28739631745591    -3.37437943254505
H   10   1     1.07662969841332    -2.94725144642667    -2.56541439481080
H   11   1    -2.67503415753480     0.18421555839588    -3.06194479365997
H   12   1    -1.07974048864772     3.03851734677796    -2.43674295017013
C   13   6    -4.21607110578555     2.32938802552922     0.11994162256091
H   14   1     4.24440173074564     1.93368664142019    -2.34976285512790
H   15   1     2.15020713235517     1.04714335134846    -4.81494497423699
C   16   6     5.60746363007797    -1.12419643481196    -4.70268606082550
H   17   1    -3.46838323670267     3.50951302338067     1.66946842715333
H   18   1    -5.11873485366228     0.68575958301209     1.04047743976495
C   19   6    -6.18314754751344     3.80909592987882    -1.39656589068747
H   20   1     6.93011263717176    -1.87550812453645    -3.26656317360070
C   21   6     7.06356622236532     0.52877932406334    -6.57829775293605
H   22   1     4.82318879258361    -2.78573437948532    -5.70504560381835
H   23   1    -6.91582688743803     2.61304780074712    -2.95074552451969
H   24   1    -5.26532430573853     5.45420349051338    -2.31005832200284
C   25   6    -8.39941882261433     4.73263980500213     0.21800571437956
H   26   1     7.83338371486801     2.19084139882824    -5.57093109900697
H   27   1     5.73544244039420     1.27376866537418    -8.01071492370229
C   28   6     9.21124858443101    -0.89699110072176    -7.88926949186242
H   29   1    -7.66272760055236     5.92277078003992     1.77035591474408
H   30   1    -9.31497248082589     3.08753015622020     1.12614408368786
C   31   6   -10.35481709231879     6.21833079391143    -1.30905206253246
H   32   1    10.58815905329501    -1.61074586756696    -6.49512691622620
H   33   1    10.23506248045667     0.32468009384095    -9.23072870921204
H   34   1     8.47665842847139    -2.53598436989925    -8.94921964622535
H   35   1    -9.48948872868064     7.90013588951020    -2.18823918416067
H   36   1   -11.93332513000955     6.86460487874102    -0.11255798845995
H   37   1   -11.15126291841033     5.04495968327630    -2.83849898862534
[GTO]
1 0
 s    8 1.00
                 11720  0.00070964594651845
                  1759  0.0054672722921914
                 400.8   0.027823118610189
                 113.7    0.10474773971146
                 37.03    0.28292084635691
                 13.27    0.44849523869833
                 5.025    0.27081688521277
                 1.013    0.01545029160744
 s    8 1.00
                 11720  -0.00031444341168873
                  1759  -0.0024821376810179
                 400.8  -0.012316355381583
                 113.7  -0.050538917343672
                 37.03   -0.13938490331632
                 13.27   -0.32507749481778
                 5.025   -0.22984830758785
                 1.013     1.0953793467883
 s    1 1.00
                0.3023                   1
 p    3 1.00
                  17.7   0.062679166281506
                 3.854    0.33353656587936
                 1.046    0.74123964163973
 p    1 1.00
                0.2753                   1
 d    1 1.00
                 1.185                   1

2 0
 s    3 1.00
                 13.01   0.033498726389998
                 1.962    0.23480080117413
                0.4446     0.8136829578829
 s    1 1.00
                 0.122                   1
 p    1 1.00
                 0.727                   1

3 0
 s    3 1.00
                 13.01   0.033498726389998
                 1.962    0.23480080117413
                0.4446     0.8136829578829
 s    1 1.00
                 0.122                   1
 p    1 1.00
                 0.727                   1

4 0
 s    8 1.00
                 11720  0.00070964594651845
                  1759  0.0054672722921914
                 400.8   0.027823118610189
                 113.7    0.10474773971146
                 37.03    0.28292084635691
                 13.27    0.44849523869833
                 5.025    0.27081688521277
                 1.013    0.01545029160744
 s    8 1.00
                 11720  -0.00031444341168873
                  1759  -0.0024821376810179
                 400.8  -0.012316355381583
                 113.7  -0.050538917343672
                 37.03   -0.13938490331632
                 13.27   -0.32507749481778
                 5.025   -0.22984830758785
                 1.013     1.0953793467883
 s    1 1.00
                0.3023                   1
 p    3 1.00
                  17.7   0.062679166281506
                 3.854    0.33353656587936
                 1.046    0.74123964163973
 p    1 1.00
                0.2753                   1
 d    1 1.00
                 1.185                   1

5 0
 s    8 1.00
                  6665  0.00069158396281299
                  1000  0.0053257961529341
                   228   0.027060721042034
                 64.71    0.10165684614077
                 21.06     0.2745748236174
                 7.495    0.44829431892377
                 2.797    0.28490261071525
                0.5215   0.015194859206082
 s    8 1.00
                  6665  -0.00029326965268655
                  1000  -0.0023180354739745
                   228  -0.011499786038565
                 64.71  -0.046826727009787
                 21.06   -0.12846616875047
                 7.495   -0.30126627246289
                 2.797   -0.25563070233011
                0.5215      1.093793361012
 s    1 1.00
                0.1596                   1
 p    3 1.00
                 9.439   0.056979251590039
                 2.002    0.31320721150073
                0.5456    0.76037674173753
 p    1 1.00
                0.1517                   1
 d    1 1.00
                  0.55                   1

6 0
 s    8 1.00
                  6665  0.00069158396281299
                  1000  0.0053257961529341
                   228   0.027060721042034
                 64.71    0.10165684614077
                 21.06     0.2745748236174
                 7.495    0.44829431892377
                 2.797    0.28490261071525
                0.5215   0.015194859206082
 s    8 1.00
                  6665  -0.00029326965268655
                  1000  -0.0023180354739745
                   228  -0.011499786038565
                 64.71  -0.046826727009787
                 21.06   -0.12846616875047
                 7.495   -0.30126627246289
                 2.797   -0.25563070233011
                0.5215      1.093793361012
 s    1 1.00
                0.1596                   1
 p    3 1.00
                 9.439   0.056979251590039
                 2.002    0.31320721150073
                0.5456    0.76037674173753
 p    1 1.00
                0.1517                   1
 d    1 1.00
                  0.55                   1

7 0
 s    8 1.00
                  6665  0.00069158396281299
                  1000  0.0053257961529341
                   228   0.027060721042034
                 64.71    0.10165684614077
                 21.06     0.2745748236174
                 7.495    0.44829431892377
                 2.797    0.28490261071525
                0.5215   0.015194859206082
 s    8 1.00
                  6665  -0.00029326965268655
                  1000  -0.0023180354739745
                   228  -0.011499786038565
                 64.71  -0.046826727009787
                 21.06   -0.12846616875047
                 7.495   -0.30126627246289
                 2.797   -0.25563070233011
                0.5215      1.093793361012
 s    1 1.00
                0.1596                   1
 p    3 1.00
                 9.439   0.056979251590039
                 2.002    0.31320721150073
                0.5456    0.76037674173753
 p    1 1.00
                0.1517                   1
 d    1 1.00
                  0.55                   1

8 0
 s    3 1.00
                 13.01   0.033498726389998
                 1.962    0.23480080117413
                0.4446     0.8136829578829
 s    1 1.00
                 0.122                   1
 p    1 1.00
                 0.727                   1

9 0
 s    8 1.00
                  6665  0.00069158396281299
                  1000  0.0053257961529341
                   228   0.027060721042034
                 64.71    0.10165684614077
                 21.06     0.2745748236174
                 7.495    0.44829431892377
                 2.797    0.28490261071525
                0.5215   0.015194859206082
 s    8 1.00
                  6665  -0.00029326965268655
                  1000  -0.0023180354739745
                   228  -0.011499786038565
                 64.71  -0.046826727009787
                 21.06   -0.12846616875047
                 7.495   -0.30126627246289
                 2.797   -0.25563070233011
                0.5215      1.093793361012
 s    1 1.00
                0.1596                   1
 p    3 1.00
                 9.439   0.056979251590039
                 2.002    0.31320721150073
                0.5456    0.76037674173753
 p    1 1.00
                0.1517                   1
 d    1 1.00
                  0.55                   1

10 0
 s    3 1.00
                 13.01   0.033498726389998
                 1.962    0.23480080117413
                0.4446     0.8136829578829
 s    1 1.00
                 0.122                   1
 p    1 1.00
                 0.727                   1

11 0
 s    3 1.00
                 13.01   0.033498726389998
                 1.962    0.23480080117413
                0.4446     0.8136829578829
 s    1 1.00
                 0.122                   1
 p    1 1.00
                 0.727                   1

12 0
 s    3 1.00
                 13.01   0.033498726389998
                 1.962    0.23480080117413
                0.4446     0.8136829578829
 s    1 1.00
                 0.122                   1
 p    1 1.00
                 0.727                   1

13 0
 s    8 1.00
                  6665  0.00069158396281299
                  1000  0.0053257961529341
                   228   0.027060721042034
                 64.71    0.10165684614077
                 21.06     0.2745748236174
                 7.495    0.44829431892377
                 2.797    0.28490261071525
                0.5215   0.015194859206082
 s    8 1.00
                  6665  -0.00029326965268655
                  1000  -0.0023180354739745
                   228  -0.011499786038565
                 64.71  -0.046826727009787
                 21.06   -0.12846616875047
                 7.495   -0.30126627246289
                 2.797   -0.25563070233011
                0.5215      1.093793361012
 s    1 1.00
                0.1596                   1
 p    3 1.00
                 9.439   0.056979251590039
                 2.002    0.31320721150073
                0.5456    0.76037674173753
 p    1 1.00
                0.1517                   1
 d    1 1.00
                  0.55                   1

14 0
 s    3 1.00
                 13.01   0.033498726389998
                 1.962    0.23480080117413
                0.4446     0.8136829578829
 s    1 1.00
                 0.122                   1
 p    1 1.00
                 0.727                   1

15 0
 s    3 1.00
                 13.01   0.033498726389998
                 1.962    0.23480080117413
                0.4446     0.8136829578829
 s    1 1.00
                 0.122                   1
 p    1 1.00
                 0.727                   1

16 0
 s    8 1.00
                  6665  0.00069158396281299
                  1000  0.0053257961529341
                   228   0.027060721042034
                 64.71    0.10165684614077
                 21.06     0.2745748236174
                 7.495    0.44829431892377
                 2.797    0.28490261071525
                0.5215   0.015194859206082
 s    8 1.00
                  6665  -0.00029326965268655
                  1000  -0.0023180354739745
                   228  -0.011499786038565
                 64.71  -0.046826727009787
                 21.06   -0.12846616875047
                 7.495   -0.30126627246289
                 2.797   -0.25563070233011
                0.5215      1.093793361012
 s    1 1.00
                0.1596                   1
 p    3 1.00
                 9.439   0.056979251590039
                 2.002    0.31320721150073
                0.5456    0.76037674173753
 p    1 1.00
                0.1517                   1
 d    1 1.00
                  0.55                   1

17 0
 s    3 1.00
                 13.01   0.033498726389998
                 1.962    0.23480080117413
                0.4446     0.8136829578829
 s    1 1.00
                 0.122                   1
 p    1 1.00
                 0.727                   1

18 0
 s    3 1.00
                 13.01   0.033498726389998
                 1.962    0.23480080117413
                0.4446     0.8136829578829
 s    1 1.00
                 0.122                   1
 p    1 1.00
                 0.727                   1

19 0
 s    8 1.00
                  6665  0.00069158396281299
                  1000  0.0053257961529341
                   228   0.027060721042034
                 64.71    0.10165684614077
                 21.06     0.2745748236174
                 7.495    0.44829431892377
                 2.797    0.28490261071525
                0.5215   0.015194859206082
 s    8 1.00
                  6665  -0.00029326965268655
                  1000  -0.0023180354739745
                   228  -0.011499786038565
                 64.71  -0.046826727009787
                 21.06   -0.12846616875047
                 7.495   -0.30126627246289
                 2.797   -0.25563070233011
                0.5215      1.093793361012
 s    1 1.00
                0.1596                   1
 p    3 1.00
                 9.439   0.056979251590039
                 2.002    0.31320721150073
                0.5456    0.76037674173753
 p    1 1.00
                0.1517                   1
 d    1 1.00
                  0.55                   1

20 0
 s    3 1.00
                 13.01   0.033498726389998
                 1.962    0.23480080117413
                0.4446     0.8136829578829
 s    1 1.00
                 0.122                   1
 p    1 1.00
                 0.727                   1

21 0
 s    8 1.00
                  6665  0.00069158396281299
                  1000  0.0053257961529341
                   228   0.027060721042034
                 64.71    0.10165684614077
                 21.06     0.2745748236174
                 7.495    0.44829431892377
                 2.797    0.28490261071525
                0.5215   0.015194859206082
 s    8 1.00
                  6665  -0.00029326965268655
                  1000  -0.0023180354739745
                   228  -0.011499786038565
                 64.71  -0.046826727009787
                 21.06   -0.12846616875047
                 7.495   -0.30126627246289
                 2.797   -0.25563070233011
                0.5215      1.093793361012
 s    1 1.00
                0.1596                   1
 p    3 1.00
                 9.439   0.056979251590039
                 2.002    0.31320721150073
                0.5456    0.76037674173753
 p    1 1.00
                0.1517                   1
 d    1 1.00
                  0.55                   1

22 0
 s    3 1.00
                 13.01   0.033498726389998
                 1.962    0.23480080117413
                0.4446     0.8136829578829
 s    1 1.00
                 0.122                   1
 p    1 1.00
                 0.727                   1

23 0
 s    3 1.00
                 13.01   0.033498726389998
                 1.962    0.23480080117413
                0.4446     0.8136829578829
 s    1 1.00
                 0.122                   1
 p    1 1.00
                 0.727                   1

24 0
 s    3 1.00
                 13.01   0.033498726389998
                 1.962    0.23480080117413
                0.4446     0.8136829578829
 s    1 1.00
                 0.122                   1
 p    1 1.00
                 0.727                   1

25 0
 s    8 1.00
                  6665  0.00069158396281299
                  1000  0.0053257961529341
                   228   0.027060721042034
                 64.71    0.10165684614077
                 21.06     0.2745748236174
                 7.495    0.44829431892377
                 2.797    0.28490261071525
                0.5215   0.015194859206082
 s    8 1.00
                  6665  -0.00029326965268655
                  1000  -0.0023180354739745
                   228  -0.011499786038565
                 64.71  -0.046826727009787
                 21.06   -0.12846616875047
                 7.495   -0.30126627246289
                 2.797   -0.25563070233011
                0.5215      1.093793361012
 s    1 1.00
                0.1596                   1
 p    3 1.00
                 9.439   0.056979251590039
                 2.002    0.31320721150073
                0.5456    0.76037674173753
 p    1 1.00
                0.1517                   1
 d    1 1.00
                  0.55                   1

26 0
 s    3 1.00
                 13.01   0.033498726389998
                 1.962    0.23480080117413
                0.4446     0.8136829578829
 s    1 1.00
                 0.122                   1
 p    1 1.00
                 0.727                   1

27 0
 s    3 1.00
                 13.01   0.033498726389998
                 1.962    0.23480080117413
                0.4446     0.8136829578829
 s    1 1.00
                 0.122                   1
 p    1 1.00
                 0.727                   1

28 0
 s    8 1.00
                  6665  0.00069158396281299
                  1000  0.0053257961529341
                   228   0.027060721042034
                 64.71    0.10165684614077
                 21.06     0.2745748236174
                 7.495    0.44829431892377
                 2.797    0.28490261071525
                0.5215   0.015194859206082
 s    8 1.00
                  6665  -0.00029326965268655
                  1000  -0.0023180354739745
                   228  -0.011499786038565
                 64.71  -0.046826727009787
                 21.06   -0.12846616875047
                 7.495   -0.30126627246289
                 2.797   -0.25563070233011
                0.5215      1.093793361012
 s    1 1.00
                0.1596                   1
 p    3 1.00
                 9.439   0.056979251590039
                 2.002    0.31320721150073
                0.5456    0.76037674173753
 p    1 1.00
                0.1517                   1
 d    1 1.00
                  0.55                   1

29 0
 s    3 1.00
                 13.01   0.033498726389998
                 1.962    0.23480080117413
                0.4446     0.8136829578829
 s    1 1.00
                 0.122                   1
 p    1 1.00
                 0.727                   1

30 0
 s    3 1.00
                 13.01   0.033498726389998
                 1.962    0.23480080117413
                0.4446     0.8136829578829
 s    1 1.00
                 0.122                   1
 p    1 1.00
                 0.727                   1

31 0
 s    8 1.00
                  6665  0.00069158396281299
                  1000  0.0053257961529341
                   228   0.027060721042034
                 64.71    0.10165684614077
                 21.06     0.2745748236174
                 7.495    0.44829431892377
                 2.797    0.28490261071525
                0.5215   0.015194859206082
 s    8 1.00
                  6665  -0.00029326965268655
                  1000  -0.0023180354739745
                   228  -0.011499786038565
                 64.71  -0.046826727009787
                 21.06   -0.12846616875047
                 7.495   -0.30126627246289
                 2.797   -0.25563070233011
                0.5215      1.093793361012
 s    1 1.00
                0.1596                   1
 p    3 1.00
                 9.439   0.056979251590039
                 2.002    0.31320721150073
                0.5456    0.76037674173753
 p    1 1.00
                0.1517                   1
 d    1 1.00
                  0.55                   1

32 0
 s    3 1.00
                 13.01   0.033498726389998
                 1.962    0.23480080117413
                0.4446     0.8136829578829
 s    1 1.00
                 0.122                   1
 p    1 1.00
                 0.727                   1

33 0
 s    3 1.00
                 13.01   0.033498726389998
                 1.962    0.23480080117413
                0.4446     0.8136829578829
 s    1 1.00
                 0.122                   1
 p    1 1.00
                 0.727                   1

34 0
 s    3 1.00
                 13.01   0.033498726389998
                 1.962    0.23480080117413
                0.4446     0.8136829578829
 s    1 1.00
                 0.122                   1
 p    1 1.00
                 0.727                   1

35 0
 s    3 1.00
                 13.01   0.033498726389998
                 1.962    0.23480080117413
                0.4446     0.8136829578829
 s    1 1.00
                 0.122                   1
 p    1 1.00
                 0.727                   1

36 0
 s    3 1.00
                 13.01   0.033498726389998
                 1.962    0.23480080117413
                0.4446     0.8136829578829
 s    1 1.00
                 0.122                   1
 p    1 1.00
                 0.727                   1

37 0
 s    3 1.00
                 13.01   0.033498726389998
                 1.962    0.23480080117413
                0.4446     0.8136829578829
 s    1 1.00
                 0.122                   1
 p    1 1.00
                 0.727                   1

[5d]
[7f]
[9g]

[MO]
 Sym= A
 Ene=               0
 Spin= Alpha
 Occup=    1.00000
   1    3.6808583644597e-05
   2    3.5799185293822e-05
   3    -0.00012010486222001
   4    6.6363267202538e-08
   5    -4.7921754342391e-06
   6    -3.7677860164094e-06
   7    -5.9136524381807e-07
   8    2.3638218654349e-05
   9    8.2575395037635e-05
  10    -1.2851356259493e-05
  11    2.3014963740282e-09
  12     7.94175775379e-07
  13    -4.2314305778372e-07
  14    -1.7519880926155e-08
  15    1.5411220506759e-05
  16    0.00017553310153635
  17    1.4987411849195e-07
  18    -1.5650226402497e-06
  19    3.3232187911703e-05
  20    7.6196218228367e-06
  21    -6.568284095543e-05
  22    -1.8688361042742e-07
  23    5.7707866931231e-06
  24    -2.5472885132886e-06
  25      -1.0013626299947
  26    -0.0019576203432322
  27    0.0068281403402682
  28    1.970617307534e-06
  29    -8.3963507262858e-06
  30       0.0016700845115
  31    -1.6713969455505e-06
  32    3.4628011333133e-06
  33    -0.0018445501439242
  34    -0.0001228505665977
  35    3.6583900212614e-06
  36    -1.7890072690653e-06
  37    -6.6896936069663e-05
  38    0.00017440709952733
  39    -0.00030721215030182
  40    -0.0004418978018697
  41    -0.0015277427817804
  42    -3.643303689457e-05
  43    2.3828268323226e-05
  44    7.0773055028957e-05
  45    -3.8906960532217e-05
  46    3.2850311652179e-05
  47    -0.0035676500243659
  48    0.00049524403172148
  49    6.783274313262e-06
  50    -1.8037070145787e-06
  51    -2.2353809913183e-05
  52    7.7525655956967e-05
  53    0.00064284622571389
  54    0.00053983268066728
  55    -0.0011878318479042
  56    0.00017662820370801
  57    -0.0002571717422474
  58    0.00026992871293172
  59    0.00055790521181658
  60    -0.0006313537513736
  61    0.0010209853106189
  62    0.00011884836938953
  63    -0.0001204074951899
  64    0.00012551779597148
  65    -6.2007778993017e-05
  66    0.00013067781815466
  67    0.0005813709068171
  68    0.00042649170453957
  69    -0.00020523530376815
  70    -0.00019821965056221
  71    0.00018701375896389
  72    0.00031717943677799
  73    -0.0011435316285656
  74    0.0008856445325512
  75    0.00080490259743582
  76    0.00014254177461639
  77    8.9525433995473e-05
  78    -8.6547369971386e-05
  79    -4.6634218387932e-05
  80    0.00014697418231711
  81    0.00063378548663223
  82    -3.578712379281e-05
  83    -9.6894697714677e-05
  84    6.698023620949e-05
  85    -8.2607314643834e-05
  86    -3.6687878440255e-05
  87    2.7007314206818e-05
  88    0.00062840292959087
  89    -0.00013996410339433
  90    0.00028507797372303
  91    5.6468376153749e-05
  92    -0.0003578232441431
  93    -0.00048151685846157
  94    7.6012451036413e-05
  95    -4.6513261004624e-06
  96    8.8523488735649e-06
  97    -2.8425799926318e-05
  98    4.452016195184e-06
  99    6.1711982724614e-05
 100    0.00019724073650188
 101    0.00018060882557594
 102    8.362427928827e-06
 103    1.7900100747479e-05
 104    -5.6440615921804e-05
 105    -3.2850132504858e-05
 106    0.00014372075966752
 107    6.0449850620711e-05
 108    -3.7322363625508e-06
 109    -6.9812895852445e-05
 110    5.1798342813331e-05
 111    7.0121918281767e-05
 112    3.383545839601e-05
 113    -2.6639248196418e-05
 114    -5.7940573415412e-05
 115    0.00010998629366163
 116    0.00025662354782682
 117    -0.00078257293973675
 118    0.00041803898905279
 119    -0.0002114406895642
 120    -0.00019536010611663
 121    -0.00011790861063067
 122    -0.00013859879677177
 123    7.343454712457e-05
 124    1.3130804053769e-06
 125    -5.4504781853577e-05
 126    -3.1548051782419e-07
 127    5.060324577844e-05
 128    -5.9189392001825e-05
 129    0.00022230005047815
 130    0.00038663245111248
 131    -1.8465450909507e-05
 132    -1.4790048034252e-05
 133    -4.1175434188745e-05
 134    0.00017312602514126
 135    0.00023673655851844
 136    2.1531838908209e-05
 137    2.4745886146057e-05
 138    4.1303800475486e-05
 139    3.7350811151648e-05
 140    -7.8356228048472e-05
 141    -0.00038016937016889
 142    0.0001511213156885
 143    -5.5312162583633e-05
 144    -0.00012018821959934
 145     0.000302718801525
 146    -8.6569397955966e-05
 147    -0.00012697509727656
 148    2.0559739791566e-06
 149    5.2624213276992e-06
 150    7.2154777445713e-07
 151    -1.9224581080493e-05
 152    7.0482643872284e-06
 153    6.0064527706553e-05
 154    5.6806335794214e-05
 155    3.2699914005139e-05
 156    -3.4687395195834e-05
 157    -2.4353468553292e-05
 158    4.0523718044495e-05
 159    7.2872868273673e-05
 160    6.8855666798697e-05
 161    5.7592675569776e-06
 162    -1.2396235183561e-05
 163    -4.1738018144305e-05
 164    -0.00012766448828771
 165    0.00015457355012694
 166    -0.00012466419202373
 167    8.1494603458305e-05
 168    -4.6047734318204e-06
 169    -0.00032904643147234
 170    0.00026867020969627
 171    0.00013992200900406
 172    -7.362483973519e-06
 173    -2.4136647338693e-05
 174    2.1631145895173e-05
 175    2.5900662692516e-06
 176    1.227823538006e-05
 177    1.9058067349126e-06
 178    -5.8078753518725e-05
 179    7.1988395587243e-06
 180    -5.5477790704864e-06
 181    5.2191512741182e-06
 182    -2.2567435765999e-05
 183    -2.4289596676147e-05
 184    6.6996094760853e-05
 185    -2.3079411736748e-05
 186    -4.1142890097932e-05
 187    2.5009456860508e-05
 188    -0.00016710021420763
 189    9.1150823358365e-05
 190    0.00011721529430229
 191    -2.5014521892947e-06
 192    9.4113183788917e-07
 193    2.6058489094336e-06
 194    -1.8567849898532e-06
 195    7.6917906659961e-06
 196    8.3295653894954e-06
 197    3.8121253552966e-05
 198    -2.9507551315011e-06
 199    -6.7468515713158e-06
 200    -1.53991485431e-06
 201    -7.1589660135807e-05
 202    -3.5177119230626e-05
 203    5.4864536664207e-06
 204    -1.2320429505615e-05
 205    -1.8809005059656e-05
 206    -7.0355018577871e-05
 207    -8.200346584903e-05
 208    1.562804387347e-05
 209    4.7942831663194e-06
 210    -1.8943520118987e-05
 211    1.5396694517124e-06
 212    5.866851400032e-05
 213    -0.00022054051586821
 214    7.0049835768448e-05
 215    -2.7528702662076e-05
 216    -3.0943297494643e-05
 217    -0.00013217249893691
 218    2.357129518912e-05
 219    6.3474049357785e-05
 220    3.8274686888009e-06
 221    1.3002578630362e-05
 222    -3.7118691240399e-06
 223    -9.7313348998191e-06
 224    5.0132002391179e-06
 225    -4.1268912772746e-05
 226    -5.4390767789693e-05
 227    1.2669720248255e-05
 228    2.0150604951849e-06
 229    2.8336675395387e-06
 230    -1.8598682929339e-05
 231    -5.8322702744401e-05
 232    2.340532690958e-06
 233    -7.1792200225841e-06
 234    -1.2546249464234e-05
 235    -6.7962556560432e-07
 236    -1.5346372514077e-05
 237    7.7534350376799e-05
 238    1.5899575155281e-05
 239    -2.7362171512068e-06
 240    -8.3233206393063e-06
 241    -2.7892141892094e-05
 242    7.0961029160986e-05
 243    -2.4009383399238e-05
 244    -1.2378317623708e-06
 245    -4.0477098084497e-06
 246    3.290283666685e-07
 247    8.1787014597777e-07
 248    3.4550244960537e-07
 249    1.623205252607e-05
 250    -1.5370382731962e-05
 251    6.2293922225242e-06
 252    3.077007104385e-07
 253    -1.5766248410817e-06
 254    8.9174660934995e-06
 255    -5.8707982259887e-05
 256    1.7485389031291e-06
 257    -5.4011932253594e-06
 258    -5.215679831347e-07
 259    9.8484728640573e-06
 260    5.0124262400139e-06
 261    -8.9765905792797e-05
 262    -2.6316502369373e-05
 263    1.7353860997912e-05