[Molden Format]
made by pyscf v[2.0.1]
[Atoms] (AU)
O   1   8     0.00000000000000     0.00000000000000     7.54024356125045
H   2   1     0.00000000000000     0.00000000000000     5.71684173934948
H   3   1    -0.05031916615174     1.78353065140343     7.91611525771711
O   4   8     0.00000000000000     0.00000000000000     2.31533471513237
C   5   6     0.00000000000000     0.00000000000000     0.00000000000000
C   6   6     2.01118073026938    -1.40227222164369    -1.50774939176400
C   7   6    -2.01249334291722     1.41331050329955    -1.50315905028694
H   8   1     3.32037363730244    -2.26721897153159    -0.13599698591495
C   9   6     3.45899267434009     0.28739631745591    -3.37437943254505
H   10   1     1.07662969841332    -2.94725144642667    -2.56541439481080
H   11   1    -2.67503415753480     0.18421555839588    -3.06194479365997
H   12   1    -1.07974048864772     3.03851734677796    -2.43674295017013
C   13   6    -4.21607110578555     2.32938802552922     0.11994162256091
H   14   1     4.24440173074564     1.93368664142019    -2.34976285512790
H   15   1     2.15020713235517     1.04714335134846    -4.81494497423699
C   16   6     5.60746363007797    -1.12419643481196    -4.70268606082550
H   17   1    -3.46838323670267     3.50951302338067     1.66946842715333
H   18   1    -5.11873485366228     0.68575958301209     1.04047743976495
C   19   6    -6.18314754751344     3.80909592987882    -1.39656589068747
H   20   1     6.93011263717176    -1.87550812453645    -3.26656317360070
C   21   6     7.06356622236532     0.52877932406334    -6.57829775293605
H   22   1     4.82318879258361    -2.78573437948532    -5.70504560381835
H   23   1    -6.91582688743803     2.61304780074712    -2.95074552451969
H   24   1    -5.26532430573853     5.45420349051338    -2.31005832200284
C   25   6    -8.39941882261433     4.73263980500213     0.21800571437956
H   26   1     7.83338371486801     2.19084139882824    -5.57093109900697
H   27   1     5.73544244039420     1.27376866537418    -8.01071492370229
C   28   6     9.21124858443101    -0.89699110072176    -7.88926949186242
H   29   1    -7.66272760055236     5.92277078003992     1.77035591474408
H   30   1    -9.31497248082589     3.08753015622020     1.12614408368786
C   31   6   -10.35481709231879     6.21833079391143    -1.30905206253246
H   32   1    10.58815905329501    -1.61074586756696    -6.49512691622620
H   33   1    10.23506248045667     0.32468009384095    -9.23072870921204
H   34   1     8.47665842847139    -2.53598436989925    -8.94921964622535
H   35   1    -9.48948872868064     7.90013588951020    -2.18823918416067
H   36   1   -11.93332513000955     6.86460487874102    -0.11255798845995
H   37   1   -11.15126291841033     5.04495968327630    -2.83849898862534
[GTO]
1 0
 s    8 1.00
                 11720  0.00070964594651845
                  1759  0.0054672722921914
                 400.8   0.027823118610189
                 113.7    0.10474773971146
                 37.03    0.28292084635691
                 13.27    0.44849523869833
                 5.025    0.27081688521277
                 1.013    0.01545029160744
 s    8 1.00
                 11720  -0.00031444341168873
                  1759  -0.0024821376810179
                 400.8  -0.012316355381583
                 113.7  -0.050538917343672
                 37.03   -0.13938490331632
                 13.27   -0.32507749481778
                 5.025   -0.22984830758785
                 1.013     1.0953793467883
 s    1 1.00
                0.3023                   1
 p    3 1.00
                  17.7   0.062679166281506
                 3.854    0.33353656587936
                 1.046    0.74123964163973
 p    1 1.00
                0.2753                   1
 d    1 1.00
                 1.185                   1

2 0
 s    3 1.00
                 13.01   0.033498726389998
                 1.962    0.23480080117413
                0.4446     0.8136829578829
 s    1 1.00
                 0.122                   1
 p    1 1.00
                 0.727                   1

3 0
 s    3 1.00
                 13.01   0.033498726389998
                 1.962    0.23480080117413
                0.4446     0.8136829578829
 s    1 1.00
                 0.122                   1
 p    1 1.00
                 0.727                   1

4 0
 s    8 1.00
                 11720  0.00070964594651845
                  1759  0.0054672722921914
                 400.8   0.027823118610189
                 113.7    0.10474773971146
                 37.03    0.28292084635691
                 13.27    0.44849523869833
                 5.025    0.27081688521277
                 1.013    0.01545029160744
 s    8 1.00
                 11720  -0.00031444341168873
                  1759  -0.0024821376810179
                 400.8  -0.012316355381583
                 113.7  -0.050538917343672
                 37.03   -0.13938490331632
                 13.27   -0.32507749481778
                 5.025   -0.22984830758785
                 1.013     1.0953793467883
 s    1 1.00
                0.3023                   1
 p    3 1.00
                  17.7   0.062679166281506
                 3.854    0.33353656587936
                 1.046    0.74123964163973
 p    1 1.00
                0.2753                   1
 d    1 1.00
                 1.185                   1

5 0
 s    8 1.00
                  6665  0.00069158396281299
                  1000  0.0053257961529341
                   228   0.027060721042034
                 64.71    0.10165684614077
                 21.06     0.2745748236174
                 7.495    0.44829431892377
                 2.797    0.28490261071525
                0.5215   0.015194859206082
 s    8 1.00
                  6665  -0.00029326965268655
                  1000  -0.0023180354739745
                   228  -0.011499786038565
                 64.71  -0.046826727009787
                 21.06   -0.12846616875047
                 7.495   -0.30126627246289
                 2.797   -0.25563070233011
                0.5215      1.093793361012
 s    1 1.00
                0.1596                   1
 p    3 1.00
                 9.439   0.056979251590039
                 2.002    0.31320721150073
                0.5456    0.76037674173753
 p    1 1.00
                0.1517                   1
 d    1 1.00
                  0.55                   1

6 0
 s    8 1.00
                  6665  0.00069158396281299
                  1000  0.0053257961529341
                   228   0.027060721042034
                 64.71    0.10165684614077
                 21.06     0.2745748236174
                 7.495    0.44829431892377
                 2.797    0.28490261071525
                0.5215   0.015194859206082
 s    8 1.00
                  6665  -0.00029326965268655
                  1000  -0.0023180354739745
                   228  -0.011499786038565
                 64.71  -0.046826727009787
                 21.06   -0.12846616875047
                 7.495   -0.30126627246289
                 2.797   -0.25563070233011
                0.5215      1.093793361012
 s    1 1.00
                0.1596                   1
 p    3 1.00
                 9.439   0.056979251590039
                 2.002    0.31320721150073
                0.5456    0.76037674173753
 p    1 1.00
                0.1517                   1
 d    1 1.00
                  0.55                   1

7 0
 s    8 1.00
                  6665  0.00069158396281299
                  1000  0.0053257961529341
                   228   0.027060721042034
                 64.71    0.10165684614077
                 21.06     0.2745748236174
                 7.495    0.44829431892377
                 2.797    0.28490261071525
                0.5215   0.015194859206082
 s    8 1.00
                  6665  -0.00029326965268655
                  1000  -0.0023180354739745
                   228  -0.011499786038565
                 64.71  -0.046826727009787
                 21.06   -0.12846616875047
                 7.495   -0.30126627246289
                 2.797   -0.25563070233011
                0.5215      1.093793361012
 s    1 1.00
                0.1596                   1
 p    3 1.00
                 9.439   0.056979251590039
                 2.002    0.31320721150073
                0.5456    0.76037674173753
 p    1 1.00
                0.1517                   1
 d    1 1.00
                  0.55                   1

8 0
 s    3 1.00
                 13.01   0.033498726389998
                 1.962    0.23480080117413
                0.4446     0.8136829578829
 s    1 1.00
                 0.122                   1
 p    1 1.00
                 0.727                   1

9 0
 s    8 1.00
                  6665  0.00069158396281299
                  1000  0.0053257961529341
                   228   0.027060721042034
                 64.71    0.10165684614077
                 21.06     0.2745748236174
                 7.495    0.44829431892377
                 2.797    0.28490261071525
                0.5215   0.015194859206082
 s    8 1.00
                  6665  -0.00029326965268655
                  1000  -0.0023180354739745
                   228  -0.011499786038565
                 64.71  -0.046826727009787
                 21.06   -0.12846616875047
                 7.495   -0.30126627246289
                 2.797   -0.25563070233011
                0.5215      1.093793361012
 s    1 1.00
                0.1596                   1
 p    3 1.00
                 9.439   0.056979251590039
                 2.002    0.31320721150073
                0.5456    0.76037674173753
 p    1 1.00
                0.1517                   1
 d    1 1.00
                  0.55                   1

10 0
 s    3 1.00
                 13.01   0.033498726389998
                 1.962    0.23480080117413
                0.4446     0.8136829578829
 s    1 1.00
                 0.122                   1
 p    1 1.00
                 0.727                   1

11 0
 s    3 1.00
                 13.01   0.033498726389998
                 1.962    0.23480080117413
                0.4446     0.8136829578829
 s    1 1.00
                 0.122                   1
 p    1 1.00
                 0.727                   1

12 0
 s    3 1.00
                 13.01   0.033498726389998
                 1.962    0.23480080117413
                0.4446     0.8136829578829
 s    1 1.00
                 0.122                   1
 p    1 1.00
                 0.727                   1

13 0
 s    8 1.00
                  6665  0.00069158396281299
                  1000  0.0053257961529341
                   228   0.027060721042034
                 64.71    0.10165684614077
                 21.06     0.2745748236174
                 7.495    0.44829431892377
                 2.797    0.28490261071525
                0.5215   0.015194859206082
 s    8 1.00
                  6665  -0.00029326965268655
                  1000  -0.0023180354739745
                   228  -0.011499786038565
                 64.71  -0.046826727009787
                 21.06   -0.12846616875047
                 7.495   -0.30126627246289
                 2.797   -0.25563070233011
                0.5215      1.093793361012
 s    1 1.00
                0.1596                   1
 p    3 1.00
                 9.439   0.056979251590039
                 2.002    0.31320721150073
                0.5456    0.76037674173753
 p    1 1.00
                0.1517                   1
 d    1 1.00
                  0.55                   1

14 0
 s    3 1.00
                 13.01   0.033498726389998
                 1.962    0.23480080117413
                0.4446     0.8136829578829
 s    1 1.00
                 0.122                   1
 p    1 1.00
                 0.727                   1

15 0
 s    3 1.00
                 13.01   0.033498726389998
                 1.962    0.23480080117413
                0.4446     0.8136829578829
 s    1 1.00
                 0.122                   1
 p    1 1.00
                 0.727                   1

16 0
 s    8 1.00
                  6665  0.00069158396281299
                  1000  0.0053257961529341
                   228   0.027060721042034
                 64.71    0.10165684614077
                 21.06     0.2745748236174
                 7.495    0.44829431892377
                 2.797    0.28490261071525
                0.5215   0.015194859206082
 s    8 1.00
                  6665  -0.00029326965268655
                  1000  -0.0023180354739745
                   228  -0.011499786038565
                 64.71  -0.046826727009787
                 21.06   -0.12846616875047
                 7.495   -0.30126627246289
                 2.797   -0.25563070233011
                0.5215      1.093793361012
 s    1 1.00
                0.1596                   1
 p    3 1.00
                 9.439   0.056979251590039
                 2.002    0.31320721150073
                0.5456    0.76037674173753
 p    1 1.00
                0.1517                   1
 d    1 1.00
                  0.55                   1

17 0
 s    3 1.00
                 13.01   0.033498726389998
                 1.962    0.23480080117413
                0.4446     0.8136829578829
 s    1 1.00
                 0.122                   1
 p    1 1.00
                 0.727                   1

18 0
 s    3 1.00
                 13.01   0.033498726389998
                 1.962    0.23480080117413
                0.4446     0.8136829578829
 s    1 1.00
                 0.122                   1
 p    1 1.00
                 0.727                   1

19 0
 s    8 1.00
                  6665  0.00069158396281299
                  1000  0.0053257961529341
                   228   0.027060721042034
                 64.71    0.10165684614077
                 21.06     0.2745748236174
                 7.495    0.44829431892377
                 2.797    0.28490261071525
                0.5215   0.015194859206082
 s    8 1.00
                  6665  -0.00029326965268655
                  1000  -0.0023180354739745
                   228  -0.011499786038565
                 64.71  -0.046826727009787
                 21.06   -0.12846616875047
                 7.495   -0.30126627246289
                 2.797   -0.25563070233011
                0.5215      1.093793361012
 s    1 1.00
                0.1596                   1
 p    3 1.00
                 9.439   0.056979251590039
                 2.002    0.31320721150073
                0.5456    0.76037674173753
 p    1 1.00
                0.1517                   1
 d    1 1.00
                  0.55                   1

20 0
 s    3 1.00
                 13.01   0.033498726389998
                 1.962    0.23480080117413
                0.4446     0.8136829578829
 s    1 1.00
                 0.122                   1
 p    1 1.00
                 0.727                   1

21 0
 s    8 1.00
                  6665  0.00069158396281299
                  1000  0.0053257961529341
                   228   0.027060721042034
                 64.71    0.10165684614077
                 21.06     0.2745748236174
                 7.495    0.44829431892377
                 2.797    0.28490261071525
                0.5215   0.015194859206082
 s    8 1.00
                  6665  -0.00029326965268655
                  1000  -0.0023180354739745
                   228  -0.011499786038565
                 64.71  -0.046826727009787
                 21.06   -0.12846616875047
                 7.495   -0.30126627246289
                 2.797   -0.25563070233011
                0.5215      1.093793361012
 s    1 1.00
                0.1596                   1
 p    3 1.00
                 9.439   0.056979251590039
                 2.002    0.31320721150073
                0.5456    0.76037674173753
 p    1 1.00
                0.1517                   1
 d    1 1.00
                  0.55                   1

22 0
 s    3 1.00
                 13.01   0.033498726389998
                 1.962    0.23480080117413
                0.4446     0.8136829578829
 s    1 1.00
                 0.122                   1
 p    1 1.00
                 0.727                   1

23 0
 s    3 1.00
                 13.01   0.033498726389998
                 1.962    0.23480080117413
                0.4446     0.8136829578829
 s    1 1.00
                 0.122                   1
 p    1 1.00
                 0.727                   1

24 0
 s    3 1.00
                 13.01   0.033498726389998
                 1.962    0.23480080117413
                0.4446     0.8136829578829
 s    1 1.00
                 0.122                   1
 p    1 1.00
                 0.727                   1

25 0
 s    8 1.00
                  6665  0.00069158396281299
                  1000  0.0053257961529341
                   228   0.027060721042034
                 64.71    0.10165684614077
                 21.06     0.2745748236174
                 7.495    0.44829431892377
                 2.797    0.28490261071525
                0.5215   0.015194859206082
 s    8 1.00
                  6665  -0.00029326965268655
                  1000  -0.0023180354739745
                   228  -0.011499786038565
                 64.71  -0.046826727009787
                 21.06   -0.12846616875047
                 7.495   -0.30126627246289
                 2.797   -0.25563070233011
                0.5215      1.093793361012
 s    1 1.00
                0.1596                   1
 p    3 1.00
                 9.439   0.056979251590039
                 2.002    0.31320721150073
                0.5456    0.76037674173753
 p    1 1.00
                0.1517                   1
 d    1 1.00
                  0.55                   1

26 0
 s    3 1.00
                 13.01   0.033498726389998
                 1.962    0.23480080117413
                0.4446     0.8136829578829
 s    1 1.00
                 0.122                   1
 p    1 1.00
                 0.727                   1

27 0
 s    3 1.00
                 13.01   0.033498726389998
                 1.962    0.23480080117413
                0.4446     0.8136829578829
 s    1 1.00
                 0.122                   1
 p    1 1.00
                 0.727                   1

28 0
 s    8 1.00
                  6665  0.00069158396281299
                  1000  0.0053257961529341
                   228   0.027060721042034
                 64.71    0.10165684614077
                 21.06     0.2745748236174
                 7.495    0.44829431892377
                 2.797    0.28490261071525
                0.5215   0.015194859206082
 s    8 1.00
                  6665  -0.00029326965268655
                  1000  -0.0023180354739745
                   228  -0.011499786038565
                 64.71  -0.046826727009787
                 21.06   -0.12846616875047
                 7.495   -0.30126627246289
                 2.797   -0.25563070233011
                0.5215      1.093793361012
 s    1 1.00
                0.1596                   1
 p    3 1.00
                 9.439   0.056979251590039
                 2.002    0.31320721150073
                0.5456    0.76037674173753
 p    1 1.00
                0.1517                   1
 d    1 1.00
                  0.55                   1

29 0
 s    3 1.00
                 13.01   0.033498726389998
                 1.962    0.23480080117413
                0.4446     0.8136829578829
 s    1 1.00
                 0.122                   1
 p    1 1.00
                 0.727                   1

30 0
 s    3 1.00
                 13.01   0.033498726389998
                 1.962    0.23480080117413
                0.4446     0.8136829578829
 s    1 1.00
                 0.122                   1
 p    1 1.00
                 0.727                   1

31 0
 s    8 1.00
                  6665  0.00069158396281299
                  1000  0.0053257961529341
                   228   0.027060721042034
                 64.71    0.10165684614077
                 21.06     0.2745748236174
                 7.495    0.44829431892377
                 2.797    0.28490261071525
                0.5215   0.015194859206082
 s    8 1.00
                  6665  -0.00029326965268655
                  1000  -0.0023180354739745
                   228  -0.011499786038565
                 64.71  -0.046826727009787
                 21.06   -0.12846616875047
                 7.495   -0.30126627246289
                 2.797   -0.25563070233011
                0.5215      1.093793361012
 s    1 1.00
                0.1596                   1
 p    3 1.00
                 9.439   0.056979251590039
                 2.002    0.31320721150073
                0.5456    0.76037674173753
 p    1 1.00
                0.1517                   1
 d    1 1.00
                  0.55                   1

32 0
 s    3 1.00
                 13.01   0.033498726389998
                 1.962    0.23480080117413
                0.4446     0.8136829578829
 s    1 1.00
                 0.122                   1
 p    1 1.00
                 0.727                   1

33 0
 s    3 1.00
                 13.01   0.033498726389998
                 1.962    0.23480080117413
                0.4446     0.8136829578829
 s    1 1.00
                 0.122                   1
 p    1 1.00
                 0.727                   1

34 0
 s    3 1.00
                 13.01   0.033498726389998
                 1.962    0.23480080117413
                0.4446     0.8136829578829
 s    1 1.00
                 0.122                   1
 p    1 1.00
                 0.727                   1

35 0
 s    3 1.00
                 13.01   0.033498726389998
                 1.962    0.23480080117413
                0.4446     0.8136829578829
 s    1 1.00
                 0.122                   1
 p    1 1.00
                 0.727                   1

36 0
 s    3 1.00
                 13.01   0.033498726389998
                 1.962    0.23480080117413
                0.4446     0.8136829578829
 s    1 1.00
                 0.122                   1
 p    1 1.00
                 0.727                   1

37 0
 s    3 1.00
                 13.01   0.033498726389998
                 1.962    0.23480080117413
                0.4446     0.8136829578829
 s    1 1.00
                 0.122                   1
 p    1 1.00
                 0.727                   1

[5d]
[7f]
[9g]

[MO]
 Sym= A
 Ene=               0
 Spin= Alpha
 Occup=    1.00000
   1    3.6187382313795e-05
   2    2.8773902630082e-05
   3    -0.00012380041084987
   4    -7.1473380874994e-07
   5    -4.2025707524199e-06
   6    3.3066571695719e-06
   7    4.6685144217362e-07
   8    2.1447275867555e-05
   9    3.4115979343057e-05
  10    -4.6221891131595e-06
  11    2.7423875001978e-07
  12    -2.4912326589125e-06
  13    -1.7218128963386e-06
  14    -4.34887957905e-08
  15    7.1353039362734e-05
  16    0.00022904777094044
  17    1.1745937973691e-06
  18    -3.3857567210564e-06
  19    -2.909312120373e-06
  20    -3.9169781863485e-06
  21    -4.1449156242856e-05
  22    -1.769509894894e-07
  23    -2.2798555193538e-06
  24    7.4621346511555e-06
  25      -1.0013895404189
  26    -0.0020302972145207
  27    0.0070264706314853
  28    2.8411896863965e-06
  29    -1.3281731979907e-05
  30    0.0016303437795729
  31    -1.6524877520183e-06
  32    6.3438864055386e-06
  33    -0.0020257753342796
  34    -0.00010436293808504
  35    3.458322269148e-06
  36    -1.9160149255803e-06
  37    -6.4411685981004e-05
  38    0.00016800475554762
  39    -0.00032891483455413
  40    -0.00048806805885451
  41    -0.0016949240723175
  42    -3.7787932162769e-05
  43    2.3637380181401e-05
  44    2.9454437827128e-05
  45    -4.3789664666755e-05
  46    3.7175729529088e-05
  47    -0.0037484012456185
  48    0.00045559614748624
  49    6.7229970525524e-06
  50    -1.9898665558473e-06
  51    -2.3996239601174e-05
  52    8.1798595758484e-05
  53    0.00064340719764253
  54    0.00054302455506867
  55    -0.001205863804592
  56     0.000174771911911
  57    -0.00025804762551949
  58    0.00026038950577688
  59    0.00056679817576548
  60    -0.00064048558854108
  61    0.0010848624504657
  62    0.00011745900552498
  63    -0.00011999307530047
  64    0.0001258913391647
  65    -6.1310862690666e-05
  66    0.00012760507908753
  67    0.00058203538228966
  68    0.00042954905368775
  69    -0.00021362298725726
  70    -0.00019688134107176
  71    0.00018393003252945
  72    0.00030574318620084
  73    -0.0011703282742526
  74    0.00090520329028361
  75    0.00083623861008167
  76    0.00014119420463455
  77    9.0549372414386e-05
  78    -8.6391702023471e-05
  79    -4.6368935747784e-05
  80    0.00014530519222842
  81    0.00062357490338509
  82    -5.7372714121853e-05
  83    -9.831825774058e-05
  84    6.7889827689201e-05
  85    -8.0135776772568e-05
  86    -3.5631033686426e-05
  87    3.1245124653033e-05
  88    0.00065340738997288
  89    -0.00014644811727206
  90    0.00028483819774078
  91    5.9470509775322e-05
  92    -0.0003695900437736
  93    -0.00051444282821916
  94    6.7916828117417e-05
  95    -6.0444023080079e-06
  96    8.2898773055669e-06
  97    -2.9681910537166e-05
  98    2.9510539544757e-06
  99    6.5795339492282e-05
 100    0.00020892673505401
 101    0.00019245754299496
 102    1.2024938688794e-05
 103    1.9608670122231e-05
 104    -6.0054924626142e-05
 105    -1.8894794640142e-05
 106    0.00015704826555717
 107    6.0324970776154e-05
 108    5.5656621846572e-07
 109    -7.1836373319819e-05
 110    5.6926194624336e-05
 111    7.9726066031602e-05
 112    3.194739400434e-05
 113    -2.9392774635649e-05
 114    -6.0557931298168e-05
 115    0.00010285067660254
 116    0.00024515457001953
 117    -0.00080721462168806
 118    0.00041463205953658
 119    -0.0002086685473933
 120    -0.00019603454657878
 121    -0.00011126247053155
 122    -0.00014641249820476
 123    9.307430001183e-05
 124    8.9870805328261e-07
 125    -5.2483921957725e-05
 126    2.4721634637592e-07
 127    5.1181913514595e-05
 128    -6.1516438894082e-05
 129    0.00022424569060256
 130    0.00040579044545045
 131    -1.9424250927703e-05
 132    -1.5030393244036e-05
 133    -4.1747480066501e-05
 134    0.00017720586388978
 135    0.00023675357611048
 136    2.2066435068106e-05
 137    2.6013731711972e-05
 138    4.3067128882816e-05
 139    3.9386444716225e-05
 140    -7.6456965347331e-05
 141    -0.00040175338199349
 142    0.00015341285419633
 143    -5.5291275449391e-05
 144    -0.00012112763637964
 145    0.00030725106370476
 146    -9.4767948571722e-05
 147    -0.00012218875229871
 148    2.2693852309431e-06
 149    4.9663250397254e-06
 150    1.8873896273146e-06
 151    -2.009642666658e-05
 152    6.9271474504997e-06
 153    5.7718867765145e-05
 154    4.1265976743523e-05
 155    3.3617427927585e-05
 156    -3.2553258647922e-05
 157    -2.3269752966131e-05
 158    3.6430933610915e-05
 159    6.788844016685e-05
 160    6.8615057619332e-05
 161    5.7595145785928e-06
 162    -1.2702201244519e-05
 163    -4.0956669987262e-05
 164    -0.00012928972802268
 165    0.00017735592106079
 166    -0.00012591293592692
 167    8.2031904414684e-05
 168    -6.026185530695e-06
 169    -0.00032795882505285
 170    0.0002685781287731
 171    0.00014842658067707
 172    -7.6643506853894e-06
 173    -2.4594304568428e-05
 174    2.2052542058606e-05
 175    2.6551048063018e-06
 176    1.2548901683489e-05
 177    3.4352104662315e-06
 178    -6.0997719622601e-05
 179    7.625109815053e-06
 180    -5.1617323416795e-06
 181    4.810041256086e-06
 182    -2.3850135547637e-05
 183    -2.6148764966377e-05
 184    8.1892237895984e-05
 185    -2.3918396617738e-05
 186    -4.2005368609099e-05
 187    2.6133090670523e-05
 188    -0.00017306317861934
 189    9.1198420682926e-05
 190    0.00012488825109338
 191    -2.4192479026335e-06
 192    5.8632121743544e-07
 193    2.4494579584356e-06
 194    -1.9611032168749e-06
 195    8.3838404799091e-06
 196    7.6339524968078e-06
 197    3.9282182091452e-05
 198    -2.939578671032e-06
 199    -6.7491346269138e-06
 200    -1.9324799561012e-06
 201    -7.0384000570237e-05
 202    -3.2209310178743e-05
 203    6.0373530637859e-06
 204    -1.2165323085743e-05
 205    -1.8782193717509e-05
 206    -7.0363756858443e-05
 207    -8.3097406688184e-05
 208    1.5585527698484e-05
 209    4.7392157228436e-06
 210    -1.9414669085959e-05
 211    2.7911652753499e-06
 212    6.0117496405349e-05
 213    -0.00023581552570175
 214    6.9915919138056e-05
 215    -2.7598934312859e-05
 216    -3.1210923178198e-05
 217    -0.00013074159156359
 218     2.09718522191e-05
 219    6.6962096986673e-05
 220    3.9555042227822e-06
 221    1.2819040635783e-05
 222    -3.6275540951038e-06
 223    -9.9022206117686e-06
 224    5.0733764455903e-06
 225    -4.2795872563804e-05
 226    -5.7502898238758e-05
 227    1.307801668114e-05
 228    2.3002421531428e-06
 229    2.8557566759463e-06
 230    -1.9394719609374e-05
 231    -5.9034657226751e-05
 232    2.4695583963636e-06
 233    -7.4076322024759e-06
 234    -1.2858050786687e-05
 235    -7.2388230521166e-07
 236    -1.5806022382504e-05
 237    7.8698040456147e-05
 238    1.6399857002553e-05
 239    -2.8988686052503e-06
 240    -8.7674431807887e-06
 241    -2.9093843103607e-05
 242    7.2485154791904e-05
 243    -2.4972739865746e-05
 244    -1.3143208624816e-06
 245    -4.1951980073002e-06
 246    2.6952602274934e-07
 247    8.4605251104304e-07
 248    4.002000811451e-07
 249    1.6021154473909e-05
 250    -1.1951190510995e-05
 251    6.0286484541081e-06
 252    2.3138195121986e-07
 253    -1.9792382717831e-06
 254    9.2876188587305e-06
 255    -5.8901630666735e-05
 256     1.39970174855e-06
 257    -5.2210247987475e-06
 258    -6.9766299524744e-07
 259    9.3537286309787e-06
 260    4.1136976426258e-06
 261    -8.1915600441248e-05
 262    -2.6401451440836e-05
 263    1.7451431515652e-05