[Molden Format]
made by pyscf v[2.0.1]
[Atoms] (AU)
O   1   8     0.00000000000000     0.00000000000000    10.94175058546756
H   2   1     0.00000000000000     0.00000000000000     9.11834876356659
H   3   1    -0.05031916615174     1.78353065140343    11.31762228193423
O   4   8     0.00000000000000     0.00000000000000     2.31533471513237
C   5   6     0.00000000000000     0.00000000000000     0.00000000000000
C   6   6     2.01118073026938    -1.40227222164369    -1.50774939176400
C   7   6    -2.01249334291722     1.41331050329955    -1.50315905028694
H   8   1     3.32037363730244    -2.26721897153159    -0.13599698591495
C   9   6     3.45899267434009     0.28739631745591    -3.37437943254505
H   10   1     1.07662969841332    -2.94725144642667    -2.56541439481080
H   11   1    -2.67503415753480     0.18421555839588    -3.06194479365997
H   12   1    -1.07974048864772     3.03851734677796    -2.43674295017013
C   13   6    -4.21607110578555     2.32938802552922     0.11994162256091
H   14   1     4.24440173074564     1.93368664142019    -2.34976285512790
H   15   1     2.15020713235517     1.04714335134846    -4.81494497423699
C   16   6     5.60746363007797    -1.12419643481196    -4.70268606082550
H   17   1    -3.46838323670267     3.50951302338067     1.66946842715333
H   18   1    -5.11873485366228     0.68575958301209     1.04047743976495
C   19   6    -6.18314754751344     3.80909592987882    -1.39656589068747
H   20   1     6.93011263717176    -1.87550812453645    -3.26656317360070
C   21   6     7.06356622236532     0.52877932406334    -6.57829775293605
H   22   1     4.82318879258361    -2.78573437948532    -5.70504560381835
H   23   1    -6.91582688743803     2.61304780074712    -2.95074552451969
H   24   1    -5.26532430573853     5.45420349051338    -2.31005832200284
C   25   6    -8.39941882261433     4.73263980500213     0.21800571437956
H   26   1     7.83338371486801     2.19084139882824    -5.57093109900697
H   27   1     5.73544244039420     1.27376866537418    -8.01071492370229
C   28   6     9.21124858443101    -0.89699110072176    -7.88926949186242
H   29   1    -7.66272760055236     5.92277078003992     1.77035591474408
H   30   1    -9.31497248082589     3.08753015622020     1.12614408368786
C   31   6   -10.35481709231879     6.21833079391143    -1.30905206253246
H   32   1    10.58815905329501    -1.61074586756696    -6.49512691622620
H   33   1    10.23506248045667     0.32468009384095    -9.23072870921204
H   34   1     8.47665842847139    -2.53598436989925    -8.94921964622535
H   35   1    -9.48948872868064     7.90013588951020    -2.18823918416067
H   36   1   -11.93332513000955     6.86460487874102    -0.11255798845995
H   37   1   -11.15126291841033     5.04495968327630    -2.83849898862534
[GTO]
1 0
 s    8 1.00
                 11720  0.00070964594651845
                  1759  0.0054672722921914
                 400.8   0.027823118610189
                 113.7    0.10474773971146
                 37.03    0.28292084635691
                 13.27    0.44849523869833
                 5.025    0.27081688521277
                 1.013    0.01545029160744
 s    8 1.00
                 11720  -0.00031444341168873
                  1759  -0.0024821376810179
                 400.8  -0.012316355381583
                 113.7  -0.050538917343672
                 37.03   -0.13938490331632
                 13.27   -0.32507749481778
                 5.025   -0.22984830758785
                 1.013     1.0953793467883
 s    1 1.00
                0.3023                   1
 p    3 1.00
                  17.7   0.062679166281506
                 3.854    0.33353656587936
                 1.046    0.74123964163973
 p    1 1.00
                0.2753                   1
 d    1 1.00
                 1.185                   1

2 0
 s    3 1.00
                 13.01   0.033498726389998
                 1.962    0.23480080117413
                0.4446     0.8136829578829
 s    1 1.00
                 0.122                   1
 p    1 1.00
                 0.727                   1

3 0
 s    3 1.00
                 13.01   0.033498726389998
                 1.962    0.23480080117413
                0.4446     0.8136829578829
 s    1 1.00
                 0.122                   1
 p    1 1.00
                 0.727                   1

4 0
 s    8 1.00
                 11720  0.00070964594651845
                  1759  0.0054672722921914
                 400.8   0.027823118610189
                 113.7    0.10474773971146
                 37.03    0.28292084635691
                 13.27    0.44849523869833
                 5.025    0.27081688521277
                 1.013    0.01545029160744
 s    8 1.00
                 11720  -0.00031444341168873
                  1759  -0.0024821376810179
                 400.8  -0.012316355381583
                 113.7  -0.050538917343672
                 37.03   -0.13938490331632
                 13.27   -0.32507749481778
                 5.025   -0.22984830758785
                 1.013     1.0953793467883
 s    1 1.00
                0.3023                   1
 p    3 1.00
                  17.7   0.062679166281506
                 3.854    0.33353656587936
                 1.046    0.74123964163973
 p    1 1.00
                0.2753                   1
 d    1 1.00
                 1.185                   1

5 0
 s    8 1.00
                  6665  0.00069158396281299
                  1000  0.0053257961529341
                   228   0.027060721042034
                 64.71    0.10165684614077
                 21.06     0.2745748236174
                 7.495    0.44829431892377
                 2.797    0.28490261071525
                0.5215   0.015194859206082
 s    8 1.00
                  6665  -0.00029326965268655
                  1000  -0.0023180354739745
                   228  -0.011499786038565
                 64.71  -0.046826727009787
                 21.06   -0.12846616875047
                 7.495   -0.30126627246289
                 2.797   -0.25563070233011
                0.5215      1.093793361012
 s    1 1.00
                0.1596                   1
 p    3 1.00
                 9.439   0.056979251590039
                 2.002    0.31320721150073
                0.5456    0.76037674173753
 p    1 1.00
                0.1517                   1
 d    1 1.00
                  0.55                   1

6 0
 s    8 1.00
                  6665  0.00069158396281299
                  1000  0.0053257961529341
                   228   0.027060721042034
                 64.71    0.10165684614077
                 21.06     0.2745748236174
                 7.495    0.44829431892377
                 2.797    0.28490261071525
                0.5215   0.015194859206082
 s    8 1.00
                  6665  -0.00029326965268655
                  1000  -0.0023180354739745
                   228  -0.011499786038565
                 64.71  -0.046826727009787
                 21.06   -0.12846616875047
                 7.495   -0.30126627246289
                 2.797   -0.25563070233011
                0.5215      1.093793361012
 s    1 1.00
                0.1596                   1
 p    3 1.00
                 9.439   0.056979251590039
                 2.002    0.31320721150073
                0.5456    0.76037674173753
 p    1 1.00
                0.1517                   1
 d    1 1.00
                  0.55                   1

7 0
 s    8 1.00
                  6665  0.00069158396281299
                  1000  0.0053257961529341
                   228   0.027060721042034
                 64.71    0.10165684614077
                 21.06     0.2745748236174
                 7.495    0.44829431892377
                 2.797    0.28490261071525
                0.5215   0.015194859206082
 s    8 1.00
                  6665  -0.00029326965268655
                  1000  -0.0023180354739745
                   228  -0.011499786038565
                 64.71  -0.046826727009787
                 21.06   -0.12846616875047
                 7.495   -0.30126627246289
                 2.797   -0.25563070233011
                0.5215      1.093793361012
 s    1 1.00
                0.1596                   1
 p    3 1.00
                 9.439   0.056979251590039
                 2.002    0.31320721150073
                0.5456    0.76037674173753
 p    1 1.00
                0.1517                   1
 d    1 1.00
                  0.55                   1

8 0
 s    3 1.00
                 13.01   0.033498726389998
                 1.962    0.23480080117413
                0.4446     0.8136829578829
 s    1 1.00
                 0.122                   1
 p    1 1.00
                 0.727                   1

9 0
 s    8 1.00
                  6665  0.00069158396281299
                  1000  0.0053257961529341
                   228   0.027060721042034
                 64.71    0.10165684614077
                 21.06     0.2745748236174
                 7.495    0.44829431892377
                 2.797    0.28490261071525
                0.5215   0.015194859206082
 s    8 1.00
                  6665  -0.00029326965268655
                  1000  -0.0023180354739745
                   228  -0.011499786038565
                 64.71  -0.046826727009787
                 21.06   -0.12846616875047
                 7.495   -0.30126627246289
                 2.797   -0.25563070233011
                0.5215      1.093793361012
 s    1 1.00
                0.1596                   1
 p    3 1.00
                 9.439   0.056979251590039
                 2.002    0.31320721150073
                0.5456    0.76037674173753
 p    1 1.00
                0.1517                   1
 d    1 1.00
                  0.55                   1

10 0
 s    3 1.00
                 13.01   0.033498726389998
                 1.962    0.23480080117413
                0.4446     0.8136829578829
 s    1 1.00
                 0.122                   1
 p    1 1.00
                 0.727                   1

11 0
 s    3 1.00
                 13.01   0.033498726389998
                 1.962    0.23480080117413
                0.4446     0.8136829578829
 s    1 1.00
                 0.122                   1
 p    1 1.00
                 0.727                   1

12 0
 s    3 1.00
                 13.01   0.033498726389998
                 1.962    0.23480080117413
                0.4446     0.8136829578829
 s    1 1.00
                 0.122                   1
 p    1 1.00
                 0.727                   1

13 0
 s    8 1.00
                  6665  0.00069158396281299
                  1000  0.0053257961529341
                   228   0.027060721042034
                 64.71    0.10165684614077
                 21.06     0.2745748236174
                 7.495    0.44829431892377
                 2.797    0.28490261071525
                0.5215   0.015194859206082
 s    8 1.00
                  6665  -0.00029326965268655
                  1000  -0.0023180354739745
                   228  -0.011499786038565
                 64.71  -0.046826727009787
                 21.06   -0.12846616875047
                 7.495   -0.30126627246289
                 2.797   -0.25563070233011
                0.5215      1.093793361012
 s    1 1.00
                0.1596                   1
 p    3 1.00
                 9.439   0.056979251590039
                 2.002    0.31320721150073
                0.5456    0.76037674173753
 p    1 1.00
                0.1517                   1
 d    1 1.00
                  0.55                   1

14 0
 s    3 1.00
                 13.01   0.033498726389998
                 1.962    0.23480080117413
                0.4446     0.8136829578829
 s    1 1.00
                 0.122                   1
 p    1 1.00
                 0.727                   1

15 0
 s    3 1.00
                 13.01   0.033498726389998
                 1.962    0.23480080117413
                0.4446     0.8136829578829
 s    1 1.00
                 0.122                   1
 p    1 1.00
                 0.727                   1

16 0
 s    8 1.00
                  6665  0.00069158396281299
                  1000  0.0053257961529341
                   228   0.027060721042034
                 64.71    0.10165684614077
                 21.06     0.2745748236174
                 7.495    0.44829431892377
                 2.797    0.28490261071525
                0.5215   0.015194859206082
 s    8 1.00
                  6665  -0.00029326965268655
                  1000  -0.0023180354739745
                   228  -0.011499786038565
                 64.71  -0.046826727009787
                 21.06   -0.12846616875047
                 7.495   -0.30126627246289
                 2.797   -0.25563070233011
                0.5215      1.093793361012
 s    1 1.00
                0.1596                   1
 p    3 1.00
                 9.439   0.056979251590039
                 2.002    0.31320721150073
                0.5456    0.76037674173753
 p    1 1.00
                0.1517                   1
 d    1 1.00
                  0.55                   1

17 0
 s    3 1.00
                 13.01   0.033498726389998
                 1.962    0.23480080117413
                0.4446     0.8136829578829
 s    1 1.00
                 0.122                   1
 p    1 1.00
                 0.727                   1

18 0
 s    3 1.00
                 13.01   0.033498726389998
                 1.962    0.23480080117413
                0.4446     0.8136829578829
 s    1 1.00
                 0.122                   1
 p    1 1.00
                 0.727                   1

19 0
 s    8 1.00
                  6665  0.00069158396281299
                  1000  0.0053257961529341
                   228   0.027060721042034
                 64.71    0.10165684614077
                 21.06     0.2745748236174
                 7.495    0.44829431892377
                 2.797    0.28490261071525
                0.5215   0.015194859206082
 s    8 1.00
                  6665  -0.00029326965268655
                  1000  -0.0023180354739745
                   228  -0.011499786038565
                 64.71  -0.046826727009787
                 21.06   -0.12846616875047
                 7.495   -0.30126627246289
                 2.797   -0.25563070233011
                0.5215      1.093793361012
 s    1 1.00
                0.1596                   1
 p    3 1.00
                 9.439   0.056979251590039
                 2.002    0.31320721150073
                0.5456    0.76037674173753
 p    1 1.00
                0.1517                   1
 d    1 1.00
                  0.55                   1

20 0
 s    3 1.00
                 13.01   0.033498726389998
                 1.962    0.23480080117413
                0.4446     0.8136829578829
 s    1 1.00
                 0.122                   1
 p    1 1.00
                 0.727                   1

21 0
 s    8 1.00
                  6665  0.00069158396281299
                  1000  0.0053257961529341
                   228   0.027060721042034
                 64.71    0.10165684614077
                 21.06     0.2745748236174
                 7.495    0.44829431892377
                 2.797    0.28490261071525
                0.5215   0.015194859206082
 s    8 1.00
                  6665  -0.00029326965268655
                  1000  -0.0023180354739745
                   228  -0.011499786038565
                 64.71  -0.046826727009787
                 21.06   -0.12846616875047
                 7.495   -0.30126627246289
                 2.797   -0.25563070233011
                0.5215      1.093793361012
 s    1 1.00
                0.1596                   1
 p    3 1.00
                 9.439   0.056979251590039
                 2.002    0.31320721150073
                0.5456    0.76037674173753
 p    1 1.00
                0.1517                   1
 d    1 1.00
                  0.55                   1

22 0
 s    3 1.00
                 13.01   0.033498726389998
                 1.962    0.23480080117413
                0.4446     0.8136829578829
 s    1 1.00
                 0.122                   1
 p    1 1.00
                 0.727                   1

23 0
 s    3 1.00
                 13.01   0.033498726389998
                 1.962    0.23480080117413
                0.4446     0.8136829578829
 s    1 1.00
                 0.122                   1
 p    1 1.00
                 0.727                   1

24 0
 s    3 1.00
                 13.01   0.033498726389998
                 1.962    0.23480080117413
                0.4446     0.8136829578829
 s    1 1.00
                 0.122                   1
 p    1 1.00
                 0.727                   1

25 0
 s    8 1.00
                  6665  0.00069158396281299
                  1000  0.0053257961529341
                   228   0.027060721042034
                 64.71    0.10165684614077
                 21.06     0.2745748236174
                 7.495    0.44829431892377
                 2.797    0.28490261071525
                0.5215   0.015194859206082
 s    8 1.00
                  6665  -0.00029326965268655
                  1000  -0.0023180354739745
                   228  -0.011499786038565
                 64.71  -0.046826727009787
                 21.06   -0.12846616875047
                 7.495   -0.30126627246289
                 2.797   -0.25563070233011
                0.5215      1.093793361012
 s    1 1.00
                0.1596                   1
 p    3 1.00
                 9.439   0.056979251590039
                 2.002    0.31320721150073
                0.5456    0.76037674173753
 p    1 1.00
                0.1517                   1
 d    1 1.00
                  0.55                   1

26 0
 s    3 1.00
                 13.01   0.033498726389998
                 1.962    0.23480080117413
                0.4446     0.8136829578829
 s    1 1.00
                 0.122                   1
 p    1 1.00
                 0.727                   1

27 0
 s    3 1.00
                 13.01   0.033498726389998
                 1.962    0.23480080117413
                0.4446     0.8136829578829
 s    1 1.00
                 0.122                   1
 p    1 1.00
                 0.727                   1

28 0
 s    8 1.00
                  6665  0.00069158396281299
                  1000  0.0053257961529341
                   228   0.027060721042034
                 64.71    0.10165684614077
                 21.06     0.2745748236174
                 7.495    0.44829431892377
                 2.797    0.28490261071525
                0.5215   0.015194859206082
 s    8 1.00
                  6665  -0.00029326965268655
                  1000  -0.0023180354739745
                   228  -0.011499786038565
                 64.71  -0.046826727009787
                 21.06   -0.12846616875047
                 7.495   -0.30126627246289
                 2.797   -0.25563070233011
                0.5215      1.093793361012
 s    1 1.00
                0.1596                   1
 p    3 1.00
                 9.439   0.056979251590039
                 2.002    0.31320721150073
                0.5456    0.76037674173753
 p    1 1.00
                0.1517                   1
 d    1 1.00
                  0.55                   1

29 0
 s    3 1.00
                 13.01   0.033498726389998
                 1.962    0.23480080117413
                0.4446     0.8136829578829
 s    1 1.00
                 0.122                   1
 p    1 1.00
                 0.727                   1

30 0
 s    3 1.00
                 13.01   0.033498726389998
                 1.962    0.23480080117413
                0.4446     0.8136829578829
 s    1 1.00
                 0.122                   1
 p    1 1.00
                 0.727                   1

31 0
 s    8 1.00
                  6665  0.00069158396281299
                  1000  0.0053257961529341
                   228   0.027060721042034
                 64.71    0.10165684614077
                 21.06     0.2745748236174
                 7.495    0.44829431892377
                 2.797    0.28490261071525
                0.5215   0.015194859206082
 s    8 1.00
                  6665  -0.00029326965268655
                  1000  -0.0023180354739745
                   228  -0.011499786038565
                 64.71  -0.046826727009787
                 21.06   -0.12846616875047
                 7.495   -0.30126627246289
                 2.797   -0.25563070233011
                0.5215      1.093793361012
 s    1 1.00
                0.1596                   1
 p    3 1.00
                 9.439   0.056979251590039
                 2.002    0.31320721150073
                0.5456    0.76037674173753
 p    1 1.00
                0.1517                   1
 d    1 1.00
                  0.55                   1

32 0
 s    3 1.00
                 13.01   0.033498726389998
                 1.962    0.23480080117413
                0.4446     0.8136829578829
 s    1 1.00
                 0.122                   1
 p    1 1.00
                 0.727                   1

33 0
 s    3 1.00
                 13.01   0.033498726389998
                 1.962    0.23480080117413
                0.4446     0.8136829578829
 s    1 1.00
                 0.122                   1
 p    1 1.00
                 0.727                   1

34 0
 s    3 1.00
                 13.01   0.033498726389998
                 1.962    0.23480080117413
                0.4446     0.8136829578829
 s    1 1.00
                 0.122                   1
 p    1 1.00
                 0.727                   1

35 0
 s    3 1.00
                 13.01   0.033498726389998
                 1.962    0.23480080117413
                0.4446     0.8136829578829
 s    1 1.00
                 0.122                   1
 p    1 1.00
                 0.727                   1

36 0
 s    3 1.00
                 13.01   0.033498726389998
                 1.962    0.23480080117413
                0.4446     0.8136829578829
 s    1 1.00
                 0.122                   1
 p    1 1.00
                 0.727                   1

37 0
 s    3 1.00
                 13.01   0.033498726389998
                 1.962    0.23480080117413
                0.4446     0.8136829578829
 s    1 1.00
                 0.122                   1
 p    1 1.00
                 0.727                   1

[5d]
[7f]
[9g]

[MO]
 Sym= A
 Ene=               0
 Spin= Alpha
 Occup=    1.00000
   1    1.9807781017851e-05
   2    1.6060642518525e-05
   3    -6.3080807991349e-05
   4    5.309858711762e-08
   5    -2.3830472144681e-06
   6    4.0245876669283e-07
   7    -3.8933304565524e-07
   8    1.4320658027875e-05
   9    4.7272597840531e-05
  10    -8.816450503843e-06
  11    -1.3248627323481e-08
  12    6.462017704681e-07
  13    -5.7506901102002e-07
  14    -3.1171243706829e-08
  15    7.5981309540477e-06
  16    9.3771768489405e-05
  17    4.6081538170524e-08
  18    -8.9816477503455e-07
  19    2.7656102528619e-05
  20    3.6084639719306e-06
  21    -3.8487525921433e-05
  22    -1.3526381959257e-07
  23    4.6088174992733e-06
  24    -1.370156197074e-06
  25      -1.0013556500811
  26    -0.0019428380633044
  27    0.0067665861529265
  28    1.7610402771723e-06
  29    -7.3746069973104e-06
  30    0.0016768469387495
  31    -1.6467485193244e-06
  32    2.9776095432042e-06
  33    -0.0018014122469229
  34    -0.00012985831483034
  35    3.7335480100745e-06
  36    -1.7250554400605e-06
  37    -6.7235237950723e-05
  38    0.00017535495403395
  39    -0.00030170318732623
  40    -0.0004297647944018
  41    -0.0014814361340926
  42    -3.597613785717e-05
  43    2.3809647972458e-05
  44    8.3129926376935e-05
  45    -3.9489222088512e-05
  46    3.2154425972495e-05
  47    -0.003523636852904
  48    0.0005067027230494
  49    6.944981407744e-06
  50    -1.7939181038936e-06
  51    -2.1812580702916e-05
  52    7.6255051721476e-05
  53    0.00064280102433572
  54    0.00053949347133297
  55    -0.0011815715216276
  56    0.00017654841265063
  57    -0.00025679780872257
  58    0.00027046571444343
  59    0.00055719870824485
  60    -0.00062935361919083
  61    0.0010037686057333
  62    0.00011950005945987
  63    -0.0001206124517515
  64    0.00012540323538477
  65    -6.2357869661762e-05
  66    0.00013186981719277
  67    0.00058176025125338
  68    0.00042701928875439
  69    -0.00020392636551569
  70    -0.00019860478159738
  71    0.00018745042555247
  72    0.0003178925803288
  73    -0.0011378528025978
  74    0.00088245701886553
  75    0.00079584970721579
  76    0.00014328086852669
  77    8.9252611443533e-05
  78    -8.6501331247371e-05
  79    -4.6966991091927e-05
  80    0.00014789160427968
  81    0.00063524924249755
  82    -3.2586150541453e-05
  83    -9.6461013976241e-05
  84    6.6633788649492e-05
  85    -8.3150605130233e-05
  86    -3.6664778104778e-05
  87    2.6899106300766e-05
  88    0.00062136821157749
  89    -0.0001394227502997
  90    0.00028485256317347
  91    5.6001169230125e-05
  92    -0.00035536194509727
  93    -0.00047282290856765
  94    7.8287790681564e-05
  95    -4.3558699555903e-06
  96    8.9981995496805e-06
  97    -2.8073153686299e-05
  98    4.882309494619e-06
  99    6.0744512013251e-05
 100    0.00019546055764015
 101    0.00017813894134818
 102    7.3404286492405e-06
 103    1.7553701263361e-05
 104    -5.5517696074171e-05
 105    -3.4190187568805e-05
 106    0.00014111046291648
 107    6.0670202390772e-05
 108    -4.8871532275481e-06
 109    -6.9306670814977e-05
 110    5.1480698425152e-05
 111    6.7148087494385e-05
 112    3.4371674830455e-05
 113    -2.5988822200976e-05
 114    -5.7374179495354e-05
 115    0.00011100232843812
 116    0.00025816748252314
 117    -0.00077776632249542
 118    0.0004183546398577
 119    -0.00021184324946046
 120    -0.0001959857208369
 121    -0.00012424184858267
 122    -0.00013603211305197
 123    6.3916081555692e-05
 124    1.3844451441602e-06
 125    -5.4996411544351e-05
 126    -9.0757114336546e-07
 127    5.0644962702916e-05
 128    -5.9018723127418e-05
 129    0.00022183682212743
 130    0.00038148820391352
 131    -1.8233145172027e-05
 132    -1.472733916457e-05
 133    -4.1002245751482e-05
 134    0.00017277801007828
 135    0.0002373204014958
 136    2.1416629516778e-05
 137    2.432678448578e-05
 138    4.1004422632372e-05
 139    3.7021576695665e-05
 140    -7.8834142539668e-05
 141    -0.00037423274627796
 142    0.00015088083431226
 143    -5.5433340194615e-05
 144    -0.00012001650091563
 145    0.00030197446639211
 146    -8.3958328307178e-05
 147    -0.00012859362948069
 148    1.9823235262607e-06
 149    5.3128773034062e-06
 150    3.9429718016244e-07
 151    -1.8966162189623e-05
 152    7.096193632066e-06
 153    6.0028439695712e-05
 154    6.4069924399925e-05
 155    3.229589663978e-05
 156    -3.555465050603e-05
 157    -2.5050388264875e-05
 158    4.0639155177631e-05
 159    7.384054365842e-05
 160    6.9106559997415e-05
 161    5.7252550221294e-06
 162    -1.2088622147815e-05
 163    -4.1106618341004e-05
 164    -0.00012634624231226
 165    0.00014439377242707
 166    -0.00012445958387749
 167    8.1336639626227e-05
 168    -4.3185578730408e-06
 169    -0.00033132436511566
 170    0.00027128114335664
 171     0.000136623043173
 172    -7.1707407516524e-06
 173    -2.4185418405605e-05
 174    2.1701832574011e-05
 175    2.5458848304291e-06
 176    1.250207939821e-05
 177    1.7076882228879e-06
 178    -5.6897977659463e-05
 179    7.0296500868121e-06
 180    -5.6603500250458e-06
 181    5.304378855873e-06
 182    -2.2209681945405e-05
 183    -2.3699830742854e-05
 184    6.2742882504918e-05
 185    -2.2950177742716e-05
 186    -4.0990227359687e-05
 187    2.4876504501736e-05
 188    -0.00016545760213022
 189    9.1277158540544e-05
 190    0.00011495354719697
 191    -2.5267197972547e-06
 192    1.0585888413275e-06
 193    2.6486982873412e-06
 194    -1.8361306920515e-06
 195    7.4990082067279e-06
 196    8.5172817745901e-06
 197    3.7826133166159e-05
 198    -2.9484462981976e-06
 199    -6.7644299292807e-06
 200    -1.407502375203e-06
 201    -7.1489776489525e-05
 202    -3.6035592574989e-05
 203    5.3581390100683e-06
 204    -1.2447537274512e-05
 205    -1.8835465634362e-05
 206    -7.0207164686391e-05
 207    -8.2240464403656e-05
 208    1.5751111003185e-05
 209    4.7473998498655e-06
 210    -1.8838875742546e-05
 211    1.2598569526046e-06
 212    5.8273549365926e-05
 213    -0.00021568976140802
 214    7.0272775356968e-05
 215    -2.7584704383312e-05
 216    -3.0925422499456e-05
 217    -0.00013290675213783
 218    2.4010966696794e-05
 219    6.2595558418322e-05
 220    3.801521066276e-06
 221    1.3089662323104e-05
 222    -3.7110059285477e-06
 223    -9.6979298393549e-06
 224    4.9695172796036e-06
 225    -4.0836168574983e-05
 226    -5.3566334726659e-05
 227    1.2553527490187e-05
 228    1.9332613751686e-06
 229    2.8426273838659e-06
 230    -1.839891596023e-05
 231    -5.8354740648207e-05
 232    2.2910575134187e-06
 233    -7.1089961118295e-06
 234    -1.2483896533849e-05
 235    -6.4955906093027e-07
 236    -1.5262425539861e-05
 237    7.7153029095618e-05
 238    1.5836776550329e-05
 239    -2.7123420458519e-06
 240    -8.283811796469e-06
 241    -2.7481517554406e-05
 242    7.0510667881287e-05
 243    -2.3823100042169e-05
 244    -1.2063649516607e-06
 245    -4.0138527686649e-06
 246    3.4061441443131e-07
 247    8.1088773330308e-07
 248    3.4815038762222e-07
 249    1.6330968906385e-05
 250    -1.6747047197062e-05
 251    6.2899286784063e-06
 252    4.0030621683798e-07
 253    -1.4426869725001e-06
 254    8.7240406205657e-06
 255    -5.8866119293719e-05
 256    1.8625126912668e-06
 257    -5.4605952183792e-06
 258    -4.8620029474015e-07
 259    1.0072334038246e-05
 260    5.4066188446853e-06
 261    -9.2707220389991e-05
 262    -2.6336023932874e-05
 263    1.7361119442968e-05