[Molden Format]
made by pyscf v[2.0.1]
[Atoms] (AU)
O   1   8     0.00000000000000     0.00000000000000     7.16229833633744
H   2   1     0.00000000000000     0.00000000000000     5.33889651443647
H   3   1    -0.05031916615174     1.78353065140343     7.53817003280410
O   4   8     0.00000000000000     0.00000000000000     2.31533471513237
C   5   6     0.00000000000000     0.00000000000000     0.00000000000000
C   6   6     2.01118073026938    -1.40227222164369    -1.50774939176400
C   7   6    -2.01249334291722     1.41331050329955    -1.50315905028694
H   8   1     3.32037363730244    -2.26721897153159    -0.13599698591495
C   9   6     3.45899267434009     0.28739631745591    -3.37437943254505
H   10   1     1.07662969841332    -2.94725144642667    -2.56541439481080
H   11   1    -2.67503415753480     0.18421555839588    -3.06194479365997
H   12   1    -1.07974048864772     3.03851734677796    -2.43674295017013
C   13   6    -4.21607110578555     2.32938802552922     0.11994162256091
H   14   1     4.24440173074564     1.93368664142019    -2.34976285512790
H   15   1     2.15020713235517     1.04714335134846    -4.81494497423699
C   16   6     5.60746363007797    -1.12419643481196    -4.70268606082550
H   17   1    -3.46838323670267     3.50951302338067     1.66946842715333
H   18   1    -5.11873485366228     0.68575958301209     1.04047743976495
C   19   6    -6.18314754751344     3.80909592987882    -1.39656589068747
H   20   1     6.93011263717176    -1.87550812453645    -3.26656317360070
C   21   6     7.06356622236532     0.52877932406334    -6.57829775293605
H   22   1     4.82318879258361    -2.78573437948532    -5.70504560381835
H   23   1    -6.91582688743803     2.61304780074712    -2.95074552451969
H   24   1    -5.26532430573853     5.45420349051338    -2.31005832200284
C   25   6    -8.39941882261433     4.73263980500213     0.21800571437956
H   26   1     7.83338371486801     2.19084139882824    -5.57093109900697
H   27   1     5.73544244039420     1.27376866537418    -8.01071492370229
C   28   6     9.21124858443101    -0.89699110072176    -7.88926949186242
H   29   1    -7.66272760055236     5.92277078003992     1.77035591474408
H   30   1    -9.31497248082589     3.08753015622020     1.12614408368786
C   31   6   -10.35481709231879     6.21833079391143    -1.30905206253246
H   32   1    10.58815905329501    -1.61074586756696    -6.49512691622620
H   33   1    10.23506248045667     0.32468009384095    -9.23072870921204
H   34   1     8.47665842847139    -2.53598436989925    -8.94921964622535
H   35   1    -9.48948872868064     7.90013588951020    -2.18823918416067
H   36   1   -11.93332513000955     6.86460487874102    -0.11255798845995
H   37   1   -11.15126291841033     5.04495968327630    -2.83849898862534
[GTO]
1 0
 s    8 1.00
                 11720  0.00070964594651845
                  1759  0.0054672722921914
                 400.8   0.027823118610189
                 113.7    0.10474773971146
                 37.03    0.28292084635691
                 13.27    0.44849523869833
                 5.025    0.27081688521277
                 1.013    0.01545029160744
 s    8 1.00
                 11720  -0.00031444341168873
                  1759  -0.0024821376810179
                 400.8  -0.012316355381583
                 113.7  -0.050538917343672
                 37.03   -0.13938490331632
                 13.27   -0.32507749481778
                 5.025   -0.22984830758785
                 1.013     1.0953793467883
 s    1 1.00
                0.3023                   1
 p    3 1.00
                  17.7   0.062679166281506
                 3.854    0.33353656587936
                 1.046    0.74123964163973
 p    1 1.00
                0.2753                   1
 d    1 1.00
                 1.185                   1

2 0
 s    3 1.00
                 13.01   0.033498726389998
                 1.962    0.23480080117413
                0.4446     0.8136829578829
 s    1 1.00
                 0.122                   1
 p    1 1.00
                 0.727                   1

3 0
 s    3 1.00
                 13.01   0.033498726389998
                 1.962    0.23480080117413
                0.4446     0.8136829578829
 s    1 1.00
                 0.122                   1
 p    1 1.00
                 0.727                   1

4 0
 s    8 1.00
                 11720  0.00070964594651845
                  1759  0.0054672722921914
                 400.8   0.027823118610189
                 113.7    0.10474773971146
                 37.03    0.28292084635691
                 13.27    0.44849523869833
                 5.025    0.27081688521277
                 1.013    0.01545029160744
 s    8 1.00
                 11720  -0.00031444341168873
                  1759  -0.0024821376810179
                 400.8  -0.012316355381583
                 113.7  -0.050538917343672
                 37.03   -0.13938490331632
                 13.27   -0.32507749481778
                 5.025   -0.22984830758785
                 1.013     1.0953793467883
 s    1 1.00
                0.3023                   1
 p    3 1.00
                  17.7   0.062679166281506
                 3.854    0.33353656587936
                 1.046    0.74123964163973
 p    1 1.00
                0.2753                   1
 d    1 1.00
                 1.185                   1

5 0
 s    8 1.00
                  6665  0.00069158396281299
                  1000  0.0053257961529341
                   228   0.027060721042034
                 64.71    0.10165684614077
                 21.06     0.2745748236174
                 7.495    0.44829431892377
                 2.797    0.28490261071525
                0.5215   0.015194859206082
 s    8 1.00
                  6665  -0.00029326965268655
                  1000  -0.0023180354739745
                   228  -0.011499786038565
                 64.71  -0.046826727009787
                 21.06   -0.12846616875047
                 7.495   -0.30126627246289
                 2.797   -0.25563070233011
                0.5215      1.093793361012
 s    1 1.00
                0.1596                   1
 p    3 1.00
                 9.439   0.056979251590039
                 2.002    0.31320721150073
                0.5456    0.76037674173753
 p    1 1.00
                0.1517                   1
 d    1 1.00
                  0.55                   1

6 0
 s    8 1.00
                  6665  0.00069158396281299
                  1000  0.0053257961529341
                   228   0.027060721042034
                 64.71    0.10165684614077
                 21.06     0.2745748236174
                 7.495    0.44829431892377
                 2.797    0.28490261071525
                0.5215   0.015194859206082
 s    8 1.00
                  6665  -0.00029326965268655
                  1000  -0.0023180354739745
                   228  -0.011499786038565
                 64.71  -0.046826727009787
                 21.06   -0.12846616875047
                 7.495   -0.30126627246289
                 2.797   -0.25563070233011
                0.5215      1.093793361012
 s    1 1.00
                0.1596                   1
 p    3 1.00
                 9.439   0.056979251590039
                 2.002    0.31320721150073
                0.5456    0.76037674173753
 p    1 1.00
                0.1517                   1
 d    1 1.00
                  0.55                   1

7 0
 s    8 1.00
                  6665  0.00069158396281299
                  1000  0.0053257961529341
                   228   0.027060721042034
                 64.71    0.10165684614077
                 21.06     0.2745748236174
                 7.495    0.44829431892377
                 2.797    0.28490261071525
                0.5215   0.015194859206082
 s    8 1.00
                  6665  -0.00029326965268655
                  1000  -0.0023180354739745
                   228  -0.011499786038565
                 64.71  -0.046826727009787
                 21.06   -0.12846616875047
                 7.495   -0.30126627246289
                 2.797   -0.25563070233011
                0.5215      1.093793361012
 s    1 1.00
                0.1596                   1
 p    3 1.00
                 9.439   0.056979251590039
                 2.002    0.31320721150073
                0.5456    0.76037674173753
 p    1 1.00
                0.1517                   1
 d    1 1.00
                  0.55                   1

8 0
 s    3 1.00
                 13.01   0.033498726389998
                 1.962    0.23480080117413
                0.4446     0.8136829578829
 s    1 1.00
                 0.122                   1
 p    1 1.00
                 0.727                   1

9 0
 s    8 1.00
                  6665  0.00069158396281299
                  1000  0.0053257961529341
                   228   0.027060721042034
                 64.71    0.10165684614077
                 21.06     0.2745748236174
                 7.495    0.44829431892377
                 2.797    0.28490261071525
                0.5215   0.015194859206082
 s    8 1.00
                  6665  -0.00029326965268655
                  1000  -0.0023180354739745
                   228  -0.011499786038565
                 64.71  -0.046826727009787
                 21.06   -0.12846616875047
                 7.495   -0.30126627246289
                 2.797   -0.25563070233011
                0.5215      1.093793361012
 s    1 1.00
                0.1596                   1
 p    3 1.00
                 9.439   0.056979251590039
                 2.002    0.31320721150073
                0.5456    0.76037674173753
 p    1 1.00
                0.1517                   1
 d    1 1.00
                  0.55                   1

10 0
 s    3 1.00
                 13.01   0.033498726389998
                 1.962    0.23480080117413
                0.4446     0.8136829578829
 s    1 1.00
                 0.122                   1
 p    1 1.00
                 0.727                   1

11 0
 s    3 1.00
                 13.01   0.033498726389998
                 1.962    0.23480080117413
                0.4446     0.8136829578829
 s    1 1.00
                 0.122                   1
 p    1 1.00
                 0.727                   1

12 0
 s    3 1.00
                 13.01   0.033498726389998
                 1.962    0.23480080117413
                0.4446     0.8136829578829
 s    1 1.00
                 0.122                   1
 p    1 1.00
                 0.727                   1

13 0
 s    8 1.00
                  6665  0.00069158396281299
                  1000  0.0053257961529341
                   228   0.027060721042034
                 64.71    0.10165684614077
                 21.06     0.2745748236174
                 7.495    0.44829431892377
                 2.797    0.28490261071525
                0.5215   0.015194859206082
 s    8 1.00
                  6665  -0.00029326965268655
                  1000  -0.0023180354739745
                   228  -0.011499786038565
                 64.71  -0.046826727009787
                 21.06   -0.12846616875047
                 7.495   -0.30126627246289
                 2.797   -0.25563070233011
                0.5215      1.093793361012
 s    1 1.00
                0.1596                   1
 p    3 1.00
                 9.439   0.056979251590039
                 2.002    0.31320721150073
                0.5456    0.76037674173753
 p    1 1.00
                0.1517                   1
 d    1 1.00
                  0.55                   1

14 0
 s    3 1.00
                 13.01   0.033498726389998
                 1.962    0.23480080117413
                0.4446     0.8136829578829
 s    1 1.00
                 0.122                   1
 p    1 1.00
                 0.727                   1

15 0
 s    3 1.00
                 13.01   0.033498726389998
                 1.962    0.23480080117413
                0.4446     0.8136829578829
 s    1 1.00
                 0.122                   1
 p    1 1.00
                 0.727                   1

16 0
 s    8 1.00
                  6665  0.00069158396281299
                  1000  0.0053257961529341
                   228   0.027060721042034
                 64.71    0.10165684614077
                 21.06     0.2745748236174
                 7.495    0.44829431892377
                 2.797    0.28490261071525
                0.5215   0.015194859206082
 s    8 1.00
                  6665  -0.00029326965268655
                  1000  -0.0023180354739745
                   228  -0.011499786038565
                 64.71  -0.046826727009787
                 21.06   -0.12846616875047
                 7.495   -0.30126627246289
                 2.797   -0.25563070233011
                0.5215      1.093793361012
 s    1 1.00
                0.1596                   1
 p    3 1.00
                 9.439   0.056979251590039
                 2.002    0.31320721150073
                0.5456    0.76037674173753
 p    1 1.00
                0.1517                   1
 d    1 1.00
                  0.55                   1

17 0
 s    3 1.00
                 13.01   0.033498726389998
                 1.962    0.23480080117413
                0.4446     0.8136829578829
 s    1 1.00
                 0.122                   1
 p    1 1.00
                 0.727                   1

18 0
 s    3 1.00
                 13.01   0.033498726389998
                 1.962    0.23480080117413
                0.4446     0.8136829578829
 s    1 1.00
                 0.122                   1
 p    1 1.00
                 0.727                   1

19 0
 s    8 1.00
                  6665  0.00069158396281299
                  1000  0.0053257961529341
                   228   0.027060721042034
                 64.71    0.10165684614077
                 21.06     0.2745748236174
                 7.495    0.44829431892377
                 2.797    0.28490261071525
                0.5215   0.015194859206082
 s    8 1.00
                  6665  -0.00029326965268655
                  1000  -0.0023180354739745
                   228  -0.011499786038565
                 64.71  -0.046826727009787
                 21.06   -0.12846616875047
                 7.495   -0.30126627246289
                 2.797   -0.25563070233011
                0.5215      1.093793361012
 s    1 1.00
                0.1596                   1
 p    3 1.00
                 9.439   0.056979251590039
                 2.002    0.31320721150073
                0.5456    0.76037674173753
 p    1 1.00
                0.1517                   1
 d    1 1.00
                  0.55                   1

20 0
 s    3 1.00
                 13.01   0.033498726389998
                 1.962    0.23480080117413
                0.4446     0.8136829578829
 s    1 1.00
                 0.122                   1
 p    1 1.00
                 0.727                   1

21 0
 s    8 1.00
                  6665  0.00069158396281299
                  1000  0.0053257961529341
                   228   0.027060721042034
                 64.71    0.10165684614077
                 21.06     0.2745748236174
                 7.495    0.44829431892377
                 2.797    0.28490261071525
                0.5215   0.015194859206082
 s    8 1.00
                  6665  -0.00029326965268655
                  1000  -0.0023180354739745
                   228  -0.011499786038565
                 64.71  -0.046826727009787
                 21.06   -0.12846616875047
                 7.495   -0.30126627246289
                 2.797   -0.25563070233011
                0.5215      1.093793361012
 s    1 1.00
                0.1596                   1
 p    3 1.00
                 9.439   0.056979251590039
                 2.002    0.31320721150073
                0.5456    0.76037674173753
 p    1 1.00
                0.1517                   1
 d    1 1.00
                  0.55                   1

22 0
 s    3 1.00
                 13.01   0.033498726389998
                 1.962    0.23480080117413
                0.4446     0.8136829578829
 s    1 1.00
                 0.122                   1
 p    1 1.00
                 0.727                   1

23 0
 s    3 1.00
                 13.01   0.033498726389998
                 1.962    0.23480080117413
                0.4446     0.8136829578829
 s    1 1.00
                 0.122                   1
 p    1 1.00
                 0.727                   1

24 0
 s    3 1.00
                 13.01   0.033498726389998
                 1.962    0.23480080117413
                0.4446     0.8136829578829
 s    1 1.00
                 0.122                   1
 p    1 1.00
                 0.727                   1

25 0
 s    8 1.00
                  6665  0.00069158396281299
                  1000  0.0053257961529341
                   228   0.027060721042034
                 64.71    0.10165684614077
                 21.06     0.2745748236174
                 7.495    0.44829431892377
                 2.797    0.28490261071525
                0.5215   0.015194859206082
 s    8 1.00
                  6665  -0.00029326965268655
                  1000  -0.0023180354739745
                   228  -0.011499786038565
                 64.71  -0.046826727009787
                 21.06   -0.12846616875047
                 7.495   -0.30126627246289
                 2.797   -0.25563070233011
                0.5215      1.093793361012
 s    1 1.00
                0.1596                   1
 p    3 1.00
                 9.439   0.056979251590039
                 2.002    0.31320721150073
                0.5456    0.76037674173753
 p    1 1.00
                0.1517                   1
 d    1 1.00
                  0.55                   1

26 0
 s    3 1.00
                 13.01   0.033498726389998
                 1.962    0.23480080117413
                0.4446     0.8136829578829
 s    1 1.00
                 0.122                   1
 p    1 1.00
                 0.727                   1

27 0
 s    3 1.00
                 13.01   0.033498726389998
                 1.962    0.23480080117413
                0.4446     0.8136829578829
 s    1 1.00
                 0.122                   1
 p    1 1.00
                 0.727                   1

28 0
 s    8 1.00
                  6665  0.00069158396281299
                  1000  0.0053257961529341
                   228   0.027060721042034
                 64.71    0.10165684614077
                 21.06     0.2745748236174
                 7.495    0.44829431892377
                 2.797    0.28490261071525
                0.5215   0.015194859206082
 s    8 1.00
                  6665  -0.00029326965268655
                  1000  -0.0023180354739745
                   228  -0.011499786038565
                 64.71  -0.046826727009787
                 21.06   -0.12846616875047
                 7.495   -0.30126627246289
                 2.797   -0.25563070233011
                0.5215      1.093793361012
 s    1 1.00
                0.1596                   1
 p    3 1.00
                 9.439   0.056979251590039
                 2.002    0.31320721150073
                0.5456    0.76037674173753
 p    1 1.00
                0.1517                   1
 d    1 1.00
                  0.55                   1

29 0
 s    3 1.00
                 13.01   0.033498726389998
                 1.962    0.23480080117413
                0.4446     0.8136829578829
 s    1 1.00
                 0.122                   1
 p    1 1.00
                 0.727                   1

30 0
 s    3 1.00
                 13.01   0.033498726389998
                 1.962    0.23480080117413
                0.4446     0.8136829578829
 s    1 1.00
                 0.122                   1
 p    1 1.00
                 0.727                   1

31 0
 s    8 1.00
                  6665  0.00069158396281299
                  1000  0.0053257961529341
                   228   0.027060721042034
                 64.71    0.10165684614077
                 21.06     0.2745748236174
                 7.495    0.44829431892377
                 2.797    0.28490261071525
                0.5215   0.015194859206082
 s    8 1.00
                  6665  -0.00029326965268655
                  1000  -0.0023180354739745
                   228  -0.011499786038565
                 64.71  -0.046826727009787
                 21.06   -0.12846616875047
                 7.495   -0.30126627246289
                 2.797   -0.25563070233011
                0.5215      1.093793361012
 s    1 1.00
                0.1596                   1
 p    3 1.00
                 9.439   0.056979251590039
                 2.002    0.31320721150073
                0.5456    0.76037674173753
 p    1 1.00
                0.1517                   1
 d    1 1.00
                  0.55                   1

32 0
 s    3 1.00
                 13.01   0.033498726389998
                 1.962    0.23480080117413
                0.4446     0.8136829578829
 s    1 1.00
                 0.122                   1
 p    1 1.00
                 0.727                   1

33 0
 s    3 1.00
                 13.01   0.033498726389998
                 1.962    0.23480080117413
                0.4446     0.8136829578829
 s    1 1.00
                 0.122                   1
 p    1 1.00
                 0.727                   1

34 0
 s    3 1.00
                 13.01   0.033498726389998
                 1.962    0.23480080117413
                0.4446     0.8136829578829
 s    1 1.00
                 0.122                   1
 p    1 1.00
                 0.727                   1

35 0
 s    3 1.00
                 13.01   0.033498726389998
                 1.962    0.23480080117413
                0.4446     0.8136829578829
 s    1 1.00
                 0.122                   1
 p    1 1.00
                 0.727                   1

36 0
 s    3 1.00
                 13.01   0.033498726389998
                 1.962    0.23480080117413
                0.4446     0.8136829578829
 s    1 1.00
                 0.122                   1
 p    1 1.00
                 0.727                   1

37 0
 s    3 1.00
                 13.01   0.033498726389998
                 1.962    0.23480080117413
                0.4446     0.8136829578829
 s    1 1.00
                 0.122                   1
 p    1 1.00
                 0.727                   1

[5d]
[7f]
[9g]

[MO]
 Sym= A
 Ene=               0
 Spin= Alpha
 Occup=    1.00000
   1    -3.5477565931574e-05
   2    -9.5248152679287e-06
   3    3.8074981580292e-05
   4    1.1000115809538e-06
   5    2.3752863998325e-06
   6    6.8661364856523e-06
   7    -1.0779674769874e-06
   8    -1.8010333484689e-05
   9    2.8148711422926e-05
  10    -1.5761745688531e-05
  11    -3.0238043905459e-07
  12    2.9034021478211e-06
  13    2.9093445952347e-06
  14    1.0361052131179e-07
  15    -3.6472770502391e-05
  16    -0.0001901652538059
  17    -1.450401701201e-06
  18    4.1931084941572e-06
  19    3.6284743029326e-05
  20    1.3653247419484e-05
  21    1.9004093149473e-05
  22    2.0790729727433e-07
  23    4.1274743727251e-06
  24    -9.5354330389361e-06
  25       1.0013994033656
  26    0.0020668671264141
  27    -0.007051575143175
  28    -2.9237996672462e-06
  29    1.462137369646e-05
  30    -0.001613777900103
  31    2.0239115417601e-06
  32    -6.7018691048793e-06
  33     0.002055231012003
  34    0.00010867329469679
  35    -3.4277511711809e-06
  36    1.7896416264408e-06
  37    6.3262295892058e-05
  38    -0.00016529968631436
  39    0.00033060166932993
  40    0.0004915051705939
  41    0.0017350752288886
  42    3.8154058155403e-05
  43    -2.3774513935949e-05
  44    -2.4055412565304e-05
  45    4.0883029562061e-05
  46    -3.5366575896203e-05
  47    0.0037615388397337
  48    -0.00045235218818947
  49    -6.554188975573e-06
  50    1.6270612010952e-06
  51    2.4710039352044e-05
  52    -8.3609026287242e-05
  53    -0.00064172093614582
  54    -0.00054310538093029
  55    0.0012036618511575
  56    -0.00017224019140031
  57    0.00025664166664354
  58    -0.00025628296377344
  59    -0.00056126162244594
  60    0.00063805644963054
  61    -0.0010865819296237
  62    -0.00011710600650162
  63    0.00012091143253642
  64    -0.00012651733489448
  65    6.1401531975599e-05
  66    -0.00012762093142237
  67    -0.00057981675250223
  68    -0.00042970984243187
  69    0.0002005387912642
  70    0.00019611858986726
  71    -0.0001826296912196
  72    -0.00030272855820119
  73    0.0011690802811339
  74    -0.00090341957955691
  75    -0.00084132801402848
  76    -0.00014060701129932
  77    -9.1667726557466e-05
  78    8.6837901644201e-05
  79    4.6332875555063e-05
  80    -0.00014495775613456
  81    -0.00061935651613033
  82    5.8450015109556e-05
  83    9.8523710579176e-05
  84    -6.8053793299746e-05
  85    8.0282676538148e-05
  86    3.4796341977117e-05
  87    -3.2930860421532e-05
  88    -0.00065334083125676
  89    0.00014828924554418
  90    -0.00028371020781475
  91    -5.9711319258131e-05
  92    0.00037094572441827
  93    0.00051545484280526
  94    -7.0294240278778e-05
  95    6.2253005982467e-06
  96    -8.2445402613358e-06
  97    2.9738901906766e-05
  98    -2.8252072338635e-06
  99    -6.6306515120484e-05
 100    -0.00021078888072892
 101    -0.0001935760189891
 102    -1.2443010433377e-05
 103    -1.9715275750725e-05
 104    6.0228625402416e-05
 105    1.6207890476214e-05
 106    -0.00015787763477147
 107    -6.0210330146593e-05
 108    -1.1276918578054e-06
 109    7.2073028556377e-05
 110    -5.7513291116979e-05
 111    -8.0785724341971e-05
 112    -3.1676727018706e-05
 113    2.9665284509291e-05
 114    6.0790932296371e-05
 115    -0.00010159646909579
 116    -0.00024099192264087
 117    0.00082525659880752
 118    -0.00041087825921069
 119    0.00020691093422209
 120    0.00020201661405804
 121    0.0001115205044548
 122    0.00014794221681556
 123    -9.4150809903076e-05
 124    -6.8860143286842e-07
 125    5.2554644664309e-05
 126    -1.6454492614601e-07
 127    -5.1396929237156e-05
 128    6.199143885465e-05
 129    -0.00022332802431618
 130    -0.00040629105193662
 131    1.9512269127062e-05
 132    1.5000902981354e-05
 133    4.180611430101e-05
 134    -0.0001784832380541
 135    -0.00023625477534225
 136    -2.2312759951127e-05
 137    -2.5962068432521e-05
 138    -4.2936896371614e-05
 139    -3.9462727131059e-05
 140    7.6446557044496e-05
 141    0.00039968244702415
 142    -0.00015363613541857
 143    5.5091030589737e-05
 144    0.00012076869895285
 145    -0.00030467012438542
 146    9.5440875825689e-05
 147    0.00012128464816755
 148    -2.2183404885271e-06
 149    -4.8243838640712e-06
 150    -1.979579103996e-06
 151    1.9973437609994e-05
 152    -6.7974449379599e-06
 153    -5.1016578992443e-05
 154    -4.1311049077911e-05
 155    -3.3599388826922e-05
 156    3.2168075144438e-05
 157    2.3269149666842e-05
 158    -3.1585964915259e-05
 159    -6.8607408536645e-05
 160    -6.8365384615098e-05
 161    -5.7363954357225e-06
 162    1.2917039535247e-05
 163    4.0575788138816e-05
 164    0.00012827819494824
 165    -0.00018771658924269
 166    0.00012429778910722
 167    -8.0742748064039e-05
 168    3.9836074452569e-06
 169    0.00032301190581904
 170    -0.00026562072445863
 171    -0.00015133777839405
 172    7.8997024044581e-06
 173    2.4500214064284e-05
 174    -2.1928533719377e-05
 175    -2.7840952799567e-06
 176    -1.2186302769885e-05
 177    -3.980200468637e-06
 178    6.1115092644055e-05
 179    -7.7880266953919e-06
 180    5.0539760661007e-06
 181    -4.7170423979406e-06
 182    2.3944163465669e-05
 183    2.6315254168307e-05
 184    -8.3026456283808e-05
 185    2.4011097003117e-05
 186    4.2065393856163e-05
 187    -2.6285463176536e-05
 188    0.00017335769921542
 189    -9.1454085138237e-05
 190    -0.00012659322657217
 191    2.324960438673e-06
 192    -5.5278312236598e-07
 193    -2.3810831858764e-06
 194    1.9949101429281e-06
 195    -8.4428727298455e-06
 196    -6.9999593451258e-06
 197    -3.8765434367894e-05
 198    2.8585527754945e-06
 199    6.751073478949e-06
 200    1.9618729294102e-06
 201    7.1145527550763e-05
 202    3.2666578784675e-05
 203    -5.958265547402e-06
 204    1.2100946684327e-05
 205    1.8714181255468e-05
 206    7.084161112038e-05
 207    8.3923957588129e-05
 208    -1.5482084204449e-05
 209    -4.8078681418582e-06
 210    1.9387526006997e-05
 211    -2.9160557342948e-06
 212    -6.0282863122843e-05
 213    0.00023536479020559
 214    -7.0376776958761e-05
 215    2.7859392612727e-05
 216    3.1206050140476e-05
 217    0.00013143603429684
 218    -2.1325971085789e-05
 219    -6.7189555508621e-05
 220    -3.8578054764554e-06
 221    -1.2892920619338e-05
 222    3.6394617259219e-06
 223    9.8784264734256e-06
 224    -4.9792393324866e-06
 225    4.301014020769e-05
 226    5.8127783381264e-05
 227    -1.3122680971158e-05
 228    -2.3414143651911e-06
 229    -2.8261046183295e-06
 230    1.9422840588477e-05
 231    5.8544147067629e-05
 232    -2.5039630933492e-06
 233    7.4559740528461e-06
 234    1.2886410719076e-05
 235    8.0012387132591e-07
 236    1.601813056801e-05
 237    -7.9462260398205e-05
 238    -1.6480264330508e-05
 239    2.8915046190124e-06
 240    8.8888334911045e-06
 241    2.9813978344864e-05
 242    -7.2475447167509e-05
 243    2.4834958210482e-05
 244    1.3354617796189e-06
 245    4.2340648022604e-06
 246    -2.4295894833831e-07
 247    -8.9696971068978e-07
 248    -3.7243153607911e-07
 249    -1.5989279045517e-05
 250    1.2634592611158e-05
 251    -6.0456509210342e-06
 252    -2.5978314118966e-07
 253    1.9262193734116e-06
 254    -9.3276831204047e-06
 255    5.9610929802038e-05
 256    -1.3734447973404e-06
 257    5.2650688461146e-06
 258    6.6757266386728e-07
 259    -9.2073914904356e-06
 260    -3.9276359709155e-06
 261    8.1664032474352e-05
 262    2.6533530577325e-05