[Molden Format]
made by pyscf v[2.0.1]
[Atoms] (AU)
O   1   8     0.00000000000000     0.00000000000000    11.31969581038057
H   2   1     0.00000000000000     0.00000000000000     9.49629398847960
H   3   1    -0.05031916615174     1.78353065140343    11.69556750684724
O   4   8     0.00000000000000     0.00000000000000     2.31533471513237
C   5   6     0.00000000000000     0.00000000000000     0.00000000000000
C   6   6     2.01118073026938    -1.40227222164369    -1.50774939176400
C   7   6    -2.01249334291722     1.41331050329955    -1.50315905028694
H   8   1     3.32037363730244    -2.26721897153159    -0.13599698591495
C   9   6     3.45899267434009     0.28739631745591    -3.37437943254505
H   10   1     1.07662969841332    -2.94725144642667    -2.56541439481080
H   11   1    -2.67503415753480     0.18421555839588    -3.06194479365997
H   12   1    -1.07974048864772     3.03851734677796    -2.43674295017013
C   13   6    -4.21607110578555     2.32938802552922     0.11994162256091
H   14   1     4.24440173074564     1.93368664142019    -2.34976285512790
H   15   1     2.15020713235517     1.04714335134846    -4.81494497423699
C   16   6     5.60746363007797    -1.12419643481196    -4.70268606082550
H   17   1    -3.46838323670267     3.50951302338067     1.66946842715333
H   18   1    -5.11873485366228     0.68575958301209     1.04047743976495
C   19   6    -6.18314754751344     3.80909592987882    -1.39656589068747
H   20   1     6.93011263717176    -1.87550812453645    -3.26656317360070
C   21   6     7.06356622236532     0.52877932406334    -6.57829775293605
H   22   1     4.82318879258361    -2.78573437948532    -5.70504560381835
H   23   1    -6.91582688743803     2.61304780074712    -2.95074552451969
H   24   1    -5.26532430573853     5.45420349051338    -2.31005832200284
C   25   6    -8.39941882261433     4.73263980500213     0.21800571437956
H   26   1     7.83338371486801     2.19084139882824    -5.57093109900697
H   27   1     5.73544244039420     1.27376866537418    -8.01071492370229
C   28   6     9.21124858443101    -0.89699110072176    -7.88926949186242
H   29   1    -7.66272760055236     5.92277078003992     1.77035591474408
H   30   1    -9.31497248082589     3.08753015622020     1.12614408368786
C   31   6   -10.35481709231879     6.21833079391143    -1.30905206253246
H   32   1    10.58815905329501    -1.61074586756696    -6.49512691622620
H   33   1    10.23506248045667     0.32468009384095    -9.23072870921204
H   34   1     8.47665842847139    -2.53598436989925    -8.94921964622535
H   35   1    -9.48948872868064     7.90013588951020    -2.18823918416067
H   36   1   -11.93332513000955     6.86460487874102    -0.11255798845995
H   37   1   -11.15126291841033     5.04495968327630    -2.83849898862534
[GTO]
1 0
 s    8 1.00
                 11720  0.00070964594651845
                  1759  0.0054672722921914
                 400.8   0.027823118610189
                 113.7    0.10474773971146
                 37.03    0.28292084635691
                 13.27    0.44849523869833
                 5.025    0.27081688521277
                 1.013    0.01545029160744
 s    8 1.00
                 11720  -0.00031444341168873
                  1759  -0.0024821376810179
                 400.8  -0.012316355381583
                 113.7  -0.050538917343672
                 37.03   -0.13938490331632
                 13.27   -0.32507749481778
                 5.025   -0.22984830758785
                 1.013     1.0953793467883
 s    1 1.00
                0.3023                   1
 p    3 1.00
                  17.7   0.062679166281506
                 3.854    0.33353656587936
                 1.046    0.74123964163973
 p    1 1.00
                0.2753                   1
 d    1 1.00
                 1.185                   1

2 0
 s    3 1.00
                 13.01   0.033498726389998
                 1.962    0.23480080117413
                0.4446     0.8136829578829
 s    1 1.00
                 0.122                   1
 p    1 1.00
                 0.727                   1

3 0
 s    3 1.00
                 13.01   0.033498726389998
                 1.962    0.23480080117413
                0.4446     0.8136829578829
 s    1 1.00
                 0.122                   1
 p    1 1.00
                 0.727                   1

4 0
 s    8 1.00
                 11720  0.00070964594651845
                  1759  0.0054672722921914
                 400.8   0.027823118610189
                 113.7    0.10474773971146
                 37.03    0.28292084635691
                 13.27    0.44849523869833
                 5.025    0.27081688521277
                 1.013    0.01545029160744
 s    8 1.00
                 11720  -0.00031444341168873
                  1759  -0.0024821376810179
                 400.8  -0.012316355381583
                 113.7  -0.050538917343672
                 37.03   -0.13938490331632
                 13.27   -0.32507749481778
                 5.025   -0.22984830758785
                 1.013     1.0953793467883
 s    1 1.00
                0.3023                   1
 p    3 1.00
                  17.7   0.062679166281506
                 3.854    0.33353656587936
                 1.046    0.74123964163973
 p    1 1.00
                0.2753                   1
 d    1 1.00
                 1.185                   1

5 0
 s    8 1.00
                  6665  0.00069158396281299
                  1000  0.0053257961529341
                   228   0.027060721042034
                 64.71    0.10165684614077
                 21.06     0.2745748236174
                 7.495    0.44829431892377
                 2.797    0.28490261071525
                0.5215   0.015194859206082
 s    8 1.00
                  6665  -0.00029326965268655
                  1000  -0.0023180354739745
                   228  -0.011499786038565
                 64.71  -0.046826727009787
                 21.06   -0.12846616875047
                 7.495   -0.30126627246289
                 2.797   -0.25563070233011
                0.5215      1.093793361012
 s    1 1.00
                0.1596                   1
 p    3 1.00
                 9.439   0.056979251590039
                 2.002    0.31320721150073
                0.5456    0.76037674173753
 p    1 1.00
                0.1517                   1
 d    1 1.00
                  0.55                   1

6 0
 s    8 1.00
                  6665  0.00069158396281299
                  1000  0.0053257961529341
                   228   0.027060721042034
                 64.71    0.10165684614077
                 21.06     0.2745748236174
                 7.495    0.44829431892377
                 2.797    0.28490261071525
                0.5215   0.015194859206082
 s    8 1.00
                  6665  -0.00029326965268655
                  1000  -0.0023180354739745
                   228  -0.011499786038565
                 64.71  -0.046826727009787
                 21.06   -0.12846616875047
                 7.495   -0.30126627246289
                 2.797   -0.25563070233011
                0.5215      1.093793361012
 s    1 1.00
                0.1596                   1
 p    3 1.00
                 9.439   0.056979251590039
                 2.002    0.31320721150073
                0.5456    0.76037674173753
 p    1 1.00
                0.1517                   1
 d    1 1.00
                  0.55                   1

7 0
 s    8 1.00
                  6665  0.00069158396281299
                  1000  0.0053257961529341
                   228   0.027060721042034
                 64.71    0.10165684614077
                 21.06     0.2745748236174
                 7.495    0.44829431892377
                 2.797    0.28490261071525
                0.5215   0.015194859206082
 s    8 1.00
                  6665  -0.00029326965268655
                  1000  -0.0023180354739745
                   228  -0.011499786038565
                 64.71  -0.046826727009787
                 21.06   -0.12846616875047
                 7.495   -0.30126627246289
                 2.797   -0.25563070233011
                0.5215      1.093793361012
 s    1 1.00
                0.1596                   1
 p    3 1.00
                 9.439   0.056979251590039
                 2.002    0.31320721150073
                0.5456    0.76037674173753
 p    1 1.00
                0.1517                   1
 d    1 1.00
                  0.55                   1

8 0
 s    3 1.00
                 13.01   0.033498726389998
                 1.962    0.23480080117413
                0.4446     0.8136829578829
 s    1 1.00
                 0.122                   1
 p    1 1.00
                 0.727                   1

9 0
 s    8 1.00
                  6665  0.00069158396281299
                  1000  0.0053257961529341
                   228   0.027060721042034
                 64.71    0.10165684614077
                 21.06     0.2745748236174
                 7.495    0.44829431892377
                 2.797    0.28490261071525
                0.5215   0.015194859206082
 s    8 1.00
                  6665  -0.00029326965268655
                  1000  -0.0023180354739745
                   228  -0.011499786038565
                 64.71  -0.046826727009787
                 21.06   -0.12846616875047
                 7.495   -0.30126627246289
                 2.797   -0.25563070233011
                0.5215      1.093793361012
 s    1 1.00
                0.1596                   1
 p    3 1.00
                 9.439   0.056979251590039
                 2.002    0.31320721150073
                0.5456    0.76037674173753
 p    1 1.00
                0.1517                   1
 d    1 1.00
                  0.55                   1

10 0
 s    3 1.00
                 13.01   0.033498726389998
                 1.962    0.23480080117413
                0.4446     0.8136829578829
 s    1 1.00
                 0.122                   1
 p    1 1.00
                 0.727                   1

11 0
 s    3 1.00
                 13.01   0.033498726389998
                 1.962    0.23480080117413
                0.4446     0.8136829578829
 s    1 1.00
                 0.122                   1
 p    1 1.00
                 0.727                   1

12 0
 s    3 1.00
                 13.01   0.033498726389998
                 1.962    0.23480080117413
                0.4446     0.8136829578829
 s    1 1.00
                 0.122                   1
 p    1 1.00
                 0.727                   1

13 0
 s    8 1.00
                  6665  0.00069158396281299
                  1000  0.0053257961529341
                   228   0.027060721042034
                 64.71    0.10165684614077
                 21.06     0.2745748236174
                 7.495    0.44829431892377
                 2.797    0.28490261071525
                0.5215   0.015194859206082
 s    8 1.00
                  6665  -0.00029326965268655
                  1000  -0.0023180354739745
                   228  -0.011499786038565
                 64.71  -0.046826727009787
                 21.06   -0.12846616875047
                 7.495   -0.30126627246289
                 2.797   -0.25563070233011
                0.5215      1.093793361012
 s    1 1.00
                0.1596                   1
 p    3 1.00
                 9.439   0.056979251590039
                 2.002    0.31320721150073
                0.5456    0.76037674173753
 p    1 1.00
                0.1517                   1
 d    1 1.00
                  0.55                   1

14 0
 s    3 1.00
                 13.01   0.033498726389998
                 1.962    0.23480080117413
                0.4446     0.8136829578829
 s    1 1.00
                 0.122                   1
 p    1 1.00
                 0.727                   1

15 0
 s    3 1.00
                 13.01   0.033498726389998
                 1.962    0.23480080117413
                0.4446     0.8136829578829
 s    1 1.00
                 0.122                   1
 p    1 1.00
                 0.727                   1

16 0
 s    8 1.00
                  6665  0.00069158396281299
                  1000  0.0053257961529341
                   228   0.027060721042034
                 64.71    0.10165684614077
                 21.06     0.2745748236174
                 7.495    0.44829431892377
                 2.797    0.28490261071525
                0.5215   0.015194859206082
 s    8 1.00
                  6665  -0.00029326965268655
                  1000  -0.0023180354739745
                   228  -0.011499786038565
                 64.71  -0.046826727009787
                 21.06   -0.12846616875047
                 7.495   -0.30126627246289
                 2.797   -0.25563070233011
                0.5215      1.093793361012
 s    1 1.00
                0.1596                   1
 p    3 1.00
                 9.439   0.056979251590039
                 2.002    0.31320721150073
                0.5456    0.76037674173753
 p    1 1.00
                0.1517                   1
 d    1 1.00
                  0.55                   1

17 0
 s    3 1.00
                 13.01   0.033498726389998
                 1.962    0.23480080117413
                0.4446     0.8136829578829
 s    1 1.00
                 0.122                   1
 p    1 1.00
                 0.727                   1

18 0
 s    3 1.00
                 13.01   0.033498726389998
                 1.962    0.23480080117413
                0.4446     0.8136829578829
 s    1 1.00
                 0.122                   1
 p    1 1.00
                 0.727                   1

19 0
 s    8 1.00
                  6665  0.00069158396281299
                  1000  0.0053257961529341
                   228   0.027060721042034
                 64.71    0.10165684614077
                 21.06     0.2745748236174
                 7.495    0.44829431892377
                 2.797    0.28490261071525
                0.5215   0.015194859206082
 s    8 1.00
                  6665  -0.00029326965268655
                  1000  -0.0023180354739745
                   228  -0.011499786038565
                 64.71  -0.046826727009787
                 21.06   -0.12846616875047
                 7.495   -0.30126627246289
                 2.797   -0.25563070233011
                0.5215      1.093793361012
 s    1 1.00
                0.1596                   1
 p    3 1.00
                 9.439   0.056979251590039
                 2.002    0.31320721150073
                0.5456    0.76037674173753
 p    1 1.00
                0.1517                   1
 d    1 1.00
                  0.55                   1

20 0
 s    3 1.00
                 13.01   0.033498726389998
                 1.962    0.23480080117413
                0.4446     0.8136829578829
 s    1 1.00
                 0.122                   1
 p    1 1.00
                 0.727                   1

21 0
 s    8 1.00
                  6665  0.00069158396281299
                  1000  0.0053257961529341
                   228   0.027060721042034
                 64.71    0.10165684614077
                 21.06     0.2745748236174
                 7.495    0.44829431892377
                 2.797    0.28490261071525
                0.5215   0.015194859206082
 s    8 1.00
                  6665  -0.00029326965268655
                  1000  -0.0023180354739745
                   228  -0.011499786038565
                 64.71  -0.046826727009787
                 21.06   -0.12846616875047
                 7.495   -0.30126627246289
                 2.797   -0.25563070233011
                0.5215      1.093793361012
 s    1 1.00
                0.1596                   1
 p    3 1.00
                 9.439   0.056979251590039
                 2.002    0.31320721150073
                0.5456    0.76037674173753
 p    1 1.00
                0.1517                   1
 d    1 1.00
                  0.55                   1

22 0
 s    3 1.00
                 13.01   0.033498726389998
                 1.962    0.23480080117413
                0.4446     0.8136829578829
 s    1 1.00
                 0.122                   1
 p    1 1.00
                 0.727                   1

23 0
 s    3 1.00
                 13.01   0.033498726389998
                 1.962    0.23480080117413
                0.4446     0.8136829578829
 s    1 1.00
                 0.122                   1
 p    1 1.00
                 0.727                   1

24 0
 s    3 1.00
                 13.01   0.033498726389998
                 1.962    0.23480080117413
                0.4446     0.8136829578829
 s    1 1.00
                 0.122                   1
 p    1 1.00
                 0.727                   1

25 0
 s    8 1.00
                  6665  0.00069158396281299
                  1000  0.0053257961529341
                   228   0.027060721042034
                 64.71    0.10165684614077
                 21.06     0.2745748236174
                 7.495    0.44829431892377
                 2.797    0.28490261071525
                0.5215   0.015194859206082
 s    8 1.00
                  6665  -0.00029326965268655
                  1000  -0.0023180354739745
                   228  -0.011499786038565
                 64.71  -0.046826727009787
                 21.06   -0.12846616875047
                 7.495   -0.30126627246289
                 2.797   -0.25563070233011
                0.5215      1.093793361012
 s    1 1.00
                0.1596                   1
 p    3 1.00
                 9.439   0.056979251590039
                 2.002    0.31320721150073
                0.5456    0.76037674173753
 p    1 1.00
                0.1517                   1
 d    1 1.00
                  0.55                   1

26 0
 s    3 1.00
                 13.01   0.033498726389998
                 1.962    0.23480080117413
                0.4446     0.8136829578829
 s    1 1.00
                 0.122                   1
 p    1 1.00
                 0.727                   1

27 0
 s    3 1.00
                 13.01   0.033498726389998
                 1.962    0.23480080117413
                0.4446     0.8136829578829
 s    1 1.00
                 0.122                   1
 p    1 1.00
                 0.727                   1

28 0
 s    8 1.00
                  6665  0.00069158396281299
                  1000  0.0053257961529341
                   228   0.027060721042034
                 64.71    0.10165684614077
                 21.06     0.2745748236174
                 7.495    0.44829431892377
                 2.797    0.28490261071525
                0.5215   0.015194859206082
 s    8 1.00
                  6665  -0.00029326965268655
                  1000  -0.0023180354739745
                   228  -0.011499786038565
                 64.71  -0.046826727009787
                 21.06   -0.12846616875047
                 7.495   -0.30126627246289
                 2.797   -0.25563070233011
                0.5215      1.093793361012
 s    1 1.00
                0.1596                   1
 p    3 1.00
                 9.439   0.056979251590039
                 2.002    0.31320721150073
                0.5456    0.76037674173753
 p    1 1.00
                0.1517                   1
 d    1 1.00
                  0.55                   1

29 0
 s    3 1.00
                 13.01   0.033498726389998
                 1.962    0.23480080117413
                0.4446     0.8136829578829
 s    1 1.00
                 0.122                   1
 p    1 1.00
                 0.727                   1

30 0
 s    3 1.00
                 13.01   0.033498726389998
                 1.962    0.23480080117413
                0.4446     0.8136829578829
 s    1 1.00
                 0.122                   1
 p    1 1.00
                 0.727                   1

31 0
 s    8 1.00
                  6665  0.00069158396281299
                  1000  0.0053257961529341
                   228   0.027060721042034
                 64.71    0.10165684614077
                 21.06     0.2745748236174
                 7.495    0.44829431892377
                 2.797    0.28490261071525
                0.5215   0.015194859206082
 s    8 1.00
                  6665  -0.00029326965268655
                  1000  -0.0023180354739745
                   228  -0.011499786038565
                 64.71  -0.046826727009787
                 21.06   -0.12846616875047
                 7.495   -0.30126627246289
                 2.797   -0.25563070233011
                0.5215      1.093793361012
 s    1 1.00
                0.1596                   1
 p    3 1.00
                 9.439   0.056979251590039
                 2.002    0.31320721150073
                0.5456    0.76037674173753
 p    1 1.00
                0.1517                   1
 d    1 1.00
                  0.55                   1

32 0
 s    3 1.00
                 13.01   0.033498726389998
                 1.962    0.23480080117413
                0.4446     0.8136829578829
 s    1 1.00
                 0.122                   1
 p    1 1.00
                 0.727                   1

33 0
 s    3 1.00
                 13.01   0.033498726389998
                 1.962    0.23480080117413
                0.4446     0.8136829578829
 s    1 1.00
                 0.122                   1
 p    1 1.00
                 0.727                   1

34 0
 s    3 1.00
                 13.01   0.033498726389998
                 1.962    0.23480080117413
                0.4446     0.8136829578829
 s    1 1.00
                 0.122                   1
 p    1 1.00
                 0.727                   1

35 0
 s    3 1.00
                 13.01   0.033498726389998
                 1.962    0.23480080117413
                0.4446     0.8136829578829
 s    1 1.00
                 0.122                   1
 p    1 1.00
                 0.727                   1

36 0
 s    3 1.00
                 13.01   0.033498726389998
                 1.962    0.23480080117413
                0.4446     0.8136829578829
 s    1 1.00
                 0.122                   1
 p    1 1.00
                 0.727                   1

37 0
 s    3 1.00
                 13.01   0.033498726389998
                 1.962    0.23480080117413
                0.4446     0.8136829578829
 s    1 1.00
                 0.122                   1
 p    1 1.00
                 0.727                   1

[5d]
[7f]
[9g]

[MO]
 Sym= A
 Ene=               0
 Spin= Alpha
 Occup=    1.00000
   1    1.5976978240952e-05
   2    1.1590031938695e-05
   3    -4.644873882078e-05
   4    4.1414782772107e-08
   5    -1.7482435839577e-06
   6    4.6854335185316e-07
   7    -3.0511393767506e-07
   8    1.1102934844414e-05
   9    3.5557771412787e-05
  10    -6.7170372262767e-06
  11    -1.1826597181539e-08
  12    5.1577886268557e-07
  13    -5.1476546338064e-07
  14    -2.8345371512714e-08
  15    5.3255066920349e-06
  16    7.0214003019635e-05
  17    3.0906494255971e-08
  18    -6.9515824210263e-07
  19    2.1475783131835e-05
  20     2.53680895831e-06
  21    -2.9474115077029e-05
  22    -1.0852685576846e-07
  23    3.7411632911373e-06
  24    -9.7587969508465e-07
  25      -1.0013544795725
  26    -0.0019402993643842
  27    0.0067566736952049
  28    1.7071944086024e-06
  29    -7.1237748639553e-06
  30    0.0016786393426783
  31    -1.6131695532129e-06
  32    2.8726450042293e-06
  33    -0.0017955725392138
  34    -0.00013109952988444
  35    3.7508740953288e-06
  36    -1.7131428036442e-06
  37    -6.7314148282311e-05
  38    0.00017557160956819
  39    -0.00030094333926683
  40    -0.00042801117662165
  41    -0.0014744156786274
  42    -3.5887928638276e-05
  43    2.3800859968533e-05
  44    8.5059782159119e-05
  45    -3.9800045557781e-05
  46    3.2167455094146e-05
  47    -0.0035168732531864
  48    0.00050871205385324
  49    6.9896607302065e-06
  50    -1.8070698405632e-06
  51    -2.173360198031e-05
  52    7.6083977971993e-05
  53    0.00064279786667782
  54    0.00053943724587141
  55    -0.0011804214871916
  56    0.00017649374690325
  57    -0.00025671335904734
  58    0.00027050242569316
  59    0.00055709617533689
  60    -0.00062903607061447
  61    0.0010011419102671
  62    0.00011961566723693
  63    -0.00012068281905879
  64    0.00012541397099642
  65    -6.2419391009785e-05
  66    0.00013207748437969
  67    0.00058186141182648
  68    0.00042715393782196
  69    -0.0002039491326247
  70    -0.00019863836836973
  71    0.00018748516559485
  72    0.00031793027455963
  73    -0.0011369692434892
  74    0.00088199610367056
  75    0.00079435146980692
  76    0.00014342255503141
  77    8.9233801252944e-05
  78    -8.6508059569858e-05
  79    -4.7041176563557e-05
  80    0.00014807109359798
  81    0.00063545122399179
  82    -3.216864127103e-05
  83    -9.6387193678453e-05
  84    6.6572235088676e-05
  85    -8.3242277889438e-05
  86    -3.6656397045218e-05
  87    2.6903138908665e-05
  88    0.00062025154260291
  89    -0.00013935514266147
  90    0.00028480566733149
  91    5.5922932999167e-05
  92    -0.0003550121619811
  93    -0.00047145145792314
  94    7.8667439341908e-05
  95    -4.3147611256765e-06
  96    9.0210366339704e-06
  97    -2.8014555296048e-05
  98    4.9579538443934e-06
  99    6.0599236306391e-05
 100    0.00019518946771493
 101    0.0001777925293435
 102    7.1710483464841e-06
 103    1.7503489928143e-05
 104    -5.5379557531606e-05
 105    -3.4328651254862e-05
 106    0.00014072456886175
 107    6.0718801764936e-05
 108    -5.075383738963e-06
 109    -6.9229393020176e-05
 110    5.1448473933015e-05
 111    6.6679711744733e-05
 112    3.446289091251e-05
 113    -2.5886898059932e-05
 114    -5.7290462233359e-05
 115    0.00011113118296139
 116    0.00025839428873627
 117    -0.00077680665145841
 118    0.00041841699136552
 119    -0.00021190100038429
 120    -0.0001960121305482
 121    -0.00012545545719445
 122    -0.00013559443262292
 123    6.2168473801839e-05
 124    1.4003890361271e-06
 125    -5.5082530084639e-05
 126    -1.0183923558719e-06
 127    5.0658804109908e-05
 128    -5.9003781909256e-05
 129    0.00022175626273377
 130    0.00038068199200516
 131    -1.8194477805808e-05
 132    -1.4717589864908e-05
 133    -4.0977353718062e-05
 134    0.00017274312231218
 135    0.00023742198299812
 136    2.1404696307417e-05
 137    2.4258297553843e-05
 138    4.0956446487831e-05
 139    3.6970871883365e-05
 140    -7.891841042316e-05
 141    -0.00037329465136172
 142    0.00015085295522556
 143    -5.545729136969e-05
 144    -0.00011998900523602
 145    0.0003018341137146
 146    -8.3542060549431e-05
 147    -0.00012884748167644
 148    1.9696160156152e-06
 149    5.3162155473949e-06
 150    3.4327490462795e-07
 151    -1.8921859424319e-05
 152    7.1032812209566e-06
 153    6.0129680576803e-05
 154    6.5397835154737e-05
 155    3.2226740818096e-05
 156    -3.5717484684358e-05
 157    -2.5177047889852e-05
 158    4.0687174847621e-05
 159    7.3964315988435e-05
 160    6.916203039869e-05
 161    5.7174442566694e-06
 162    -1.2019273851451e-05
 163    -4.0979597436993e-05
 164    -0.0001261206556624
 165    0.00014240783190684
 166    -0.00012445506044563
 167    8.132628963835e-05
 168    -4.3275565182647e-06
 169    -0.00033180656588078
 170    0.00027185753684129
 171    0.00013597636983075
 172    -7.1325062626185e-06
 173    -2.4198872265723e-05
 174    2.1722039825088e-05
 175    2.5356141117041e-06
 176    1.2556659034652e-05
 177    1.6820190180929e-06
 178    -5.6676939489544e-05
 179    7.0003630990118e-06
 180    -5.6769494951694e-06
 181    5.3154124115603e-06
 182    -2.2153516623781e-05
 183    -2.360677012181e-05
 184    6.2072736232619e-05
 185    -2.2929270789933e-05
 186    -4.09672520396e-05
 187    2.4856664377095e-05
 188    -0.00016520952569134
 189    9.1304368883087e-05
 190    0.00011460885552228
 191    -2.5301344457157e-06
 192    1.0778965355374e-06
 193    2.6554725242266e-06
 194    -1.8335728161587e-06
 195    7.4686145315417e-06
 196    8.5421398394774e-06
 197    3.7778315170651e-05
 198    -2.9460533993449e-06
 199    -6.7677051682298e-06
 200    -1.3861310481203e-06
 201    -7.143271877468e-05
 202    -3.6158073175958e-05
 203    5.3384581149938e-06
 204    -1.2471750731711e-05
 205    -1.8839992555677e-05
 206    -7.0172167753835e-05
 207    -8.2301443043269e-05
 208    1.5775937022215e-05
 209    4.7372406211172e-06
 210    -1.8824139168608e-05
 211    1.2126212376826e-06
 212    5.8199320837096e-05
 213    -0.00021485236835023
 214    7.0299139276987e-05
 215    -2.758768291752e-05
 216    -3.0921735618342e-05
 217    -0.00013301489077247
 218    2.4049149611581e-05
 219    6.2446980319364e-05
 220    3.800091041298e-06
 221    1.3103383660329e-05
 222    -3.7083888163489e-06
 223    -9.6943630339069e-06
 224    4.9628053395568e-06
 225    -4.0768367135597e-05
 226    -5.343881016599e-05
 227    1.2536012524475e-05
 228    1.9204192374996e-06
 229    2.8440235848587e-06
 230    -1.8367834272987e-05
 231    -5.8360111098671e-05
 232    2.2836970881869e-06
 233    -7.0980328539547e-06
 234    -1.2475307409024e-05
 235    -6.4654590499846e-07
 236    -1.5253976968499e-05
 237    7.7111270946742e-05
 238    1.5827564488003e-05
 239    -2.7091254268979e-06
 240    -8.2787595728681e-06
 241    -2.7423384934194e-05
 242    7.0438856670196e-05
 243    -2.3787716169917e-05
 244    -1.2011288634334e-06
 245    -4.0095750393528e-06
 246    3.4203030320061e-07
 247    8.1034940114387e-07
 248    3.486594747353e-07
 249    1.6349117350444e-05
 250    -1.6972536704312e-05
 251    6.2988727853308e-06
 252    4.1884183630881e-07
 253    -1.4207727923187e-06
 254    8.6868098502465e-06
 255    -5.8892284317392e-05
 256    1.8811543509052e-06
 257    -5.4695683316178e-06
 258    -4.8145867957879e-07
 259    1.0113836651996e-05
 260    5.4777787359331e-06
 261    -9.3212294849323e-05
 262    -2.6336665235695e-05
 263    1.7361511237597e-05