[Molden Format]
made by pyscf v[2.0.1]
[Atoms] (AU)
O   1   8     0.00000000000000     0.00000000000000     8.67407923598948
H   2   1     0.00000000000000     0.00000000000000     6.85067741408852
H   3   1    -0.05031916615174     1.78353065140343     9.04995093245615
O   4   8     0.00000000000000     0.00000000000000     2.31533471513237
C   5   6     0.00000000000000     0.00000000000000     0.00000000000000
C   6   6     2.01118073026938    -1.40227222164369    -1.50774939176400
C   7   6    -2.01249334291722     1.41331050329955    -1.50315905028694
H   8   1     3.32037363730244    -2.26721897153159    -0.13599698591495
C   9   6     3.45899267434009     0.28739631745591    -3.37437943254505
H   10   1     1.07662969841332    -2.94725144642667    -2.56541439481080
H   11   1    -2.67503415753480     0.18421555839588    -3.06194479365997
H   12   1    -1.07974048864772     3.03851734677796    -2.43674295017013
C   13   6    -4.21607110578555     2.32938802552922     0.11994162256091
H   14   1     4.24440173074564     1.93368664142019    -2.34976285512790
H   15   1     2.15020713235517     1.04714335134846    -4.81494497423699
C   16   6     5.60746363007797    -1.12419643481196    -4.70268606082550
H   17   1    -3.46838323670267     3.50951302338067     1.66946842715333
H   18   1    -5.11873485366228     0.68575958301209     1.04047743976495
C   19   6    -6.18314754751344     3.80909592987882    -1.39656589068747
H   20   1     6.93011263717176    -1.87550812453645    -3.26656317360070
C   21   6     7.06356622236532     0.52877932406334    -6.57829775293605
H   22   1     4.82318879258361    -2.78573437948532    -5.70504560381835
H   23   1    -6.91582688743803     2.61304780074712    -2.95074552451969
H   24   1    -5.26532430573853     5.45420349051338    -2.31005832200284
C   25   6    -8.39941882261433     4.73263980500213     0.21800571437956
H   26   1     7.83338371486801     2.19084139882824    -5.57093109900697
H   27   1     5.73544244039420     1.27376866537418    -8.01071492370229
C   28   6     9.21124858443101    -0.89699110072176    -7.88926949186242
H   29   1    -7.66272760055236     5.92277078003992     1.77035591474408
H   30   1    -9.31497248082589     3.08753015622020     1.12614408368786
C   31   6   -10.35481709231879     6.21833079391143    -1.30905206253246
H   32   1    10.58815905329501    -1.61074586756696    -6.49512691622620
H   33   1    10.23506248045667     0.32468009384095    -9.23072870921204
H   34   1     8.47665842847139    -2.53598436989925    -8.94921964622535
H   35   1    -9.48948872868064     7.90013588951020    -2.18823918416067
H   36   1   -11.93332513000955     6.86460487874102    -0.11255798845995
H   37   1   -11.15126291841033     5.04495968327630    -2.83849898862534
[GTO]
1 0
 s    8 1.00
                 11720  0.00070964594651845
                  1759  0.0054672722921914
                 400.8   0.027823118610189
                 113.7    0.10474773971146
                 37.03    0.28292084635691
                 13.27    0.44849523869833
                 5.025    0.27081688521277
                 1.013    0.01545029160744
 s    8 1.00
                 11720  -0.00031444341168873
                  1759  -0.0024821376810179
                 400.8  -0.012316355381583
                 113.7  -0.050538917343672
                 37.03   -0.13938490331632
                 13.27   -0.32507749481778
                 5.025   -0.22984830758785
                 1.013     1.0953793467883
 s    1 1.00
                0.3023                   1
 p    3 1.00
                  17.7   0.062679166281506
                 3.854    0.33353656587936
                 1.046    0.74123964163973
 p    1 1.00
                0.2753                   1
 d    1 1.00
                 1.185                   1

2 0
 s    3 1.00
                 13.01   0.033498726389998
                 1.962    0.23480080117413
                0.4446     0.8136829578829
 s    1 1.00
                 0.122                   1
 p    1 1.00
                 0.727                   1

3 0
 s    3 1.00
                 13.01   0.033498726389998
                 1.962    0.23480080117413
                0.4446     0.8136829578829
 s    1 1.00
                 0.122                   1
 p    1 1.00
                 0.727                   1

4 0
 s    8 1.00
                 11720  0.00070964594651845
                  1759  0.0054672722921914
                 400.8   0.027823118610189
                 113.7    0.10474773971146
                 37.03    0.28292084635691
                 13.27    0.44849523869833
                 5.025    0.27081688521277
                 1.013    0.01545029160744
 s    8 1.00
                 11720  -0.00031444341168873
                  1759  -0.0024821376810179
                 400.8  -0.012316355381583
                 113.7  -0.050538917343672
                 37.03   -0.13938490331632
                 13.27   -0.32507749481778
                 5.025   -0.22984830758785
                 1.013     1.0953793467883
 s    1 1.00
                0.3023                   1
 p    3 1.00
                  17.7   0.062679166281506
                 3.854    0.33353656587936
                 1.046    0.74123964163973
 p    1 1.00
                0.2753                   1
 d    1 1.00
                 1.185                   1

5 0
 s    8 1.00
                  6665  0.00069158396281299
                  1000  0.0053257961529341
                   228   0.027060721042034
                 64.71    0.10165684614077
                 21.06     0.2745748236174
                 7.495    0.44829431892377
                 2.797    0.28490261071525
                0.5215   0.015194859206082
 s    8 1.00
                  6665  -0.00029326965268655
                  1000  -0.0023180354739745
                   228  -0.011499786038565
                 64.71  -0.046826727009787
                 21.06   -0.12846616875047
                 7.495   -0.30126627246289
                 2.797   -0.25563070233011
                0.5215      1.093793361012
 s    1 1.00
                0.1596                   1
 p    3 1.00
                 9.439   0.056979251590039
                 2.002    0.31320721150073
                0.5456    0.76037674173753
 p    1 1.00
                0.1517                   1
 d    1 1.00
                  0.55                   1

6 0
 s    8 1.00
                  6665  0.00069158396281299
                  1000  0.0053257961529341
                   228   0.027060721042034
                 64.71    0.10165684614077
                 21.06     0.2745748236174
                 7.495    0.44829431892377
                 2.797    0.28490261071525
                0.5215   0.015194859206082
 s    8 1.00
                  6665  -0.00029326965268655
                  1000  -0.0023180354739745
                   228  -0.011499786038565
                 64.71  -0.046826727009787
                 21.06   -0.12846616875047
                 7.495   -0.30126627246289
                 2.797   -0.25563070233011
                0.5215      1.093793361012
 s    1 1.00
                0.1596                   1
 p    3 1.00
                 9.439   0.056979251590039
                 2.002    0.31320721150073
                0.5456    0.76037674173753
 p    1 1.00
                0.1517                   1
 d    1 1.00
                  0.55                   1

7 0
 s    8 1.00
                  6665  0.00069158396281299
                  1000  0.0053257961529341
                   228   0.027060721042034
                 64.71    0.10165684614077
                 21.06     0.2745748236174
                 7.495    0.44829431892377
                 2.797    0.28490261071525
                0.5215   0.015194859206082
 s    8 1.00
                  6665  -0.00029326965268655
                  1000  -0.0023180354739745
                   228  -0.011499786038565
                 64.71  -0.046826727009787
                 21.06   -0.12846616875047
                 7.495   -0.30126627246289
                 2.797   -0.25563070233011
                0.5215      1.093793361012
 s    1 1.00
                0.1596                   1
 p    3 1.00
                 9.439   0.056979251590039
                 2.002    0.31320721150073
                0.5456    0.76037674173753
 p    1 1.00
                0.1517                   1
 d    1 1.00
                  0.55                   1

8 0
 s    3 1.00
                 13.01   0.033498726389998
                 1.962    0.23480080117413
                0.4446     0.8136829578829
 s    1 1.00
                 0.122                   1
 p    1 1.00
                 0.727                   1

9 0
 s    8 1.00
                  6665  0.00069158396281299
                  1000  0.0053257961529341
                   228   0.027060721042034
                 64.71    0.10165684614077
                 21.06     0.2745748236174
                 7.495    0.44829431892377
                 2.797    0.28490261071525
                0.5215   0.015194859206082
 s    8 1.00
                  6665  -0.00029326965268655
                  1000  -0.0023180354739745
                   228  -0.011499786038565
                 64.71  -0.046826727009787
                 21.06   -0.12846616875047
                 7.495   -0.30126627246289
                 2.797   -0.25563070233011
                0.5215      1.093793361012
 s    1 1.00
                0.1596                   1
 p    3 1.00
                 9.439   0.056979251590039
                 2.002    0.31320721150073
                0.5456    0.76037674173753
 p    1 1.00
                0.1517                   1
 d    1 1.00
                  0.55                   1

10 0
 s    3 1.00
                 13.01   0.033498726389998
                 1.962    0.23480080117413
                0.4446     0.8136829578829
 s    1 1.00
                 0.122                   1
 p    1 1.00
                 0.727                   1

11 0
 s    3 1.00
                 13.01   0.033498726389998
                 1.962    0.23480080117413
                0.4446     0.8136829578829
 s    1 1.00
                 0.122                   1
 p    1 1.00
                 0.727                   1

12 0
 s    3 1.00
                 13.01   0.033498726389998
                 1.962    0.23480080117413
                0.4446     0.8136829578829
 s    1 1.00
                 0.122                   1
 p    1 1.00
                 0.727                   1

13 0
 s    8 1.00
                  6665  0.00069158396281299
                  1000  0.0053257961529341
                   228   0.027060721042034
                 64.71    0.10165684614077
                 21.06     0.2745748236174
                 7.495    0.44829431892377
                 2.797    0.28490261071525
                0.5215   0.015194859206082
 s    8 1.00
                  6665  -0.00029326965268655
                  1000  -0.0023180354739745
                   228  -0.011499786038565
                 64.71  -0.046826727009787
                 21.06   -0.12846616875047
                 7.495   -0.30126627246289
                 2.797   -0.25563070233011
                0.5215      1.093793361012
 s    1 1.00
                0.1596                   1
 p    3 1.00
                 9.439   0.056979251590039
                 2.002    0.31320721150073
                0.5456    0.76037674173753
 p    1 1.00
                0.1517                   1
 d    1 1.00
                  0.55                   1

14 0
 s    3 1.00
                 13.01   0.033498726389998
                 1.962    0.23480080117413
                0.4446     0.8136829578829
 s    1 1.00
                 0.122                   1
 p    1 1.00
                 0.727                   1

15 0
 s    3 1.00
                 13.01   0.033498726389998
                 1.962    0.23480080117413
                0.4446     0.8136829578829
 s    1 1.00
                 0.122                   1
 p    1 1.00
                 0.727                   1

16 0
 s    8 1.00
                  6665  0.00069158396281299
                  1000  0.0053257961529341
                   228   0.027060721042034
                 64.71    0.10165684614077
                 21.06     0.2745748236174
                 7.495    0.44829431892377
                 2.797    0.28490261071525
                0.5215   0.015194859206082
 s    8 1.00
                  6665  -0.00029326965268655
                  1000  -0.0023180354739745
                   228  -0.011499786038565
                 64.71  -0.046826727009787
                 21.06   -0.12846616875047
                 7.495   -0.30126627246289
                 2.797   -0.25563070233011
                0.5215      1.093793361012
 s    1 1.00
                0.1596                   1
 p    3 1.00
                 9.439   0.056979251590039
                 2.002    0.31320721150073
                0.5456    0.76037674173753
 p    1 1.00
                0.1517                   1
 d    1 1.00
                  0.55                   1

17 0
 s    3 1.00
                 13.01   0.033498726389998
                 1.962    0.23480080117413
                0.4446     0.8136829578829
 s    1 1.00
                 0.122                   1
 p    1 1.00
                 0.727                   1

18 0
 s    3 1.00
                 13.01   0.033498726389998
                 1.962    0.23480080117413
                0.4446     0.8136829578829
 s    1 1.00
                 0.122                   1
 p    1 1.00
                 0.727                   1

19 0
 s    8 1.00
                  6665  0.00069158396281299
                  1000  0.0053257961529341
                   228   0.027060721042034
                 64.71    0.10165684614077
                 21.06     0.2745748236174
                 7.495    0.44829431892377
                 2.797    0.28490261071525
                0.5215   0.015194859206082
 s    8 1.00
                  6665  -0.00029326965268655
                  1000  -0.0023180354739745
                   228  -0.011499786038565
                 64.71  -0.046826727009787
                 21.06   -0.12846616875047
                 7.495   -0.30126627246289
                 2.797   -0.25563070233011
                0.5215      1.093793361012
 s    1 1.00
                0.1596                   1
 p    3 1.00
                 9.439   0.056979251590039
                 2.002    0.31320721150073
                0.5456    0.76037674173753
 p    1 1.00
                0.1517                   1
 d    1 1.00
                  0.55                   1

20 0
 s    3 1.00
                 13.01   0.033498726389998
                 1.962    0.23480080117413
                0.4446     0.8136829578829
 s    1 1.00
                 0.122                   1
 p    1 1.00
                 0.727                   1

21 0
 s    8 1.00
                  6665  0.00069158396281299
                  1000  0.0053257961529341
                   228   0.027060721042034
                 64.71    0.10165684614077
                 21.06     0.2745748236174
                 7.495    0.44829431892377
                 2.797    0.28490261071525
                0.5215   0.015194859206082
 s    8 1.00
                  6665  -0.00029326965268655
                  1000  -0.0023180354739745
                   228  -0.011499786038565
                 64.71  -0.046826727009787
                 21.06   -0.12846616875047
                 7.495   -0.30126627246289
                 2.797   -0.25563070233011
                0.5215      1.093793361012
 s    1 1.00
                0.1596                   1
 p    3 1.00
                 9.439   0.056979251590039
                 2.002    0.31320721150073
                0.5456    0.76037674173753
 p    1 1.00
                0.1517                   1
 d    1 1.00
                  0.55                   1

22 0
 s    3 1.00
                 13.01   0.033498726389998
                 1.962    0.23480080117413
                0.4446     0.8136829578829
 s    1 1.00
                 0.122                   1
 p    1 1.00
                 0.727                   1

23 0
 s    3 1.00
                 13.01   0.033498726389998
                 1.962    0.23480080117413
                0.4446     0.8136829578829
 s    1 1.00
                 0.122                   1
 p    1 1.00
                 0.727                   1

24 0
 s    3 1.00
                 13.01   0.033498726389998
                 1.962    0.23480080117413
                0.4446     0.8136829578829
 s    1 1.00
                 0.122                   1
 p    1 1.00
                 0.727                   1

25 0
 s    8 1.00
                  6665  0.00069158396281299
                  1000  0.0053257961529341
                   228   0.027060721042034
                 64.71    0.10165684614077
                 21.06     0.2745748236174
                 7.495    0.44829431892377
                 2.797    0.28490261071525
                0.5215   0.015194859206082
 s    8 1.00
                  6665  -0.00029326965268655
                  1000  -0.0023180354739745
                   228  -0.011499786038565
                 64.71  -0.046826727009787
                 21.06   -0.12846616875047
                 7.495   -0.30126627246289
                 2.797   -0.25563070233011
                0.5215      1.093793361012
 s    1 1.00
                0.1596                   1
 p    3 1.00
                 9.439   0.056979251590039
                 2.002    0.31320721150073
                0.5456    0.76037674173753
 p    1 1.00
                0.1517                   1
 d    1 1.00
                  0.55                   1

26 0
 s    3 1.00
                 13.01   0.033498726389998
                 1.962    0.23480080117413
                0.4446     0.8136829578829
 s    1 1.00
                 0.122                   1
 p    1 1.00
                 0.727                   1

27 0
 s    3 1.00
                 13.01   0.033498726389998
                 1.962    0.23480080117413
                0.4446     0.8136829578829
 s    1 1.00
                 0.122                   1
 p    1 1.00
                 0.727                   1

28 0
 s    8 1.00
                  6665  0.00069158396281299
                  1000  0.0053257961529341
                   228   0.027060721042034
                 64.71    0.10165684614077
                 21.06     0.2745748236174
                 7.495    0.44829431892377
                 2.797    0.28490261071525
                0.5215   0.015194859206082
 s    8 1.00
                  6665  -0.00029326965268655
                  1000  -0.0023180354739745
                   228  -0.011499786038565
                 64.71  -0.046826727009787
                 21.06   -0.12846616875047
                 7.495   -0.30126627246289
                 2.797   -0.25563070233011
                0.5215      1.093793361012
 s    1 1.00
                0.1596                   1
 p    3 1.00
                 9.439   0.056979251590039
                 2.002    0.31320721150073
                0.5456    0.76037674173753
 p    1 1.00
                0.1517                   1
 d    1 1.00
                  0.55                   1

29 0
 s    3 1.00
                 13.01   0.033498726389998
                 1.962    0.23480080117413
                0.4446     0.8136829578829
 s    1 1.00
                 0.122                   1
 p    1 1.00
                 0.727                   1

30 0
 s    3 1.00
                 13.01   0.033498726389998
                 1.962    0.23480080117413
                0.4446     0.8136829578829
 s    1 1.00
                 0.122                   1
 p    1 1.00
                 0.727                   1

31 0
 s    8 1.00
                  6665  0.00069158396281299
                  1000  0.0053257961529341
                   228   0.027060721042034
                 64.71    0.10165684614077
                 21.06     0.2745748236174
                 7.495    0.44829431892377
                 2.797    0.28490261071525
                0.5215   0.015194859206082
 s    8 1.00
                  6665  -0.00029326965268655
                  1000  -0.0023180354739745
                   228  -0.011499786038565
                 64.71  -0.046826727009787
                 21.06   -0.12846616875047
                 7.495   -0.30126627246289
                 2.797   -0.25563070233011
                0.5215      1.093793361012
 s    1 1.00
                0.1596                   1
 p    3 1.00
                 9.439   0.056979251590039
                 2.002    0.31320721150073
                0.5456    0.76037674173753
 p    1 1.00
                0.1517                   1
 d    1 1.00
                  0.55                   1

32 0
 s    3 1.00
                 13.01   0.033498726389998
                 1.962    0.23480080117413
                0.4446     0.8136829578829
 s    1 1.00
                 0.122                   1
 p    1 1.00
                 0.727                   1

33 0
 s    3 1.00
                 13.01   0.033498726389998
                 1.962    0.23480080117413
                0.4446     0.8136829578829
 s    1 1.00
                 0.122                   1
 p    1 1.00
                 0.727                   1

34 0
 s    3 1.00
                 13.01   0.033498726389998
                 1.962    0.23480080117413
                0.4446     0.8136829578829
 s    1 1.00
                 0.122                   1
 p    1 1.00
                 0.727                   1

35 0
 s    3 1.00
                 13.01   0.033498726389998
                 1.962    0.23480080117413
                0.4446     0.8136829578829
 s    1 1.00
                 0.122                   1
 p    1 1.00
                 0.727                   1

36 0
 s    3 1.00
                 13.01   0.033498726389998
                 1.962    0.23480080117413
                0.4446     0.8136829578829
 s    1 1.00
                 0.122                   1
 p    1 1.00
                 0.727                   1

37 0
 s    3 1.00
                 13.01   0.033498726389998
                 1.962    0.23480080117413
                0.4446     0.8136829578829
 s    1 1.00
                 0.122                   1
 p    1 1.00
                 0.727                   1

[5d]
[7f]
[9g]

[MO]
 Sym= A
 Ene=               0
 Spin= Alpha
 Occup=    1.00000
   1    5.0176463534621e-05
   2    5.2621742046021e-05
   3    -0.00013472546380474
   4    -9.9564382674553e-08
   5    -5.9442191045778e-06
   6    -1.5175643603716e-05
   7    -4.2835744407488e-07
   8    2.6355419883551e-05
   9    7.5060456577394e-05
  10    -4.356114226915e-06
  11    9.8719422108021e-08
  12    -3.5285529662462e-07
  13    -5.8445248375411e-07
  14    -9.8512384803496e-09
  15    2.1702099935428e-05
  16    0.00022000017878386
  17    4.6758715357803e-07
  18    -2.3085608135733e-06
  19    -1.4681656317986e-05
  20    5.8126949520261e-06
  21    -6.8197624433329e-05
  22    -1.5954274249056e-07
  23    2.5948000608423e-06
  24    3.2572812753943e-07
  25       -1.001374064957
  26    -0.0019836659436859
  27     0.006927909004018
  28    2.3058324453921e-06
  29    -1.0144171221121e-05
  30    0.0016585171802782
  31    -1.5380024746143e-06
  32    4.5366083454153e-06
  33    -0.001927050858229
  34    -0.00011213440281038
  35    3.5496086978149e-06
  36    -1.8881526206625e-06
  37    -6.6200461556414e-05
  38    0.00017252780082675
  39    -0.00031757424823236
  40    -0.00046414242615578
  41    -0.0016074246618861
  42    -3.7063462827201e-05
  43    2.3769741525619e-05
  44    5.009629371271e-05
  45    -4.0260388810223e-05
  46    3.4672782166968e-05
  47    -0.0036482411631739
  48     0.000476404255489
  49    6.6803572919112e-06
  50    -1.9269861459161e-06
  51    -2.3192147977397e-05
  52    7.9653199313128e-05
  53    0.00064348166225795
  54    0.00054109887262502
  55    -0.0011968953491672
  56    0.00017641492866457
  57    -0.00025780480929562
  58    0.00026718921783155
  59    0.00056083898770299
  60    -0.00063517459013975
  61    0.0010512531142653
  62    0.00011795814663503
  63    -0.00012016973502846
  64    0.00012573573540483
  65    -6.153752973073e-05
  66    0.00012892671377522
  67    0.00058187018977841
  68    0.00042703407157389
  69    -0.000209402575985
  70    -0.00019724653287653
  71    0.00018574001080294
  72    0.00031324531398111
  73    -0.0011542277383232
  74    0.00089317898159457
  75    0.00081947286269839
  76    0.0001416903226034
  77    9.0013946373311e-05
  78    -8.6522714688308e-05
  79    -4.6387167547209e-05
  80    0.00014588679320998
  81    0.00063042539124443
  82    -4.3604561743681e-05
  83    -9.7608010202053e-05
  84    6.7475209457222e-05
  85    -8.156308292592e-05
  86    -3.6517888321062e-05
  87    2.816148346149e-05
  88    0.00064025081424259
  89    -0.00014206363762504
  90    0.00028529314990134
  91    5.7748278192451e-05
  92    -0.00036284362842025
  93    -0.00049679383413088
  94    7.2117474276923e-05
  95    -5.2480127739091e-06
  96    8.5952044391891e-06
  97    -2.9039383827739e-05
  98    3.7284637492904e-06
  99    6.3545278166214e-05
 100    0.00020169436737113
 101    0.00018572921774706
 102    1.0111609309921e-05
 103     1.86290109686e-05
 104    -5.8099686585001e-05
 105    -2.7771880099739e-05
 106    0.0001494384015782
 107    6.0271774603534e-05
 108    -1.7324221806084e-06
 109    -7.071574658577e-05
 110    5.3640045002841e-05
 111    7.4973776179191e-05
 112    3.2919771325485e-05
 113    -2.7876798007921e-05
 114    -5.906220125441e-05
 115    0.00010751742428704
 116    0.00025324330131221
 117    -0.00079169087218349
 118    0.0004174783104411
 119    -0.00021050581480856
 120    -0.00019307138311034
 121    -0.00011124709741008
 122    -0.00014314865747428
 123    8.576324836281e-05
 124    1.1642345641525e-06
 125    -5.3660923274087e-05
 126    2.8450061752437e-07
 127    5.0699825107553e-05
 128    -5.9865320284999e-05
 129    0.00022329927667819
 130    0.00039576005730511
 131    -1.8897688300706e-05
 132    -1.4914241129181e-05
 133    -4.1468705606555e-05
 134    0.00017442550862831
 135    0.0002362753105437
 136    2.1770752335707e-05
 137    2.5410962305532e-05
 138    4.1986562093551e-05
 139    3.8077593993686e-05
 140    -7.7625614793249e-05
 141    -0.00039054994107754
 142    0.00015201581002325
 143    -5.5257847393708e-05
 144    -0.00012065582449552
 145    0.00030450205829282
 146    -9.0803936716443e-05
 147    -0.00012446865573025
 148    2.1763461936282e-06
 149    5.1415529525904e-06
 150    1.2790764909156e-06
 151    -1.9655497373013e-05
 152    6.9879897282283e-06
 153    6.1538482098485e-05
 154    4.8806607370603e-05
 155    3.3147732750257e-05
 156    -3.3681921953808e-05
 157    -2.3724556128202e-05
 158    4.042063510323e-05
 159    7.0995690021922e-05
 160    6.8689702325389e-05
 161    5.8909706638699e-06
 162    -1.2620247562687e-05
 163    -4.2164125260006e-05
 164    -0.00012960116296616
 165    0.00016719052107956
 166    -0.00012566299001626
 167    8.208610664807e-05
 168    -5.9124088852012e-06
 169    -0.00032736752024038
 170     0.000267232190833
 171    0.00014408610023004
 172    -7.5205996043839e-06
 173    -2.4183727394417e-05
 174    2.1711507386408e-05
 175    2.6276977065716e-06
 176    1.2279625516158e-05
 177    2.4125327927372e-06
 178    -5.9741609694023e-05
 179    7.4456963990569e-06
 180    -5.3607014396164e-06
 181    5.046170445493e-06
 182    -2.3175765869653e-05
 183    -2.5208647660151e-05
 184    7.4248868860825e-05
 185    -2.3412503114182e-05
 186    -4.1503468171342e-05
 187    2.540569898255e-05
 188    -0.00016997852109166
 189    9.1040797689454e-05
 190    0.00012100986693237
 191    -2.4619335258266e-06
 192    7.6074079427419e-07
 193    2.5319980909209e-06
 194    -1.9044600099698e-06
 195    8.0226844122352e-06
 196    7.9790088263899e-06
 197    3.8668497637627e-05
 198    -2.9459974664121e-06
 199    -6.7385604558828e-06
 200    -1.7530525883907e-06
 201    -7.1026129306156e-05
 202    -3.3423450384625e-05
 203    5.7086999425849e-06
 204    -1.2183049085389e-05
 205    -1.880163873076e-05
 206    -7.0421648121537e-05
 207    -8.2094883216625e-05
 208    1.5524199843073e-05
 209    4.8193850197225e-06
 210    -1.9175860444594e-05
 211    2.0462827906272e-06
 212    5.9183770677842e-05
 213    -0.00022813897290488
 214    6.9643528976765e-05
 215    -2.7393252276074e-05
 216    -3.1001414505642e-05
 217    -0.00013113057216164
 218    2.2342398225536e-05
 219    6.5189309486139e-05
 220    3.9169166697089e-06
 221    1.289333354074e-05
 222    -3.6796953953508e-06
 223    -9.8213935508351e-06
 224    5.0842992243136e-06
 225    -4.2000135736957e-05
 226    -5.5841228228978e-05
 227    1.2867490880339e-05
 228    2.1532838545388e-06
 229    2.8322826757457e-06
 230    -1.894306590424e-05
 231    -5.8462957002992e-05
 232    2.4144878872941e-06
 233    -7.2951874795648e-06
 234    -1.2673409245321e-05
 235    -7.224701392557e-07
 236    -1.5539470613611e-05
 237    7.8140937824217e-05
 238    1.6078530613681e-05
 239    -2.8022897020414e-06
 240    -8.4655280049493e-06
 241    -2.8525812227217e-05
 242    7.1709728010979e-05
 243    -2.4393337405364e-05
 244    -1.2822675757884e-06
 245    -4.1154567645664e-06
 246    3.0390971015465e-07
 247    8.3216599056587e-07
 248    3.5713305011259e-07
 249    1.6101146747081e-05
 250    -1.3493308510034e-05
 251    6.1232913967608e-06
 252    2.5514193461188e-07
 253    -1.7729151634844e-06
 254    9.1069109813023e-06
 255    -5.8640652051785e-05
 256    1.5580845442659e-06
 257    -5.3107351760765e-06
 258    -6.0033244529705e-07
 259    9.5529120027317e-06
 260    4.475675814667e-06
 261    -8.539886057026e-05
 262    -2.6293367337167e-05
 263    1.7357272886288e-05