[Molden Format]
made by pyscf v[2.0.1]
[Atoms] (AU)
O   1   8     0.00000000000000     0.00000000000000     7.54024356125045
H   2   1     0.00000000000000     0.00000000000000     5.71684173934948
H   3   1    -0.05031916615174     1.78353065140343     7.91611525771711
O   4   8     0.00000000000000     0.00000000000000     2.31533471513237
C   5   6     0.00000000000000     0.00000000000000     0.00000000000000
C   6   6     2.01118073026938    -1.40227222164369    -1.50774939176400
C   7   6    -2.01249334291722     1.41331050329955    -1.50315905028694
H   8   1     3.32037363730244    -2.26721897153159    -0.13599698591495
C   9   6     3.45899267434009     0.28739631745591    -3.37437943254505
H   10   1     1.07662969841332    -2.94725144642667    -2.56541439481080
H   11   1    -2.67503415753480     0.18421555839588    -3.06194479365997
H   12   1    -1.07974048864772     3.03851734677796    -2.43674295017013
C   13   6    -4.21607110578555     2.32938802552922     0.11994162256091
H   14   1     4.24440173074564     1.93368664142019    -2.34976285512790
H   15   1     2.15020713235517     1.04714335134846    -4.81494497423699
C   16   6     5.60746363007797    -1.12419643481196    -4.70268606082550
H   17   1    -3.46838323670267     3.50951302338067     1.66946842715333
H   18   1    -5.11873485366228     0.68575958301209     1.04047743976495
C   19   6    -6.18314754751344     3.80909592987882    -1.39656589068747
H   20   1     6.93011263717176    -1.87550812453645    -3.26656317360070
C   21   6     7.06356622236532     0.52877932406334    -6.57829775293605
H   22   1     4.82318879258361    -2.78573437948532    -5.70504560381835
H   23   1    -6.91582688743803     2.61304780074712    -2.95074552451969
H   24   1    -5.26532430573853     5.45420349051338    -2.31005832200284
C   25   6    -8.39941882261433     4.73263980500213     0.21800571437956
H   26   1     7.83338371486801     2.19084139882824    -5.57093109900697
H   27   1     5.73544244039420     1.27376866537418    -8.01071492370229
C   28   6     9.21124858443101    -0.89699110072176    -7.88926949186242
H   29   1    -7.66272760055236     5.92277078003992     1.77035591474408
H   30   1    -9.31497248082589     3.08753015622020     1.12614408368786
C   31   6   -10.35481709231879     6.21833079391143    -1.30905206253246
H   32   1    10.58815905329501    -1.61074586756696    -6.49512691622620
H   33   1    10.23506248045667     0.32468009384095    -9.23072870921204
H   34   1     8.47665842847139    -2.53598436989925    -8.94921964622535
H   35   1    -9.48948872868064     7.90013588951020    -2.18823918416067
H   36   1   -11.93332513000955     6.86460487874102    -0.11255798845995
H   37   1   -11.15126291841033     5.04495968327630    -2.83849898862534
[GTO]
1 0
 s    8 1.00
                 11720  0.00070964594651845
                  1759  0.0054672722921914
                 400.8   0.027823118610189
                 113.7    0.10474773971146
                 37.03    0.28292084635691
                 13.27    0.44849523869833
                 5.025    0.27081688521277
                 1.013    0.01545029160744
 s    8 1.00
                 11720  -0.00031444341168873
                  1759  -0.0024821376810179
                 400.8  -0.012316355381583
                 113.7  -0.050538917343672
                 37.03   -0.13938490331632
                 13.27   -0.32507749481778
                 5.025   -0.22984830758785
                 1.013     1.0953793467883
 s    1 1.00
                0.3023                   1
 p    3 1.00
                  17.7   0.062679166281506
                 3.854    0.33353656587936
                 1.046    0.74123964163973
 p    1 1.00
                0.2753                   1
 d    1 1.00
                 1.185                   1

2 0
 s    3 1.00
                 13.01   0.033498726389998
                 1.962    0.23480080117413
                0.4446     0.8136829578829
 s    1 1.00
                 0.122                   1
 p    1 1.00
                 0.727                   1

3 0
 s    3 1.00
                 13.01   0.033498726389998
                 1.962    0.23480080117413
                0.4446     0.8136829578829
 s    1 1.00
                 0.122                   1
 p    1 1.00
                 0.727                   1

4 0
 s    8 1.00
                 11720  0.00070964594651845
                  1759  0.0054672722921914
                 400.8   0.027823118610189
                 113.7    0.10474773971146
                 37.03    0.28292084635691
                 13.27    0.44849523869833
                 5.025    0.27081688521277
                 1.013    0.01545029160744
 s    8 1.00
                 11720  -0.00031444341168873
                  1759  -0.0024821376810179
                 400.8  -0.012316355381583
                 113.7  -0.050538917343672
                 37.03   -0.13938490331632
                 13.27   -0.32507749481778
                 5.025   -0.22984830758785
                 1.013     1.0953793467883
 s    1 1.00
                0.3023                   1
 p    3 1.00
                  17.7   0.062679166281506
                 3.854    0.33353656587936
                 1.046    0.74123964163973
 p    1 1.00
                0.2753                   1
 d    1 1.00
                 1.185                   1

5 0
 s    8 1.00
                  6665  0.00069158396281299
                  1000  0.0053257961529341
                   228   0.027060721042034
                 64.71    0.10165684614077
                 21.06     0.2745748236174
                 7.495    0.44829431892377
                 2.797    0.28490261071525
                0.5215   0.015194859206082
 s    8 1.00
                  6665  -0.00029326965268655
                  1000  -0.0023180354739745
                   228  -0.011499786038565
                 64.71  -0.046826727009787
                 21.06   -0.12846616875047
                 7.495   -0.30126627246289
                 2.797   -0.25563070233011
                0.5215      1.093793361012
 s    1 1.00
                0.1596                   1
 p    3 1.00
                 9.439   0.056979251590039
                 2.002    0.31320721150073
                0.5456    0.76037674173753
 p    1 1.00
                0.1517                   1
 d    1 1.00
                  0.55                   1

6 0
 s    8 1.00
                  6665  0.00069158396281299
                  1000  0.0053257961529341
                   228   0.027060721042034
                 64.71    0.10165684614077
                 21.06     0.2745748236174
                 7.495    0.44829431892377
                 2.797    0.28490261071525
                0.5215   0.015194859206082
 s    8 1.00
                  6665  -0.00029326965268655
                  1000  -0.0023180354739745
                   228  -0.011499786038565
                 64.71  -0.046826727009787
                 21.06   -0.12846616875047
                 7.495   -0.30126627246289
                 2.797   -0.25563070233011
                0.5215      1.093793361012
 s    1 1.00
                0.1596                   1
 p    3 1.00
                 9.439   0.056979251590039
                 2.002    0.31320721150073
                0.5456    0.76037674173753
 p    1 1.00
                0.1517                   1
 d    1 1.00
                  0.55                   1

7 0
 s    8 1.00
                  6665  0.00069158396281299
                  1000  0.0053257961529341
                   228   0.027060721042034
                 64.71    0.10165684614077
                 21.06     0.2745748236174
                 7.495    0.44829431892377
                 2.797    0.28490261071525
                0.5215   0.015194859206082
 s    8 1.00
                  6665  -0.00029326965268655
                  1000  -0.0023180354739745
                   228  -0.011499786038565
                 64.71  -0.046826727009787
                 21.06   -0.12846616875047
                 7.495   -0.30126627246289
                 2.797   -0.25563070233011
                0.5215      1.093793361012
 s    1 1.00
                0.1596                   1
 p    3 1.00
                 9.439   0.056979251590039
                 2.002    0.31320721150073
                0.5456    0.76037674173753
 p    1 1.00
                0.1517                   1
 d    1 1.00
                  0.55                   1

8 0
 s    3 1.00
                 13.01   0.033498726389998
                 1.962    0.23480080117413
                0.4446     0.8136829578829
 s    1 1.00
                 0.122                   1
 p    1 1.00
                 0.727                   1

9 0
 s    8 1.00
                  6665  0.00069158396281299
                  1000  0.0053257961529341
                   228   0.027060721042034
                 64.71    0.10165684614077
                 21.06     0.2745748236174
                 7.495    0.44829431892377
                 2.797    0.28490261071525
                0.5215   0.015194859206082
 s    8 1.00
                  6665  -0.00029326965268655
                  1000  -0.0023180354739745
                   228  -0.011499786038565
                 64.71  -0.046826727009787
                 21.06   -0.12846616875047
                 7.495   -0.30126627246289
                 2.797   -0.25563070233011
                0.5215      1.093793361012
 s    1 1.00
                0.1596                   1
 p    3 1.00
                 9.439   0.056979251590039
                 2.002    0.31320721150073
                0.5456    0.76037674173753
 p    1 1.00
                0.1517                   1
 d    1 1.00
                  0.55                   1

10 0
 s    3 1.00
                 13.01   0.033498726389998
                 1.962    0.23480080117413
                0.4446     0.8136829578829
 s    1 1.00
                 0.122                   1
 p    1 1.00
                 0.727                   1

11 0
 s    3 1.00
                 13.01   0.033498726389998
                 1.962    0.23480080117413
                0.4446     0.8136829578829
 s    1 1.00
                 0.122                   1
 p    1 1.00
                 0.727                   1

12 0
 s    3 1.00
                 13.01   0.033498726389998
                 1.962    0.23480080117413
                0.4446     0.8136829578829
 s    1 1.00
                 0.122                   1
 p    1 1.00
                 0.727                   1

13 0
 s    8 1.00
                  6665  0.00069158396281299
                  1000  0.0053257961529341
                   228   0.027060721042034
                 64.71    0.10165684614077
                 21.06     0.2745748236174
                 7.495    0.44829431892377
                 2.797    0.28490261071525
                0.5215   0.015194859206082
 s    8 1.00
                  6665  -0.00029326965268655
                  1000  -0.0023180354739745
                   228  -0.011499786038565
                 64.71  -0.046826727009787
                 21.06   -0.12846616875047
                 7.495   -0.30126627246289
                 2.797   -0.25563070233011
                0.5215      1.093793361012
 s    1 1.00
                0.1596                   1
 p    3 1.00
                 9.439   0.056979251590039
                 2.002    0.31320721150073
                0.5456    0.76037674173753
 p    1 1.00
                0.1517                   1
 d    1 1.00
                  0.55                   1

14 0
 s    3 1.00
                 13.01   0.033498726389998
                 1.962    0.23480080117413
                0.4446     0.8136829578829
 s    1 1.00
                 0.122                   1
 p    1 1.00
                 0.727                   1

15 0
 s    3 1.00
                 13.01   0.033498726389998
                 1.962    0.23480080117413
                0.4446     0.8136829578829
 s    1 1.00
                 0.122                   1
 p    1 1.00
                 0.727                   1

16 0
 s    8 1.00
                  6665  0.00069158396281299
                  1000  0.0053257961529341
                   228   0.027060721042034
                 64.71    0.10165684614077
                 21.06     0.2745748236174
                 7.495    0.44829431892377
                 2.797    0.28490261071525
                0.5215   0.015194859206082
 s    8 1.00
                  6665  -0.00029326965268655
                  1000  -0.0023180354739745
                   228  -0.011499786038565
                 64.71  -0.046826727009787
                 21.06   -0.12846616875047
                 7.495   -0.30126627246289
                 2.797   -0.25563070233011
                0.5215      1.093793361012
 s    1 1.00
                0.1596                   1
 p    3 1.00
                 9.439   0.056979251590039
                 2.002    0.31320721150073
                0.5456    0.76037674173753
 p    1 1.00
                0.1517                   1
 d    1 1.00
                  0.55                   1

17 0
 s    3 1.00
                 13.01   0.033498726389998
                 1.962    0.23480080117413
                0.4446     0.8136829578829
 s    1 1.00
                 0.122                   1
 p    1 1.00
                 0.727                   1

18 0
 s    3 1.00
                 13.01   0.033498726389998
                 1.962    0.23480080117413
                0.4446     0.8136829578829
 s    1 1.00
                 0.122                   1
 p    1 1.00
                 0.727                   1

19 0
 s    8 1.00
                  6665  0.00069158396281299
                  1000  0.0053257961529341
                   228   0.027060721042034
                 64.71    0.10165684614077
                 21.06     0.2745748236174
                 7.495    0.44829431892377
                 2.797    0.28490261071525
                0.5215   0.015194859206082
 s    8 1.00
                  6665  -0.00029326965268655
                  1000  -0.0023180354739745
                   228  -0.011499786038565
                 64.71  -0.046826727009787
                 21.06   -0.12846616875047
                 7.495   -0.30126627246289
                 2.797   -0.25563070233011
                0.5215      1.093793361012
 s    1 1.00
                0.1596                   1
 p    3 1.00
                 9.439   0.056979251590039
                 2.002    0.31320721150073
                0.5456    0.76037674173753
 p    1 1.00
                0.1517                   1
 d    1 1.00
                  0.55                   1

20 0
 s    3 1.00
                 13.01   0.033498726389998
                 1.962    0.23480080117413
                0.4446     0.8136829578829
 s    1 1.00
                 0.122                   1
 p    1 1.00
                 0.727                   1

21 0
 s    8 1.00
                  6665  0.00069158396281299
                  1000  0.0053257961529341
                   228   0.027060721042034
                 64.71    0.10165684614077
                 21.06     0.2745748236174
                 7.495    0.44829431892377
                 2.797    0.28490261071525
                0.5215   0.015194859206082
 s    8 1.00
                  6665  -0.00029326965268655
                  1000  -0.0023180354739745
                   228  -0.011499786038565
                 64.71  -0.046826727009787
                 21.06   -0.12846616875047
                 7.495   -0.30126627246289
                 2.797   -0.25563070233011
                0.5215      1.093793361012
 s    1 1.00
                0.1596                   1
 p    3 1.00
                 9.439   0.056979251590039
                 2.002    0.31320721150073
                0.5456    0.76037674173753
 p    1 1.00
                0.1517                   1
 d    1 1.00
                  0.55                   1

22 0
 s    3 1.00
                 13.01   0.033498726389998
                 1.962    0.23480080117413
                0.4446     0.8136829578829
 s    1 1.00
                 0.122                   1
 p    1 1.00
                 0.727                   1

23 0
 s    3 1.00
                 13.01   0.033498726389998
                 1.962    0.23480080117413
                0.4446     0.8136829578829
 s    1 1.00
                 0.122                   1
 p    1 1.00
                 0.727                   1

24 0
 s    3 1.00
                 13.01   0.033498726389998
                 1.962    0.23480080117413
                0.4446     0.8136829578829
 s    1 1.00
                 0.122                   1
 p    1 1.00
                 0.727                   1

25 0
 s    8 1.00
                  6665  0.00069158396281299
                  1000  0.0053257961529341
                   228   0.027060721042034
                 64.71    0.10165684614077
                 21.06     0.2745748236174
                 7.495    0.44829431892377
                 2.797    0.28490261071525
                0.5215   0.015194859206082
 s    8 1.00
                  6665  -0.00029326965268655
                  1000  -0.0023180354739745
                   228  -0.011499786038565
                 64.71  -0.046826727009787
                 21.06   -0.12846616875047
                 7.495   -0.30126627246289
                 2.797   -0.25563070233011
                0.5215      1.093793361012
 s    1 1.00
                0.1596                   1
 p    3 1.00
                 9.439   0.056979251590039
                 2.002    0.31320721150073
                0.5456    0.76037674173753
 p    1 1.00
                0.1517                   1
 d    1 1.00
                  0.55                   1

26 0
 s    3 1.00
                 13.01   0.033498726389998
                 1.962    0.23480080117413
                0.4446     0.8136829578829
 s    1 1.00
                 0.122                   1
 p    1 1.00
                 0.727                   1

27 0
 s    3 1.00
                 13.01   0.033498726389998
                 1.962    0.23480080117413
                0.4446     0.8136829578829
 s    1 1.00
                 0.122                   1
 p    1 1.00
                 0.727                   1

28 0
 s    8 1.00
                  6665  0.00069158396281299
                  1000  0.0053257961529341
                   228   0.027060721042034
                 64.71    0.10165684614077
                 21.06     0.2745748236174
                 7.495    0.44829431892377
                 2.797    0.28490261071525
                0.5215   0.015194859206082
 s    8 1.00
                  6665  -0.00029326965268655
                  1000  -0.0023180354739745
                   228  -0.011499786038565
                 64.71  -0.046826727009787
                 21.06   -0.12846616875047
                 7.495   -0.30126627246289
                 2.797   -0.25563070233011
                0.5215      1.093793361012
 s    1 1.00
                0.1596                   1
 p    3 1.00
                 9.439   0.056979251590039
                 2.002    0.31320721150073
                0.5456    0.76037674173753
 p    1 1.00
                0.1517                   1
 d    1 1.00
                  0.55                   1

29 0
 s    3 1.00
                 13.01   0.033498726389998
                 1.962    0.23480080117413
                0.4446     0.8136829578829
 s    1 1.00
                 0.122                   1
 p    1 1.00
                 0.727                   1

30 0
 s    3 1.00
                 13.01   0.033498726389998
                 1.962    0.23480080117413
                0.4446     0.8136829578829
 s    1 1.00
                 0.122                   1
 p    1 1.00
                 0.727                   1

31 0
 s    8 1.00
                  6665  0.00069158396281299
                  1000  0.0053257961529341
                   228   0.027060721042034
                 64.71    0.10165684614077
                 21.06     0.2745748236174
                 7.495    0.44829431892377
                 2.797    0.28490261071525
                0.5215   0.015194859206082
 s    8 1.00
                  6665  -0.00029326965268655
                  1000  -0.0023180354739745
                   228  -0.011499786038565
                 64.71  -0.046826727009787
                 21.06   -0.12846616875047
                 7.495   -0.30126627246289
                 2.797   -0.25563070233011
                0.5215      1.093793361012
 s    1 1.00
                0.1596                   1
 p    3 1.00
                 9.439   0.056979251590039
                 2.002    0.31320721150073
                0.5456    0.76037674173753
 p    1 1.00
                0.1517                   1
 d    1 1.00
                  0.55                   1

32 0
 s    3 1.00
                 13.01   0.033498726389998
                 1.962    0.23480080117413
                0.4446     0.8136829578829
 s    1 1.00
                 0.122                   1
 p    1 1.00
                 0.727                   1

33 0
 s    3 1.00
                 13.01   0.033498726389998
                 1.962    0.23480080117413
                0.4446     0.8136829578829
 s    1 1.00
                 0.122                   1
 p    1 1.00
                 0.727                   1

34 0
 s    3 1.00
                 13.01   0.033498726389998
                 1.962    0.23480080117413
                0.4446     0.8136829578829
 s    1 1.00
                 0.122                   1
 p    1 1.00
                 0.727                   1

35 0
 s    3 1.00
                 13.01   0.033498726389998
                 1.962    0.23480080117413
                0.4446     0.8136829578829
 s    1 1.00
                 0.122                   1
 p    1 1.00
                 0.727                   1

36 0
 s    3 1.00
                 13.01   0.033498726389998
                 1.962    0.23480080117413
                0.4446     0.8136829578829
 s    1 1.00
                 0.122                   1
 p    1 1.00
                 0.727                   1

37 0
 s    3 1.00
                 13.01   0.033498726389998
                 1.962    0.23480080117413
                0.4446     0.8136829578829
 s    1 1.00
                 0.122                   1
 p    1 1.00
                 0.727                   1

[5d]
[7f]
[9g]

[MO]
 Sym= A
 Ene=               0
 Spin= Alpha
 Occup=    1.00000
   1    -7.9552503168825e-07
   2    7.9142318284826e-06
   3    -1.7519792379341e-06
   4    3.3910361396899e-06
   5    9.3735832816908e-06
   6    -2.5070975139764e-05
   7    3.5301470643724e-06
   8    4.1403240787073e-06
   9    -1.4119103318028e-05
  10    2.2573782318332e-07
  11    -7.2063289652709e-07
  12    1.4253456489162e-07
  13    -1.8710242869133e-07
  14    7.6741147137426e-08
  15    6.5415133156337e-06
  16    9.0835546069494e-06
  17    -4.4111601128895e-07
  18    -1.3922606743528e-06
  19    1.5010654837342e-06
  20    7.8738569410924e-06
  21    -1.1594375783838e-05
  22    9.1078990142317e-09
  23    -5.3709784049528e-07
  24    -2.3643513840263e-07
  25    7.0744238837359e-06
  26    0.00022513540202301
  27    0.00011070855325823
  28    0.00028523197712656
  29    -0.00086362672145103
  30    -0.00035730487480565
  31    0.00024702273672056
  32    -0.00067010013358858
  33    -0.00018819157097644
  34    2.5494769029269e-05
  35    4.2186090262826e-06
  36    5.295814051132e-05
  37    4.7900453611512e-06
  38    3.2831912997241e-06
  39    0.00072875912829036
  40    0.00056027776555089
  41    0.00059935794892598
  42    7.1404052950874e-05
  43    -0.00045613944461432
  44    0.00012041810826469
  45    -0.00011815219275592
  46    0.00010863430535473
  47    -0.0001225698126427
  48    6.505002992572e-05
  49    6.8674010834366e-05
  50    -3.7239914088443e-05
  51    3.7426747003845e-05
  52    -3.625261860899e-05
  53      0.03727327079663
  54    0.00038566426913753
  55     -0.00324325575736
  56    -0.0002112625594625
  57    2.0904050761813e-05
  58    0.00017191127615997
  59    -0.00088559432396384
  60    -0.00084398665253084
  61    0.00094422034004675
  62    1.1185775334968e-05
  63    -0.00013633747214904
  64    -0.00014249576118119
  65    -2.2259654246561e-05
  66    0.0001015154500796
  67    0.0068456270334788
  68    0.00014862058490997
  69    -0.00054540117624989
  70    6.3449972360788e-05
  71    -9.9499871392075e-06
  72    2.8231743387319e-05
  73    -0.0004355853397744
  74    -0.00017586562896378
  75    -8.4254006683341e-06
  76    -4.7885432865748e-06
  77    -1.0160751811203e-05
  78    3.8363376262822e-05
  79    1.7400964750414e-05
  80    -1.2995616858981e-05
  81    0.0001381859944326
  82    -1.460708464699e-05
  83    -2.6549828049337e-05
  84    -2.6899184622804e-05
  85    5.9033314717932e-05
  86      -1.0015181760027
  87    -0.0052337131456016
  88     0.012828004644377
  89    0.00015041611237221
  90    -0.00016063689115818
  91    -5.6172295730564e-05
  92    0.00055152682586913
  93    -0.001567892936491
  94    3.3108233206978e-05
  95    -1.7755151822765e-05
  96    -0.0003264508284695
  97    -4.1544652888074e-05
  98    8.7686242521115e-05
  99    -6.6601496722868e-05
 100    0.00012240513748048
 101    -0.00019427070198246
 102    -5.582751065148e-05
 103    -6.1624849325342e-05
 104    3.5655098064641e-05
 105    -6.0560940493335e-05
 106    3.1312565805321e-05
 107    6.1099432177692e-05
 108    1.5692240896661e-06
 109    -1.4446535784028e-05
 110    0.00010630335094403
 111    0.00046287227634934
 112    9.6112420236822e-07
 113    -3.7755820019333e-05
 114    1.4885813094957e-05
 115    0.0017444020137847
 116    3.1829043014394e-05
 117    -1.8537679597173e-05
 118    -6.2997401015363e-06
 119    7.2223869084036e-06
 120    4.0178204618883e-06
 121    -6.0920755232885e-06
 122    0.00023601003352488
 123    0.00012809488101491
 124    -2.5145889316823e-06
 125    1.3804999137167e-05
 126    -1.2366267403283e-05
 127    -2.0980073015525e-06
 128    1.4285669365718e-05
 129    -0.00021307968725157
 130    -0.0012404428725153
 131    -0.00022000607975103
 132    -0.00028654209808166
 133    -0.0002405775455752
 134    -0.00021930652999664
 135    -0.0013698782376029
 136    0.00026158962312117
 137    -7.223329463647e-05
 138    0.00032209091539562
 139    -0.028162274938691
 140    8.0431280629331e-05
 141    -0.0035096609441534
 142    0.00011402483283858
 143    -5.3229222848003e-05
 144    -7.7903785733111e-05
 145    0.0013395068370436
 146    -0.0010420969966188
 147    -0.00073794367877773
 148    -3.5680077533745e-05
 149    -4.815539337279e-05
 150    3.9738189829165e-05
 151    3.3024611985477e-06
 152    -8.7332038183384e-05
 153    -2.0674825005883e-05
 154    -0.00015068146224057
 155    2.2733607625607e-06
 156    3.6907356096149e-06
 157    3.9695307220595e-06
 158    1.6713230078044e-05
 159    2.907482170104e-05
 160    -6.5804724646505e-06
 161    -1.0067438748794e-05
 162    -6.2740700145585e-06
 163    -0.00055897994791327
 164    -1.4598537852681e-05
 165    0.00015145162323531
 166    1.6428904343859e-05
 167    -5.2562797612641e-06
 168    -6.2343723503204e-06
 169    -0.00020707136614505
 170    2.0636292584636e-05
 171    2.0858753558122e-05
 172    -2.3219784248708e-06
 173    -1.6571906659806e-05
 174    3.6371730198227e-06
 175    -2.0880779710705e-06
 176    -1.8151403774588e-07
 177    0.00012529472291853
 178    -0.00023771683859605
 179    5.2953847836394e-05
 180    -2.4518556318662e-05
 181    -1.7960083186011e-05
 182    -1.1776846130979e-05
 183    6.1981098366624e-05
 184    0.00055728280768067
 185    -5.5539910398227e-05
 186    -5.3855487780571e-06
 187    5.0650289936538e-05
 188    0.00021704256186623
 189    -0.00050532065901448
 190    9.8598409452595e-06
 191    2.2273360454853e-05
 192    8.7335218053281e-06
 193    -3.0890947428483e-05
 194    6.9066084144775e-07
 195    5.3233898703173e-05
 196    0.0001261388318828
 197    -0.00019204687117146
 198    3.8545896231475e-05
 199    -2.8781470376207e-05
 200    -3.6351997310382e-05
 201    1.979524028373e-06
 202    -5.6681839803665e-05
 203    9.3239386308949e-06
 204    -3.8273369330847e-06
 205    -5.5016034137429e-06
 206    1.7229856649635e-05
 207    -4.7280065588555e-05
 208    8.2670838575381e-06
 209    3.6881184428466e-06
 210    -4.0799109620934e-06
 211    9.9961345379431e-05
 212    2.2324690719901e-05
 213    -0.00021723626601664
 214    -1.3226079878739e-05
 215    3.7418267232628e-06
 216    7.7387680846321e-06
 217    -6.5031050172979e-05
 218    6.4832559131105e-05
 219    4.733222997885e-05
 220    -1.1679931187436e-06
 221    7.9201114223149e-06
 222    -6.4511361259278e-06
 223    -2.587238869987e-06
 224    5.4361959886327e-06
 225    1.6352424509029e-05
 226    0.00024249057123051
 227    -5.7038671376402e-05
 228    1.1239861168925e-05
 229    1.1742211395115e-05
 230    1.4495370414743e-05
 231    0.0002733861107851
 232    -2.7139294811736e-05
 233    2.2864126819655e-05
 234    5.222568811593e-05
 235    4.6779032684364e-05
 236    0.0001604938115689
 237    -0.00076113102544373
 238    -1.2630173856376e-05
 239    -1.211681355744e-05
 240    1.4665214284573e-05
 241    0.00042058503654599
 242    5.3350459502969e-05
 243    -0.00037762455158463
 244    -5.7789648897081e-06
 245    2.0698099429418e-05
 246    -2.8088761298286e-06
 247    -1.6588345140292e-05
 248    -1.4665067033121e-06
 249    6.7269490445477e-06
 250    9.9875417301644e-06
 251    6.5612294200811e-07
 252    -2.761890280573e-06
 253    -1.565931219669e-06
 254    1.4031620795545e-05
 255    1.8461894776217e-05
 256    1.6127724295385e-06
 257    -8.628366747688e-08
 258    -1.6172660835846e-06
 259    2.4079813893653e-05
 260    1.079313896892e-05
 261    -2.1448042548883e-05
 262    4.6325443778512e-06
 263    -2.5298698553923e-06