[Molden Format]
made by pyscf v[2.0.1]
[Atoms] (AU)
O   1   8     0.00000000000000     0.00000000000000     9.05202446090250
H   2   1     0.00000000000000     0.00000000000000     7.22862263900153
H   3   1    -0.05031916615174     1.78353065140343     9.42789615736916
O   4   8     0.00000000000000     0.00000000000000     2.31533471513237
C   5   6     0.00000000000000     0.00000000000000     0.00000000000000
C   6   6     2.01118073026938    -1.40227222164369    -1.50774939176400
C   7   6    -2.01249334291722     1.41331050329955    -1.50315905028694
H   8   1     3.32037363730244    -2.26721897153159    -0.13599698591495
C   9   6     3.45899267434009     0.28739631745591    -3.37437943254505
H   10   1     1.07662969841332    -2.94725144642667    -2.56541439481080
H   11   1    -2.67503415753480     0.18421555839588    -3.06194479365997
H   12   1    -1.07974048864772     3.03851734677796    -2.43674295017013
C   13   6    -4.21607110578555     2.32938802552922     0.11994162256091
H   14   1     4.24440173074564     1.93368664142019    -2.34976285512790
H   15   1     2.15020713235517     1.04714335134846    -4.81494497423699
C   16   6     5.60746363007797    -1.12419643481196    -4.70268606082550
H   17   1    -3.46838323670267     3.50951302338067     1.66946842715333
H   18   1    -5.11873485366228     0.68575958301209     1.04047743976495
C   19   6    -6.18314754751344     3.80909592987882    -1.39656589068747
H   20   1     6.93011263717176    -1.87550812453645    -3.26656317360070
C   21   6     7.06356622236532     0.52877932406334    -6.57829775293605
H   22   1     4.82318879258361    -2.78573437948532    -5.70504560381835
H   23   1    -6.91582688743803     2.61304780074712    -2.95074552451969
H   24   1    -5.26532430573853     5.45420349051338    -2.31005832200284
C   25   6    -8.39941882261433     4.73263980500213     0.21800571437956
H   26   1     7.83338371486801     2.19084139882824    -5.57093109900697
H   27   1     5.73544244039420     1.27376866537418    -8.01071492370229
C   28   6     9.21124858443101    -0.89699110072176    -7.88926949186242
H   29   1    -7.66272760055236     5.92277078003992     1.77035591474408
H   30   1    -9.31497248082589     3.08753015622020     1.12614408368786
C   31   6   -10.35481709231879     6.21833079391143    -1.30905206253246
H   32   1    10.58815905329501    -1.61074586756696    -6.49512691622620
H   33   1    10.23506248045667     0.32468009384095    -9.23072870921204
H   34   1     8.47665842847139    -2.53598436989925    -8.94921964622535
H   35   1    -9.48948872868064     7.90013588951020    -2.18823918416067
H   36   1   -11.93332513000955     6.86460487874102    -0.11255798845995
H   37   1   -11.15126291841033     5.04495968327630    -2.83849898862534
[GTO]
1 0
 s    8 1.00
                 11720  0.00070964594651845
                  1759  0.0054672722921914
                 400.8   0.027823118610189
                 113.7    0.10474773971146
                 37.03    0.28292084635691
                 13.27    0.44849523869833
                 5.025    0.27081688521277
                 1.013    0.01545029160744
 s    8 1.00
                 11720  -0.00031444341168873
                  1759  -0.0024821376810179
                 400.8  -0.012316355381583
                 113.7  -0.050538917343672
                 37.03   -0.13938490331632
                 13.27   -0.32507749481778
                 5.025   -0.22984830758785
                 1.013     1.0953793467883
 s    1 1.00
                0.3023                   1
 p    3 1.00
                  17.7   0.062679166281506
                 3.854    0.33353656587936
                 1.046    0.74123964163973
 p    1 1.00
                0.2753                   1
 d    1 1.00
                 1.185                   1

2 0
 s    3 1.00
                 13.01   0.033498726389998
                 1.962    0.23480080117413
                0.4446     0.8136829578829
 s    1 1.00
                 0.122                   1
 p    1 1.00
                 0.727                   1

3 0
 s    3 1.00
                 13.01   0.033498726389998
                 1.962    0.23480080117413
                0.4446     0.8136829578829
 s    1 1.00
                 0.122                   1
 p    1 1.00
                 0.727                   1

4 0
 s    8 1.00
                 11720  0.00070964594651845
                  1759  0.0054672722921914
                 400.8   0.027823118610189
                 113.7    0.10474773971146
                 37.03    0.28292084635691
                 13.27    0.44849523869833
                 5.025    0.27081688521277
                 1.013    0.01545029160744
 s    8 1.00
                 11720  -0.00031444341168873
                  1759  -0.0024821376810179
                 400.8  -0.012316355381583
                 113.7  -0.050538917343672
                 37.03   -0.13938490331632
                 13.27   -0.32507749481778
                 5.025   -0.22984830758785
                 1.013     1.0953793467883
 s    1 1.00
                0.3023                   1
 p    3 1.00
                  17.7   0.062679166281506
                 3.854    0.33353656587936
                 1.046    0.74123964163973
 p    1 1.00
                0.2753                   1
 d    1 1.00
                 1.185                   1

5 0
 s    8 1.00
                  6665  0.00069158396281299
                  1000  0.0053257961529341
                   228   0.027060721042034
                 64.71    0.10165684614077
                 21.06     0.2745748236174
                 7.495    0.44829431892377
                 2.797    0.28490261071525
                0.5215   0.015194859206082
 s    8 1.00
                  6665  -0.00029326965268655
                  1000  -0.0023180354739745
                   228  -0.011499786038565
                 64.71  -0.046826727009787
                 21.06   -0.12846616875047
                 7.495   -0.30126627246289
                 2.797   -0.25563070233011
                0.5215      1.093793361012
 s    1 1.00
                0.1596                   1
 p    3 1.00
                 9.439   0.056979251590039
                 2.002    0.31320721150073
                0.5456    0.76037674173753
 p    1 1.00
                0.1517                   1
 d    1 1.00
                  0.55                   1

6 0
 s    8 1.00
                  6665  0.00069158396281299
                  1000  0.0053257961529341
                   228   0.027060721042034
                 64.71    0.10165684614077
                 21.06     0.2745748236174
                 7.495    0.44829431892377
                 2.797    0.28490261071525
                0.5215   0.015194859206082
 s    8 1.00
                  6665  -0.00029326965268655
                  1000  -0.0023180354739745
                   228  -0.011499786038565
                 64.71  -0.046826727009787
                 21.06   -0.12846616875047
                 7.495   -0.30126627246289
                 2.797   -0.25563070233011
                0.5215      1.093793361012
 s    1 1.00
                0.1596                   1
 p    3 1.00
                 9.439   0.056979251590039
                 2.002    0.31320721150073
                0.5456    0.76037674173753
 p    1 1.00
                0.1517                   1
 d    1 1.00
                  0.55                   1

7 0
 s    8 1.00
                  6665  0.00069158396281299
                  1000  0.0053257961529341
                   228   0.027060721042034
                 64.71    0.10165684614077
                 21.06     0.2745748236174
                 7.495    0.44829431892377
                 2.797    0.28490261071525
                0.5215   0.015194859206082
 s    8 1.00
                  6665  -0.00029326965268655
                  1000  -0.0023180354739745
                   228  -0.011499786038565
                 64.71  -0.046826727009787
                 21.06   -0.12846616875047
                 7.495   -0.30126627246289
                 2.797   -0.25563070233011
                0.5215      1.093793361012
 s    1 1.00
                0.1596                   1
 p    3 1.00
                 9.439   0.056979251590039
                 2.002    0.31320721150073
                0.5456    0.76037674173753
 p    1 1.00
                0.1517                   1
 d    1 1.00
                  0.55                   1

8 0
 s    3 1.00
                 13.01   0.033498726389998
                 1.962    0.23480080117413
                0.4446     0.8136829578829
 s    1 1.00
                 0.122                   1
 p    1 1.00
                 0.727                   1

9 0
 s    8 1.00
                  6665  0.00069158396281299
                  1000  0.0053257961529341
                   228   0.027060721042034
                 64.71    0.10165684614077
                 21.06     0.2745748236174
                 7.495    0.44829431892377
                 2.797    0.28490261071525
                0.5215   0.015194859206082
 s    8 1.00
                  6665  -0.00029326965268655
                  1000  -0.0023180354739745
                   228  -0.011499786038565
                 64.71  -0.046826727009787
                 21.06   -0.12846616875047
                 7.495   -0.30126627246289
                 2.797   -0.25563070233011
                0.5215      1.093793361012
 s    1 1.00
                0.1596                   1
 p    3 1.00
                 9.439   0.056979251590039
                 2.002    0.31320721150073
                0.5456    0.76037674173753
 p    1 1.00
                0.1517                   1
 d    1 1.00
                  0.55                   1

10 0
 s    3 1.00
                 13.01   0.033498726389998
                 1.962    0.23480080117413
                0.4446     0.8136829578829
 s    1 1.00
                 0.122                   1
 p    1 1.00
                 0.727                   1

11 0
 s    3 1.00
                 13.01   0.033498726389998
                 1.962    0.23480080117413
                0.4446     0.8136829578829
 s    1 1.00
                 0.122                   1
 p    1 1.00
                 0.727                   1

12 0
 s    3 1.00
                 13.01   0.033498726389998
                 1.962    0.23480080117413
                0.4446     0.8136829578829
 s    1 1.00
                 0.122                   1
 p    1 1.00
                 0.727                   1

13 0
 s    8 1.00
                  6665  0.00069158396281299
                  1000  0.0053257961529341
                   228   0.027060721042034
                 64.71    0.10165684614077
                 21.06     0.2745748236174
                 7.495    0.44829431892377
                 2.797    0.28490261071525
                0.5215   0.015194859206082
 s    8 1.00
                  6665  -0.00029326965268655
                  1000  -0.0023180354739745
                   228  -0.011499786038565
                 64.71  -0.046826727009787
                 21.06   -0.12846616875047
                 7.495   -0.30126627246289
                 2.797   -0.25563070233011
                0.5215      1.093793361012
 s    1 1.00
                0.1596                   1
 p    3 1.00
                 9.439   0.056979251590039
                 2.002    0.31320721150073
                0.5456    0.76037674173753
 p    1 1.00
                0.1517                   1
 d    1 1.00
                  0.55                   1

14 0
 s    3 1.00
                 13.01   0.033498726389998
                 1.962    0.23480080117413
                0.4446     0.8136829578829
 s    1 1.00
                 0.122                   1
 p    1 1.00
                 0.727                   1

15 0
 s    3 1.00
                 13.01   0.033498726389998
                 1.962    0.23480080117413
                0.4446     0.8136829578829
 s    1 1.00
                 0.122                   1
 p    1 1.00
                 0.727                   1

16 0
 s    8 1.00
                  6665  0.00069158396281299
                  1000  0.0053257961529341
                   228   0.027060721042034
                 64.71    0.10165684614077
                 21.06     0.2745748236174
                 7.495    0.44829431892377
                 2.797    0.28490261071525
                0.5215   0.015194859206082
 s    8 1.00
                  6665  -0.00029326965268655
                  1000  -0.0023180354739745
                   228  -0.011499786038565
                 64.71  -0.046826727009787
                 21.06   -0.12846616875047
                 7.495   -0.30126627246289
                 2.797   -0.25563070233011
                0.5215      1.093793361012
 s    1 1.00
                0.1596                   1
 p    3 1.00
                 9.439   0.056979251590039
                 2.002    0.31320721150073
                0.5456    0.76037674173753
 p    1 1.00
                0.1517                   1
 d    1 1.00
                  0.55                   1

17 0
 s    3 1.00
                 13.01   0.033498726389998
                 1.962    0.23480080117413
                0.4446     0.8136829578829
 s    1 1.00
                 0.122                   1
 p    1 1.00
                 0.727                   1

18 0
 s    3 1.00
                 13.01   0.033498726389998
                 1.962    0.23480080117413
                0.4446     0.8136829578829
 s    1 1.00
                 0.122                   1
 p    1 1.00
                 0.727                   1

19 0
 s    8 1.00
                  6665  0.00069158396281299
                  1000  0.0053257961529341
                   228   0.027060721042034
                 64.71    0.10165684614077
                 21.06     0.2745748236174
                 7.495    0.44829431892377
                 2.797    0.28490261071525
                0.5215   0.015194859206082
 s    8 1.00
                  6665  -0.00029326965268655
                  1000  -0.0023180354739745
                   228  -0.011499786038565
                 64.71  -0.046826727009787
                 21.06   -0.12846616875047
                 7.495   -0.30126627246289
                 2.797   -0.25563070233011
                0.5215      1.093793361012
 s    1 1.00
                0.1596                   1
 p    3 1.00
                 9.439   0.056979251590039
                 2.002    0.31320721150073
                0.5456    0.76037674173753
 p    1 1.00
                0.1517                   1
 d    1 1.00
                  0.55                   1

20 0
 s    3 1.00
                 13.01   0.033498726389998
                 1.962    0.23480080117413
                0.4446     0.8136829578829
 s    1 1.00
                 0.122                   1
 p    1 1.00
                 0.727                   1

21 0
 s    8 1.00
                  6665  0.00069158396281299
                  1000  0.0053257961529341
                   228   0.027060721042034
                 64.71    0.10165684614077
                 21.06     0.2745748236174
                 7.495    0.44829431892377
                 2.797    0.28490261071525
                0.5215   0.015194859206082
 s    8 1.00
                  6665  -0.00029326965268655
                  1000  -0.0023180354739745
                   228  -0.011499786038565
                 64.71  -0.046826727009787
                 21.06   -0.12846616875047
                 7.495   -0.30126627246289
                 2.797   -0.25563070233011
                0.5215      1.093793361012
 s    1 1.00
                0.1596                   1
 p    3 1.00
                 9.439   0.056979251590039
                 2.002    0.31320721150073
                0.5456    0.76037674173753
 p    1 1.00
                0.1517                   1
 d    1 1.00
                  0.55                   1

22 0
 s    3 1.00
                 13.01   0.033498726389998
                 1.962    0.23480080117413
                0.4446     0.8136829578829
 s    1 1.00
                 0.122                   1
 p    1 1.00
                 0.727                   1

23 0
 s    3 1.00
                 13.01   0.033498726389998
                 1.962    0.23480080117413
                0.4446     0.8136829578829
 s    1 1.00
                 0.122                   1
 p    1 1.00
                 0.727                   1

24 0
 s    3 1.00
                 13.01   0.033498726389998
                 1.962    0.23480080117413
                0.4446     0.8136829578829
 s    1 1.00
                 0.122                   1
 p    1 1.00
                 0.727                   1

25 0
 s    8 1.00
                  6665  0.00069158396281299
                  1000  0.0053257961529341
                   228   0.027060721042034
                 64.71    0.10165684614077
                 21.06     0.2745748236174
                 7.495    0.44829431892377
                 2.797    0.28490261071525
                0.5215   0.015194859206082
 s    8 1.00
                  6665  -0.00029326965268655
                  1000  -0.0023180354739745
                   228  -0.011499786038565
                 64.71  -0.046826727009787
                 21.06   -0.12846616875047
                 7.495   -0.30126627246289
                 2.797   -0.25563070233011
                0.5215      1.093793361012
 s    1 1.00
                0.1596                   1
 p    3 1.00
                 9.439   0.056979251590039
                 2.002    0.31320721150073
                0.5456    0.76037674173753
 p    1 1.00
                0.1517                   1
 d    1 1.00
                  0.55                   1

26 0
 s    3 1.00
                 13.01   0.033498726389998
                 1.962    0.23480080117413
                0.4446     0.8136829578829
 s    1 1.00
                 0.122                   1
 p    1 1.00
                 0.727                   1

27 0
 s    3 1.00
                 13.01   0.033498726389998
                 1.962    0.23480080117413
                0.4446     0.8136829578829
 s    1 1.00
                 0.122                   1
 p    1 1.00
                 0.727                   1

28 0
 s    8 1.00
                  6665  0.00069158396281299
                  1000  0.0053257961529341
                   228   0.027060721042034
                 64.71    0.10165684614077
                 21.06     0.2745748236174
                 7.495    0.44829431892377
                 2.797    0.28490261071525
                0.5215   0.015194859206082
 s    8 1.00
                  6665  -0.00029326965268655
                  1000  -0.0023180354739745
                   228  -0.011499786038565
                 64.71  -0.046826727009787
                 21.06   -0.12846616875047
                 7.495   -0.30126627246289
                 2.797   -0.25563070233011
                0.5215      1.093793361012
 s    1 1.00
                0.1596                   1
 p    3 1.00
                 9.439   0.056979251590039
                 2.002    0.31320721150073
                0.5456    0.76037674173753
 p    1 1.00
                0.1517                   1
 d    1 1.00
                  0.55                   1

29 0
 s    3 1.00
                 13.01   0.033498726389998
                 1.962    0.23480080117413
                0.4446     0.8136829578829
 s    1 1.00
                 0.122                   1
 p    1 1.00
                 0.727                   1

30 0
 s    3 1.00
                 13.01   0.033498726389998
                 1.962    0.23480080117413
                0.4446     0.8136829578829
 s    1 1.00
                 0.122                   1
 p    1 1.00
                 0.727                   1

31 0
 s    8 1.00
                  6665  0.00069158396281299
                  1000  0.0053257961529341
                   228   0.027060721042034
                 64.71    0.10165684614077
                 21.06     0.2745748236174
                 7.495    0.44829431892377
                 2.797    0.28490261071525
                0.5215   0.015194859206082
 s    8 1.00
                  6665  -0.00029326965268655
                  1000  -0.0023180354739745
                   228  -0.011499786038565
                 64.71  -0.046826727009787
                 21.06   -0.12846616875047
                 7.495   -0.30126627246289
                 2.797   -0.25563070233011
                0.5215      1.093793361012
 s    1 1.00
                0.1596                   1
 p    3 1.00
                 9.439   0.056979251590039
                 2.002    0.31320721150073
                0.5456    0.76037674173753
 p    1 1.00
                0.1517                   1
 d    1 1.00
                  0.55                   1

32 0
 s    3 1.00
                 13.01   0.033498726389998
                 1.962    0.23480080117413
                0.4446     0.8136829578829
 s    1 1.00
                 0.122                   1
 p    1 1.00
                 0.727                   1

33 0
 s    3 1.00
                 13.01   0.033498726389998
                 1.962    0.23480080117413
                0.4446     0.8136829578829
 s    1 1.00
                 0.122                   1
 p    1 1.00
                 0.727                   1

34 0
 s    3 1.00
                 13.01   0.033498726389998
                 1.962    0.23480080117413
                0.4446     0.8136829578829
 s    1 1.00
                 0.122                   1
 p    1 1.00
                 0.727                   1

35 0
 s    3 1.00
                 13.01   0.033498726389998
                 1.962    0.23480080117413
                0.4446     0.8136829578829
 s    1 1.00
                 0.122                   1
 p    1 1.00
                 0.727                   1

36 0
 s    3 1.00
                 13.01   0.033498726389998
                 1.962    0.23480080117413
                0.4446     0.8136829578829
 s    1 1.00
                 0.122                   1
 p    1 1.00
                 0.727                   1

37 0
 s    3 1.00
                 13.01   0.033498726389998
                 1.962    0.23480080117413
                0.4446     0.8136829578829
 s    1 1.00
                 0.122                   1
 p    1 1.00
                 0.727                   1

[5d]
[7f]
[9g]

[MO]
 Sym= A
 Ene=               0
 Spin= Alpha
 Occup=    1.00000
   1    7.0638486007398e-07
   2    -2.1393911496108e-06
   3    -2.2137276905462e-06
   4    -5.0287327818331e-07
   5    -1.064607905144e-06
   6    5.8377698199254e-06
   7    -4.9902349801452e-07
   8    -9.3650768425778e-07
   9    2.2950047843156e-06
  10    2.9964205155822e-07
  11    1.0691591294185e-08
  12    2.3158895933521e-07
  13    -1.1215414100992e-09
  14    -1.2787643250052e-08
  15    -2.3093496909931e-06
  16    1.9130500174303e-06
  17    -3.9920797604055e-07
  18    1.5343799708963e-06
  19    -2.7002122129829e-06
  20    -1.3635526840458e-06
  21    4.403137346164e-06
  22    2.2925671320265e-09
  23    -2.1658738235243e-07
  24    3.9323648111674e-07
  25    -6.4485966450482e-06
  26    -0.0002118817375209
  27    -9.1448695734129e-05
  28    -0.00028137224201205
  29    0.00086967194820443
  30    0.00035154875031887
  31    -0.0002387708529293
  32    0.00066768505092791
  33    0.0001729141479053
  34    -2.5134876576475e-05
  35    -3.7934685247505e-06
  36    -5.5380276692458e-05
  37    -4.5775158214551e-06
  38    -3.4647110489893e-06
  39    -0.00072957580084342
  40    -0.00058829069486806
  41    -0.00062820350196599
  42    -7.5223255733577e-05
  43    0.0004749339261199
  44    -9.2397326882458e-05
  45    0.00010772465043105
  46    -8.3743164613954e-05
  47    0.00012790113927023
  48    -6.3529277319493e-05
  49    -6.6788775396015e-05
  50    3.8474788463756e-05
  51    -3.83363021545e-05
  52    3.9297821099241e-05
  53    -0.035011482295477
  54    -0.00039303743743367
  55      0.00322035240465
  56    0.00023124918546655
  57    -3.4192032595723e-05
  58    -0.00018646960865973
  59    0.00089088227850139
  60    0.00083553714211823
  61    -0.00094451813779305
  62    -9.7834421848569e-06
  63    0.00013611174690685
  64    0.00014003136504848
  65    2.1010646156878e-05
  66    -9.8156873094105e-05
  67    -0.0052734658271045
  68    -0.00014664130419779
  69    0.00051598629422918
  70    -7.1681409783498e-05
  71    1.6786523282776e-05
  72    -3.4486525170542e-05
  73    0.0004315840435176
  74    0.00017586138804474
  75    5.3701126596734e-07
  76    5.6953583783427e-06
  77    9.899002585609e-06
  78    -3.7307849794645e-05
  79    -1.7392330984329e-05
  80    1.4614675062359e-05
  81    -0.0001368303183299
  82    1.776729323017e-05
  83    2.7316111795654e-05
  84    2.6661163331096e-05
  85    -5.8639805212679e-05
  86       1.0015158364964
  87    0.0052335091711154
  88    -0.012807356844331
  89    -0.00014210401524543
  90    0.00016599468586875
  91    4.6622894554081e-05
  92    -0.00055564072458377
  93    0.0015592116492012
  94    -2.7188832855158e-05
  95    1.7722314590429e-05
  96    0.00032820118099011
  97    4.1671001039188e-05
  98    -8.8172390879223e-05
  99    6.6596457831323e-05
 100    -0.00012028107104558
 101    0.00020136918874936
 102    5.5436524697316e-05
 103    6.0734109502614e-05
 104    -3.6475484482117e-05
 105    6.2762838284365e-05
 106    -2.6220526443166e-05
 107    -6.1403482841082e-05
 108    -2.0044612413219e-06
 109    1.3801304643662e-05
 110    -0.0001053540632315
 111    -0.00046111085751626
 112    -1.025801497904e-06
 113    3.8582027688879e-05
 114    -1.5175908693898e-05
 115    -0.0019087036843326
 116    -3.2925273077003e-05
 117    2.5985655290786e-05
 118    7.0178658579896e-06
 119    -8.36992492664e-06
 120    -3.8724038418064e-06
 121    1.0364326617605e-05
 122    -0.00023698976002919
 123    -0.00012978420214058
 124    2.8297334780713e-06
 125    -1.389799006178e-05
 126    1.2401706475482e-05
 127    1.9801869648838e-06
 128    -1.3865390183044e-05
 129    0.00021217206708325
 130    0.0012442207305076
 131    0.00022055462472235
 132    0.0002872362179424
 133    0.00024099240066066
 134    0.00021836099425384
 135     0.001371874191078
 136    -0.0002622157782303
 137    7.255395186748e-05
 138    -0.00032298535743697
 139      0.03124774269876
 140    -6.4821159387374e-05
 141    0.0034645478371373
 142    -0.00011153891446169
 143    5.1485010010137e-05
 144    7.659786401538e-05
 145    -0.0013340042248051
 146    0.0010345350919979
 147    0.00073570798805597
 148    3.6219238380632e-05
 149    5.0425686844169e-05
 150    -4.044702241346e-05
 151    -3.9914257228008e-06
 152    8.9073679200418e-05
 153    2.048410466395e-05
 154    0.00015214733698575
 155    -2.1565661851022e-06
 156    -3.8307379113102e-06
 157    -4.0574740249996e-06
 158    -1.6030775304092e-05
 159    -2.9042975339069e-05
 160    6.5652625225461e-06
 161    1.0098899369854e-05
 162    6.1183206597152e-06
 163    0.00062349876037413
 164     1.40819201926e-05
 165    -0.0001535711049686
 166    -1.7480662131791e-05
 167    6.1280321688016e-06
 168    5.9365410274948e-06
 169    0.00020641793407208
 170    -2.1409531013851e-05
 171    -2.1854272334211e-05
 172    2.390078453433e-06
 173    1.6508464721775e-05
 174    -3.6760221768651e-06
 175    2.0313215221828e-06
 176    1.100877984779e-07
 177    -0.00012510576316655
 178    0.00024112053444745
 179    -5.1863712442661e-05
 180    2.4231705251965e-05
 181    1.9195190652278e-05
 182    9.4631742801563e-05
 183    -6.2868820848692e-05
 184    -0.00054732802895407
 185    5.5328487812324e-05
 186    4.6238368567983e-06
 187    -5.0194520573828e-05
 188    -0.00022556607115288
 189    0.00050438998601724
 190    -1.7714053058361e-06
 191    -2.2341220280509e-05
 192    -8.6659203991243e-06
 193    3.1190112162687e-05
 194    -6.2396732755323e-07
 195    -5.350711201078e-05
 196    -0.00012625933379077
 197    0.00019502173398235
 198    -3.9359580042446e-05
 199    2.7610957558671e-05
 200    3.5385058563402e-05
 201    -2.3679377623249e-06
 202    5.569960117302e-05
 203    -9.4703289797911e-06
 204    3.8307229524415e-06
 205    5.4323057571026e-06
 206    -1.7106788336092e-05
 207    4.7621432788219e-05
 208    -8.3742163344671e-06
 209    -3.535338054997e-06
 210    4.1232412085269e-06
 211    -0.00011808957277858
 212    -2.2440239231438e-05
 213    0.00021858532188214
 214    1.3624710610361e-05
 215    -3.9134490788663e-06
 216    -8.0484532441312e-06
 217    6.6973584575004e-05
 218    -6.5207325804892e-05
 219    -4.7271590096837e-05
 220    1.1766448268749e-06
 221    -8.033953555376e-06
 222    6.4858601576523e-06
 223    2.6343746393443e-06
 224    -5.3904593162502e-06
 225    -1.7430354214379e-05
 226    -0.00024225867270646
 227    5.7294942523309e-05
 228    -1.160772695741e-05
 229    -1.1701567726833e-05
 230    -1.5496437828194e-05
 231    -0.00027265478974624
 232     2.73026634127e-05
 233    -2.330217293323e-05
 234    -5.2298131132907e-05
 235    -4.3122568342859e-05
 236    -0.00016143376300518
 237    0.00076602085443315
 238    1.2981469913304e-05
 239    1.2009609305657e-05
 240    -1.4940589739379e-05
 241    -0.00042150775935925
 242    -5.1309214479077e-05
 243    0.00037756787891609
 244    5.7207667120669e-06
 245    -2.0829994323882e-05
 246    2.5891971156067e-06
 247    1.6436592596702e-05
 248    1.5151891096188e-06
 249    -6.9280999529247e-06
 250    -1.056618586209e-05
 251    -6.6520103127985e-07
 252    2.7772912484144e-06
 253    1.5531335607139e-06
 254    -1.4139677554881e-05
 255    -1.8010110236812e-05
 256    -1.6337217960317e-06
 257    1.0681055145083e-07
 258    1.5744335855687e-06
 259    -2.7284612565641e-05
 260    -1.0998724707648e-05
 261    2.2066816437589e-05
 262    -4.8046580846322e-06
 263    2.6240893667777e-06