[Molden Format]
made by pyscf v[2.0.1]
[Atoms] (AU)
O   1   8     0.00000000000000     0.00000000000000     6.78435311142442
H   2   1     0.00000000000000     0.00000000000000     4.96095128952346
H   3   1    -0.05031916615174     1.78353065140343     7.16022480789109
O   4   8     0.00000000000000     0.00000000000000     2.31533471513237
C   5   6     0.00000000000000     0.00000000000000     0.00000000000000
C   6   6     2.01118073026938    -1.40227222164369    -1.50774939176400
C   7   6    -2.01249334291722     1.41331050329955    -1.50315905028694
H   8   1     3.32037363730244    -2.26721897153159    -0.13599698591495
C   9   6     3.45899267434009     0.28739631745591    -3.37437943254505
H   10   1     1.07662969841332    -2.94725144642667    -2.56541439481080
H   11   1    -2.67503415753480     0.18421555839588    -3.06194479365997
H   12   1    -1.07974048864772     3.03851734677796    -2.43674295017013
C   13   6    -4.21607110578555     2.32938802552922     0.11994162256091
H   14   1     4.24440173074564     1.93368664142019    -2.34976285512790
H   15   1     2.15020713235517     1.04714335134846    -4.81494497423699
C   16   6     5.60746363007797    -1.12419643481196    -4.70268606082550
H   17   1    -3.46838323670267     3.50951302338067     1.66946842715333
H   18   1    -5.11873485366228     0.68575958301209     1.04047743976495
C   19   6    -6.18314754751344     3.80909592987882    -1.39656589068747
H   20   1     6.93011263717176    -1.87550812453645    -3.26656317360070
C   21   6     7.06356622236532     0.52877932406334    -6.57829775293605
H   22   1     4.82318879258361    -2.78573437948532    -5.70504560381835
H   23   1    -6.91582688743803     2.61304780074712    -2.95074552451969
H   24   1    -5.26532430573853     5.45420349051338    -2.31005832200284
C   25   6    -8.39941882261433     4.73263980500213     0.21800571437956
H   26   1     7.83338371486801     2.19084139882824    -5.57093109900697
H   27   1     5.73544244039420     1.27376866537418    -8.01071492370229
C   28   6     9.21124858443101    -0.89699110072176    -7.88926949186242
H   29   1    -7.66272760055236     5.92277078003992     1.77035591474408
H   30   1    -9.31497248082589     3.08753015622020     1.12614408368786
C   31   6   -10.35481709231879     6.21833079391143    -1.30905206253246
H   32   1    10.58815905329501    -1.61074586756696    -6.49512691622620
H   33   1    10.23506248045667     0.32468009384095    -9.23072870921204
H   34   1     8.47665842847139    -2.53598436989925    -8.94921964622535
H   35   1    -9.48948872868064     7.90013588951020    -2.18823918416067
H   36   1   -11.93332513000955     6.86460487874102    -0.11255798845995
H   37   1   -11.15126291841033     5.04495968327630    -2.83849898862534
[GTO]
1 0
 s    8 1.00
                 11720  0.00070964594651845
                  1759  0.0054672722921914
                 400.8   0.027823118610189
                 113.7    0.10474773971146
                 37.03    0.28292084635691
                 13.27    0.44849523869833
                 5.025    0.27081688521277
                 1.013    0.01545029160744
 s    8 1.00
                 11720  -0.00031444341168873
                  1759  -0.0024821376810179
                 400.8  -0.012316355381583
                 113.7  -0.050538917343672
                 37.03   -0.13938490331632
                 13.27   -0.32507749481778
                 5.025   -0.22984830758785
                 1.013     1.0953793467883
 s    1 1.00
                0.3023                   1
 p    3 1.00
                  17.7   0.062679166281506
                 3.854    0.33353656587936
                 1.046    0.74123964163973
 p    1 1.00
                0.2753                   1
 d    1 1.00
                 1.185                   1

2 0
 s    3 1.00
                 13.01   0.033498726389998
                 1.962    0.23480080117413
                0.4446     0.8136829578829
 s    1 1.00
                 0.122                   1
 p    1 1.00
                 0.727                   1

3 0
 s    3 1.00
                 13.01   0.033498726389998
                 1.962    0.23480080117413
                0.4446     0.8136829578829
 s    1 1.00
                 0.122                   1
 p    1 1.00
                 0.727                   1

4 0
 s    8 1.00
                 11720  0.00070964594651845
                  1759  0.0054672722921914
                 400.8   0.027823118610189
                 113.7    0.10474773971146
                 37.03    0.28292084635691
                 13.27    0.44849523869833
                 5.025    0.27081688521277
                 1.013    0.01545029160744
 s    8 1.00
                 11720  -0.00031444341168873
                  1759  -0.0024821376810179
                 400.8  -0.012316355381583
                 113.7  -0.050538917343672
                 37.03   -0.13938490331632
                 13.27   -0.32507749481778
                 5.025   -0.22984830758785
                 1.013     1.0953793467883
 s    1 1.00
                0.3023                   1
 p    3 1.00
                  17.7   0.062679166281506
                 3.854    0.33353656587936
                 1.046    0.74123964163973
 p    1 1.00
                0.2753                   1
 d    1 1.00
                 1.185                   1

5 0
 s    8 1.00
                  6665  0.00069158396281299
                  1000  0.0053257961529341
                   228   0.027060721042034
                 64.71    0.10165684614077
                 21.06     0.2745748236174
                 7.495    0.44829431892377
                 2.797    0.28490261071525
                0.5215   0.015194859206082
 s    8 1.00
                  6665  -0.00029326965268655
                  1000  -0.0023180354739745
                   228  -0.011499786038565
                 64.71  -0.046826727009787
                 21.06   -0.12846616875047
                 7.495   -0.30126627246289
                 2.797   -0.25563070233011
                0.5215      1.093793361012
 s    1 1.00
                0.1596                   1
 p    3 1.00
                 9.439   0.056979251590039
                 2.002    0.31320721150073
                0.5456    0.76037674173753
 p    1 1.00
                0.1517                   1
 d    1 1.00
                  0.55                   1

6 0
 s    8 1.00
                  6665  0.00069158396281299
                  1000  0.0053257961529341
                   228   0.027060721042034
                 64.71    0.10165684614077
                 21.06     0.2745748236174
                 7.495    0.44829431892377
                 2.797    0.28490261071525
                0.5215   0.015194859206082
 s    8 1.00
                  6665  -0.00029326965268655
                  1000  -0.0023180354739745
                   228  -0.011499786038565
                 64.71  -0.046826727009787
                 21.06   -0.12846616875047
                 7.495   -0.30126627246289
                 2.797   -0.25563070233011
                0.5215      1.093793361012
 s    1 1.00
                0.1596                   1
 p    3 1.00
                 9.439   0.056979251590039
                 2.002    0.31320721150073
                0.5456    0.76037674173753
 p    1 1.00
                0.1517                   1
 d    1 1.00
                  0.55                   1

7 0
 s    8 1.00
                  6665  0.00069158396281299
                  1000  0.0053257961529341
                   228   0.027060721042034
                 64.71    0.10165684614077
                 21.06     0.2745748236174
                 7.495    0.44829431892377
                 2.797    0.28490261071525
                0.5215   0.015194859206082
 s    8 1.00
                  6665  -0.00029326965268655
                  1000  -0.0023180354739745
                   228  -0.011499786038565
                 64.71  -0.046826727009787
                 21.06   -0.12846616875047
                 7.495   -0.30126627246289
                 2.797   -0.25563070233011
                0.5215      1.093793361012
 s    1 1.00
                0.1596                   1
 p    3 1.00
                 9.439   0.056979251590039
                 2.002    0.31320721150073
                0.5456    0.76037674173753
 p    1 1.00
                0.1517                   1
 d    1 1.00
                  0.55                   1

8 0
 s    3 1.00
                 13.01   0.033498726389998
                 1.962    0.23480080117413
                0.4446     0.8136829578829
 s    1 1.00
                 0.122                   1
 p    1 1.00
                 0.727                   1

9 0
 s    8 1.00
                  6665  0.00069158396281299
                  1000  0.0053257961529341
                   228   0.027060721042034
                 64.71    0.10165684614077
                 21.06     0.2745748236174
                 7.495    0.44829431892377
                 2.797    0.28490261071525
                0.5215   0.015194859206082
 s    8 1.00
                  6665  -0.00029326965268655
                  1000  -0.0023180354739745
                   228  -0.011499786038565
                 64.71  -0.046826727009787
                 21.06   -0.12846616875047
                 7.495   -0.30126627246289
                 2.797   -0.25563070233011
                0.5215      1.093793361012
 s    1 1.00
                0.1596                   1
 p    3 1.00
                 9.439   0.056979251590039
                 2.002    0.31320721150073
                0.5456    0.76037674173753
 p    1 1.00
                0.1517                   1
 d    1 1.00
                  0.55                   1

10 0
 s    3 1.00
                 13.01   0.033498726389998
                 1.962    0.23480080117413
                0.4446     0.8136829578829
 s    1 1.00
                 0.122                   1
 p    1 1.00
                 0.727                   1

11 0
 s    3 1.00
                 13.01   0.033498726389998
                 1.962    0.23480080117413
                0.4446     0.8136829578829
 s    1 1.00
                 0.122                   1
 p    1 1.00
                 0.727                   1

12 0
 s    3 1.00
                 13.01   0.033498726389998
                 1.962    0.23480080117413
                0.4446     0.8136829578829
 s    1 1.00
                 0.122                   1
 p    1 1.00
                 0.727                   1

13 0
 s    8 1.00
                  6665  0.00069158396281299
                  1000  0.0053257961529341
                   228   0.027060721042034
                 64.71    0.10165684614077
                 21.06     0.2745748236174
                 7.495    0.44829431892377
                 2.797    0.28490261071525
                0.5215   0.015194859206082
 s    8 1.00
                  6665  -0.00029326965268655
                  1000  -0.0023180354739745
                   228  -0.011499786038565
                 64.71  -0.046826727009787
                 21.06   -0.12846616875047
                 7.495   -0.30126627246289
                 2.797   -0.25563070233011
                0.5215      1.093793361012
 s    1 1.00
                0.1596                   1
 p    3 1.00
                 9.439   0.056979251590039
                 2.002    0.31320721150073
                0.5456    0.76037674173753
 p    1 1.00
                0.1517                   1
 d    1 1.00
                  0.55                   1

14 0
 s    3 1.00
                 13.01   0.033498726389998
                 1.962    0.23480080117413
                0.4446     0.8136829578829
 s    1 1.00
                 0.122                   1
 p    1 1.00
                 0.727                   1

15 0
 s    3 1.00
                 13.01   0.033498726389998
                 1.962    0.23480080117413
                0.4446     0.8136829578829
 s    1 1.00
                 0.122                   1
 p    1 1.00
                 0.727                   1

16 0
 s    8 1.00
                  6665  0.00069158396281299
                  1000  0.0053257961529341
                   228   0.027060721042034
                 64.71    0.10165684614077
                 21.06     0.2745748236174
                 7.495    0.44829431892377
                 2.797    0.28490261071525
                0.5215   0.015194859206082
 s    8 1.00
                  6665  -0.00029326965268655
                  1000  -0.0023180354739745
                   228  -0.011499786038565
                 64.71  -0.046826727009787
                 21.06   -0.12846616875047
                 7.495   -0.30126627246289
                 2.797   -0.25563070233011
                0.5215      1.093793361012
 s    1 1.00
                0.1596                   1
 p    3 1.00
                 9.439   0.056979251590039
                 2.002    0.31320721150073
                0.5456    0.76037674173753
 p    1 1.00
                0.1517                   1
 d    1 1.00
                  0.55                   1

17 0
 s    3 1.00
                 13.01   0.033498726389998
                 1.962    0.23480080117413
                0.4446     0.8136829578829
 s    1 1.00
                 0.122                   1
 p    1 1.00
                 0.727                   1

18 0
 s    3 1.00
                 13.01   0.033498726389998
                 1.962    0.23480080117413
                0.4446     0.8136829578829
 s    1 1.00
                 0.122                   1
 p    1 1.00
                 0.727                   1

19 0
 s    8 1.00
                  6665  0.00069158396281299
                  1000  0.0053257961529341
                   228   0.027060721042034
                 64.71    0.10165684614077
                 21.06     0.2745748236174
                 7.495    0.44829431892377
                 2.797    0.28490261071525
                0.5215   0.015194859206082
 s    8 1.00
                  6665  -0.00029326965268655
                  1000  -0.0023180354739745
                   228  -0.011499786038565
                 64.71  -0.046826727009787
                 21.06   -0.12846616875047
                 7.495   -0.30126627246289
                 2.797   -0.25563070233011
                0.5215      1.093793361012
 s    1 1.00
                0.1596                   1
 p    3 1.00
                 9.439   0.056979251590039
                 2.002    0.31320721150073
                0.5456    0.76037674173753
 p    1 1.00
                0.1517                   1
 d    1 1.00
                  0.55                   1

20 0
 s    3 1.00
                 13.01   0.033498726389998
                 1.962    0.23480080117413
                0.4446     0.8136829578829
 s    1 1.00
                 0.122                   1
 p    1 1.00
                 0.727                   1

21 0
 s    8 1.00
                  6665  0.00069158396281299
                  1000  0.0053257961529341
                   228   0.027060721042034
                 64.71    0.10165684614077
                 21.06     0.2745748236174
                 7.495    0.44829431892377
                 2.797    0.28490261071525
                0.5215   0.015194859206082
 s    8 1.00
                  6665  -0.00029326965268655
                  1000  -0.0023180354739745
                   228  -0.011499786038565
                 64.71  -0.046826727009787
                 21.06   -0.12846616875047
                 7.495   -0.30126627246289
                 2.797   -0.25563070233011
                0.5215      1.093793361012
 s    1 1.00
                0.1596                   1
 p    3 1.00
                 9.439   0.056979251590039
                 2.002    0.31320721150073
                0.5456    0.76037674173753
 p    1 1.00
                0.1517                   1
 d    1 1.00
                  0.55                   1

22 0
 s    3 1.00
                 13.01   0.033498726389998
                 1.962    0.23480080117413
                0.4446     0.8136829578829
 s    1 1.00
                 0.122                   1
 p    1 1.00
                 0.727                   1

23 0
 s    3 1.00
                 13.01   0.033498726389998
                 1.962    0.23480080117413
                0.4446     0.8136829578829
 s    1 1.00
                 0.122                   1
 p    1 1.00
                 0.727                   1

24 0
 s    3 1.00
                 13.01   0.033498726389998
                 1.962    0.23480080117413
                0.4446     0.8136829578829
 s    1 1.00
                 0.122                   1
 p    1 1.00
                 0.727                   1

25 0
 s    8 1.00
                  6665  0.00069158396281299
                  1000  0.0053257961529341
                   228   0.027060721042034
                 64.71    0.10165684614077
                 21.06     0.2745748236174
                 7.495    0.44829431892377
                 2.797    0.28490261071525
                0.5215   0.015194859206082
 s    8 1.00
                  6665  -0.00029326965268655
                  1000  -0.0023180354739745
                   228  -0.011499786038565
                 64.71  -0.046826727009787
                 21.06   -0.12846616875047
                 7.495   -0.30126627246289
                 2.797   -0.25563070233011
                0.5215      1.093793361012
 s    1 1.00
                0.1596                   1
 p    3 1.00
                 9.439   0.056979251590039
                 2.002    0.31320721150073
                0.5456    0.76037674173753
 p    1 1.00
                0.1517                   1
 d    1 1.00
                  0.55                   1

26 0
 s    3 1.00
                 13.01   0.033498726389998
                 1.962    0.23480080117413
                0.4446     0.8136829578829
 s    1 1.00
                 0.122                   1
 p    1 1.00
                 0.727                   1

27 0
 s    3 1.00
                 13.01   0.033498726389998
                 1.962    0.23480080117413
                0.4446     0.8136829578829
 s    1 1.00
                 0.122                   1
 p    1 1.00
                 0.727                   1

28 0
 s    8 1.00
                  6665  0.00069158396281299
                  1000  0.0053257961529341
                   228   0.027060721042034
                 64.71    0.10165684614077
                 21.06     0.2745748236174
                 7.495    0.44829431892377
                 2.797    0.28490261071525
                0.5215   0.015194859206082
 s    8 1.00
                  6665  -0.00029326965268655
                  1000  -0.0023180354739745
                   228  -0.011499786038565
                 64.71  -0.046826727009787
                 21.06   -0.12846616875047
                 7.495   -0.30126627246289
                 2.797   -0.25563070233011
                0.5215      1.093793361012
 s    1 1.00
                0.1596                   1
 p    3 1.00
                 9.439   0.056979251590039
                 2.002    0.31320721150073
                0.5456    0.76037674173753
 p    1 1.00
                0.1517                   1
 d    1 1.00
                  0.55                   1

29 0
 s    3 1.00
                 13.01   0.033498726389998
                 1.962    0.23480080117413
                0.4446     0.8136829578829
 s    1 1.00
                 0.122                   1
 p    1 1.00
                 0.727                   1

30 0
 s    3 1.00
                 13.01   0.033498726389998
                 1.962    0.23480080117413
                0.4446     0.8136829578829
 s    1 1.00
                 0.122                   1
 p    1 1.00
                 0.727                   1

31 0
 s    8 1.00
                  6665  0.00069158396281299
                  1000  0.0053257961529341
                   228   0.027060721042034
                 64.71    0.10165684614077
                 21.06     0.2745748236174
                 7.495    0.44829431892377
                 2.797    0.28490261071525
                0.5215   0.015194859206082
 s    8 1.00
                  6665  -0.00029326965268655
                  1000  -0.0023180354739745
                   228  -0.011499786038565
                 64.71  -0.046826727009787
                 21.06   -0.12846616875047
                 7.495   -0.30126627246289
                 2.797   -0.25563070233011
                0.5215      1.093793361012
 s    1 1.00
                0.1596                   1
 p    3 1.00
                 9.439   0.056979251590039
                 2.002    0.31320721150073
                0.5456    0.76037674173753
 p    1 1.00
                0.1517                   1
 d    1 1.00
                  0.55                   1

32 0
 s    3 1.00
                 13.01   0.033498726389998
                 1.962    0.23480080117413
                0.4446     0.8136829578829
 s    1 1.00
                 0.122                   1
 p    1 1.00
                 0.727                   1

33 0
 s    3 1.00
                 13.01   0.033498726389998
                 1.962    0.23480080117413
                0.4446     0.8136829578829
 s    1 1.00
                 0.122                   1
 p    1 1.00
                 0.727                   1

34 0
 s    3 1.00
                 13.01   0.033498726389998
                 1.962    0.23480080117413
                0.4446     0.8136829578829
 s    1 1.00
                 0.122                   1
 p    1 1.00
                 0.727                   1

35 0
 s    3 1.00
                 13.01   0.033498726389998
                 1.962    0.23480080117413
                0.4446     0.8136829578829
 s    1 1.00
                 0.122                   1
 p    1 1.00
                 0.727                   1

36 0
 s    3 1.00
                 13.01   0.033498726389998
                 1.962    0.23480080117413
                0.4446     0.8136829578829
 s    1 1.00
                 0.122                   1
 p    1 1.00
                 0.727                   1

37 0
 s    3 1.00
                 13.01   0.033498726389998
                 1.962    0.23480080117413
                0.4446     0.8136829578829
 s    1 1.00
                 0.122                   1
 p    1 1.00
                 0.727                   1

[5d]
[7f]
[9g]

[MO]
 Sym= A
 Ene=               0
 Spin= Alpha
 Occup=    1.00000
   1    -1.7425991253787e-06
   2    1.062152928488e-05
   3    -4.9098160559449e-06
   4    8.0127653242819e-06
   5    2.1672764178421e-05
   6    -4.2509651620932e-05
   7    6.3800195146366e-06
   8    1.6087308799763e-05
   9    -3.0779280791839e-05
  10    -2.4966407741707e-07
  11    -1.8063164213816e-06
  12    8.090283658291e-07
  13    -1.1841340606295e-06
  14    9.6824908259492e-08
  15    5.1877371699734e-06
  16    2.4209020786757e-05
  17    -2.2738130264245e-06
  18    -1.2919075876444e-06
  19    5.4005694395812e-06
  20    1.4201624260444e-05
  21    -1.3867060011171e-05
  22    2.3802923554842e-07
  23    -7.8422780996573e-07
  24    8.7701412930886e-07
  25    7.8886375787946e-06
  26    0.00024343033980029
  27    0.00012789913534421
  28    0.00028963907898811
  29    -0.00085592871553422
  30    -0.00036555260673536
  31    0.00025876533360227
  32    -0.00067244258479543
  33    -0.000202966659222
  34    2.4795488529441e-05
  35    5.3337741187843e-06
  36    4.9090413645469e-05
  37    5.0141392509392e-06
  38    2.9925218831332e-06
  39    0.00072649521754518
  40    0.00052069720158593
  41    0.00056766165216015
  42    6.5862208657881e-05
  43    -0.00043329674419264
  44    0.00016155795979439
  45    -0.00013668414464739
  46    0.00014113053327461
  47    -0.00011177069432774
  48    6.825713556504e-05
  49    7.1061564161093e-05
  50    -3.6135224523038e-05
  51    3.6118469914488e-05
  52    -3.2132511605403e-05
  53      0.04035503617322
  54    0.00037634594103545
  55    -0.003272074034946
  56    -0.00018425967966506
  57    2.5595379600099e-06
  58    0.00015239426051186
  59    -0.00087858776324899
  60    -0.00085525786566142
  61    0.00094485464054443
  62    1.318006235454e-05
  63    -0.0001360994073977
  64    -0.00014544613593445
  65    -2.3880505646216e-05
  66    0.00010600915793219
  67    0.0090267229698034
  68    0.00015118427396417
  69    -0.00059227907050649
  70    5.0810023552653e-05
  71    2.1966941107452e-07
  72    1.865763415603e-05
  73    -0.00044182049699181
  74    -0.00017407169397228
  75    -2.2880292339749e-05
  76    -3.4617694791996e-06
  77    -1.0854035455607e-05
  78    3.9901574179056e-05
  79    1.7088731556418e-05
  80    -1.0441018732979e-05
  81    0.00014004865079731
  82    -1.1675330424347e-05
  83    -2.5316162380472e-05
  84    -2.7354299800295e-05
  85    5.954134680455e-05
  86      -1.0014558365438
  87    -0.0052334494956304
  88     0.012849654975266
  89    0.00015921203931672
  90    -0.00015402792917474
  91    -6.639181507309e-05
  92    0.00054372859380341
  93    -0.001577247176752
  94    4.2089302414772e-05
  95    -1.7900223896881e-05
  96    -0.00032426311677212
  97    -4.1305498450652e-05
  98    8.7019087473101e-05
  99    -6.6629289766251e-05
 100    0.00012507529892631
 101    -0.00018450051143025
 102    -5.6317953683655e-05
 103    -6.2893756435477e-05
 104    3.441760792176e-05
 105    -5.7531049711645e-05
 106    3.7906147546363e-05
 107    6.0648453350351e-05
 108    8.472999431873e-07
 109    -1.5238698782641e-05
 110    0.0001079802614793
 111    0.00046518100328008
 112    9.5691240931358e-07
 113    -3.6523648201572e-05
 114    1.458411305507e-05
 115    0.0014970361780394
 116    3.0068710838766e-05
 117    -6.0795803350331e-06
 118    -5.2394919830687e-06
 119    5.5874291770235e-06
 120    4.0640430174833e-06
 121    -2.5316229305272e-07
 122    0.00023347795616907
 123    0.00012384892693271
 124    -2.0603911837001e-06
 125    1.348341532913e-05
 126    -1.2390429288636e-05
 127    -2.2901113599122e-06
 128    1.4905919965367e-05
 129    -0.00021400483293984
 130    -0.0012357204400668
 131    -0.00021932747706497
 132    -0.00028563186031258
 133    -0.00023995260789478
 134    -0.00022011590778627
 135    -0.0013674584213773
 136    0.00026082643853393
 137    -7.188866154456e-05
 138    0.00032103916125838
 139    -0.025465247650743
 140    9.3361941143141e-05
 141    -0.0035502865544255
 142    0.0001173180152948
 143    -5.5151532384607e-05
 144    -7.9777541854808e-05
 145    0.0013448575145205
 146    -0.0010494735334792
 147    -0.00074028067296086
 148    -3.5105599865251e-05
 149    -4.5974406647831e-05
 150    3.8902018560253e-05
 151    2.6182727534126e-06
 152    -8.5434752177884e-05
 153    -2.106289583255e-05
 154    -0.00014643551141255
 155    2.3446650429595e-06
 156    3.3869160468024e-06
 157    3.7282018348961e-06
 158    1.750382082386e-05
 159    2.846118396039e-05
 160    -6.6495976263542e-06
 161    -1.0073441060881e-05
 162    -6.409281774149e-06
 163    -0.00049058486667661
 164    -1.5266111148111e-05
 165    0.00014766009290177
 166    1.4942668717261e-05
 167    -4.0625260786608e-06
 168    -6.6237849926983e-06
 169    -0.00020914243798918
 170    2.0562132736496e-05
 171    1.9573292790588e-05
 172    -2.1841393950015e-06
 173    -1.666444701711e-05
 174    3.5947379263711e-06
 175    -2.1443263872186e-06
 176    -2.4976540117417e-07
 177    0.00012524674923219
 178    -0.00023465160537013
 179    5.3991199039892e-05
 180    -2.4752889654706e-05
 181    -1.6878357654103e-05
 182    4.2887447895302e-05
 183    6.0910960673308e-05
 184    0.00056681681285071
 185    -5.5816849358245e-05
 186    -6.3486756130902e-06
 187    5.1237308793664e-05
 188    0.00020731001234668
 189    -0.00050559465399508
 190    1.8804188785062e-05
 191    2.2217826806014e-05
 192    8.7586094080304e-06
 193    -3.0676532791256e-05
 194    7.1366551280274e-07
 195    5.3020148344423e-05
 196    0.00012570606792984
 197    -0.0001898331258677
 198    3.7848356854409e-05
 199    -2.9868914827852e-05
 200    -3.7290315491322e-05
 201    1.5182671446191e-06
 202    -5.8156830695455e-05
 203    9.1338141280517e-06
 204    -3.8379040771707e-06
 205    -5.6179305290459e-06
 206    1.7425114991496e-05
 207    -4.6972359949957e-05
 208    8.1636364413714e-06
 209    3.8606483688195e-06
 210    -4.0300996678535e-06
 211    8.148554838474e-05
 212    2.2219795727144e-05
 213    -0.00021582946987211
 214    -1.2642045898774e-05
 215    3.5050504715126e-06
 216    7.2658113625576e-06
 217    -6.2362630497438e-05
 218    6.4146235881935e-05
 219    4.7788946079687e-05
 220    -1.1634816660689e-06
 221    7.7791992867798e-06
 222    -6.3913212209672e-06
 223    -2.5232672047963e-06
 224    5.497426826613e-06
 225    1.5169744970108e-05
 226    0.0002424955337084
 227    -5.6686059785848e-05
 228    1.0854748927078e-05
 229    1.1735049520074e-05
 230    1.341176949867e-05
 231    0.00027397122691871
 232    -2.6901225847621e-05
 233    2.2391519631842e-05
 234    5.2080374909054e-05
 235    4.8955713187818e-05
 236    0.00015937537702784
 237    -0.00075516618522449
 238    -1.2206918848837e-05
 239    -1.2250626267238e-05
 240    1.4334463331163e-05
 241    0.00041928434329997
 242    5.5834325389431e-05
 243    -0.00037749979067552
 244    -5.847522898501e-06
 245    2.0539858312447e-05
 246    -2.9980023517018e-06
 247    -1.6714154271263e-05
 248    -1.4652865631885e-06
 249    6.4598614614539e-06
 250    8.8878926109094e-06
 251    6.4013929687019e-07
 252    -2.7031000545199e-06
 253    -1.5757610743893e-06
 254    1.3821696231441e-05
 255    1.9111593026695e-05
 256    1.5866423993953e-06
 257    -5.6430518808476e-08
 258    -1.6916255553686e-06
 259    2.0964528411475e-05
 260    1.055036504363e-05
 261    -2.0496823193534e-05
 262    4.4056341603253e-06
 263    -2.4083751789623e-06