[Molden Format]
made by pyscf v[2.0.1]
[Atoms] (AU)
O   1   8     0.00000000000000     0.00000000000000    10.18586013564153
H   2   1     0.00000000000000     0.00000000000000     8.36245831374057
H   3   1    -0.05031916615174     1.78353065140343    10.56173183210820
O   4   8     0.00000000000000     0.00000000000000     2.31533471513237
C   5   6     0.00000000000000     0.00000000000000     0.00000000000000
C   6   6     2.01118073026938    -1.40227222164369    -1.50774939176400
C   7   6    -2.01249334291722     1.41331050329955    -1.50315905028694
H   8   1     3.32037363730244    -2.26721897153159    -0.13599698591495
C   9   6     3.45899267434009     0.28739631745591    -3.37437943254505
H   10   1     1.07662969841332    -2.94725144642667    -2.56541439481080
H   11   1    -2.67503415753480     0.18421555839588    -3.06194479365997
H   12   1    -1.07974048864772     3.03851734677796    -2.43674295017013
C   13   6    -4.21607110578555     2.32938802552922     0.11994162256091
H   14   1     4.24440173074564     1.93368664142019    -2.34976285512790
H   15   1     2.15020713235517     1.04714335134846    -4.81494497423699
C   16   6     5.60746363007797    -1.12419643481196    -4.70268606082550
H   17   1    -3.46838323670267     3.50951302338067     1.66946842715333
H   18   1    -5.11873485366228     0.68575958301209     1.04047743976495
C   19   6    -6.18314754751344     3.80909592987882    -1.39656589068747
H   20   1     6.93011263717176    -1.87550812453645    -3.26656317360070
C   21   6     7.06356622236532     0.52877932406334    -6.57829775293605
H   22   1     4.82318879258361    -2.78573437948532    -5.70504560381835
H   23   1    -6.91582688743803     2.61304780074712    -2.95074552451969
H   24   1    -5.26532430573853     5.45420349051338    -2.31005832200284
C   25   6    -8.39941882261433     4.73263980500213     0.21800571437956
H   26   1     7.83338371486801     2.19084139882824    -5.57093109900697
H   27   1     5.73544244039420     1.27376866537418    -8.01071492370229
C   28   6     9.21124858443101    -0.89699110072176    -7.88926949186242
H   29   1    -7.66272760055236     5.92277078003992     1.77035591474408
H   30   1    -9.31497248082589     3.08753015622020     1.12614408368786
C   31   6   -10.35481709231879     6.21833079391143    -1.30905206253246
H   32   1    10.58815905329501    -1.61074586756696    -6.49512691622620
H   33   1    10.23506248045667     0.32468009384095    -9.23072870921204
H   34   1     8.47665842847139    -2.53598436989925    -8.94921964622535
H   35   1    -9.48948872868064     7.90013588951020    -2.18823918416067
H   36   1   -11.93332513000955     6.86460487874102    -0.11255798845995
H   37   1   -11.15126291841033     5.04495968327630    -2.83849898862534
[GTO]
1 0
 s    8 1.00
                 11720  0.00070964594651845
                  1759  0.0054672722921914
                 400.8   0.027823118610189
                 113.7    0.10474773971146
                 37.03    0.28292084635691
                 13.27    0.44849523869833
                 5.025    0.27081688521277
                 1.013    0.01545029160744
 s    8 1.00
                 11720  -0.00031444341168873
                  1759  -0.0024821376810179
                 400.8  -0.012316355381583
                 113.7  -0.050538917343672
                 37.03   -0.13938490331632
                 13.27   -0.32507749481778
                 5.025   -0.22984830758785
                 1.013     1.0953793467883
 s    1 1.00
                0.3023                   1
 p    3 1.00
                  17.7   0.062679166281506
                 3.854    0.33353656587936
                 1.046    0.74123964163973
 p    1 1.00
                0.2753                   1
 d    1 1.00
                 1.185                   1

2 0
 s    3 1.00
                 13.01   0.033498726389998
                 1.962    0.23480080117413
                0.4446     0.8136829578829
 s    1 1.00
                 0.122                   1
 p    1 1.00
                 0.727                   1

3 0
 s    3 1.00
                 13.01   0.033498726389998
                 1.962    0.23480080117413
                0.4446     0.8136829578829
 s    1 1.00
                 0.122                   1
 p    1 1.00
                 0.727                   1

4 0
 s    8 1.00
                 11720  0.00070964594651845
                  1759  0.0054672722921914
                 400.8   0.027823118610189
                 113.7    0.10474773971146
                 37.03    0.28292084635691
                 13.27    0.44849523869833
                 5.025    0.27081688521277
                 1.013    0.01545029160744
 s    8 1.00
                 11720  -0.00031444341168873
                  1759  -0.0024821376810179
                 400.8  -0.012316355381583
                 113.7  -0.050538917343672
                 37.03   -0.13938490331632
                 13.27   -0.32507749481778
                 5.025   -0.22984830758785
                 1.013     1.0953793467883
 s    1 1.00
                0.3023                   1
 p    3 1.00
                  17.7   0.062679166281506
                 3.854    0.33353656587936
                 1.046    0.74123964163973
 p    1 1.00
                0.2753                   1
 d    1 1.00
                 1.185                   1

5 0
 s    8 1.00
                  6665  0.00069158396281299
                  1000  0.0053257961529341
                   228   0.027060721042034
                 64.71    0.10165684614077
                 21.06     0.2745748236174
                 7.495    0.44829431892377
                 2.797    0.28490261071525
                0.5215   0.015194859206082
 s    8 1.00
                  6665  -0.00029326965268655
                  1000  -0.0023180354739745
                   228  -0.011499786038565
                 64.71  -0.046826727009787
                 21.06   -0.12846616875047
                 7.495   -0.30126627246289
                 2.797   -0.25563070233011
                0.5215      1.093793361012
 s    1 1.00
                0.1596                   1
 p    3 1.00
                 9.439   0.056979251590039
                 2.002    0.31320721150073
                0.5456    0.76037674173753
 p    1 1.00
                0.1517                   1
 d    1 1.00
                  0.55                   1

6 0
 s    8 1.00
                  6665  0.00069158396281299
                  1000  0.0053257961529341
                   228   0.027060721042034
                 64.71    0.10165684614077
                 21.06     0.2745748236174
                 7.495    0.44829431892377
                 2.797    0.28490261071525
                0.5215   0.015194859206082
 s    8 1.00
                  6665  -0.00029326965268655
                  1000  -0.0023180354739745
                   228  -0.011499786038565
                 64.71  -0.046826727009787
                 21.06   -0.12846616875047
                 7.495   -0.30126627246289
                 2.797   -0.25563070233011
                0.5215      1.093793361012
 s    1 1.00
                0.1596                   1
 p    3 1.00
                 9.439   0.056979251590039
                 2.002    0.31320721150073
                0.5456    0.76037674173753
 p    1 1.00
                0.1517                   1
 d    1 1.00
                  0.55                   1

7 0
 s    8 1.00
                  6665  0.00069158396281299
                  1000  0.0053257961529341
                   228   0.027060721042034
                 64.71    0.10165684614077
                 21.06     0.2745748236174
                 7.495    0.44829431892377
                 2.797    0.28490261071525
                0.5215   0.015194859206082
 s    8 1.00
                  6665  -0.00029326965268655
                  1000  -0.0023180354739745
                   228  -0.011499786038565
                 64.71  -0.046826727009787
                 21.06   -0.12846616875047
                 7.495   -0.30126627246289
                 2.797   -0.25563070233011
                0.5215      1.093793361012
 s    1 1.00
                0.1596                   1
 p    3 1.00
                 9.439   0.056979251590039
                 2.002    0.31320721150073
                0.5456    0.76037674173753
 p    1 1.00
                0.1517                   1
 d    1 1.00
                  0.55                   1

8 0
 s    3 1.00
                 13.01   0.033498726389998
                 1.962    0.23480080117413
                0.4446     0.8136829578829
 s    1 1.00
                 0.122                   1
 p    1 1.00
                 0.727                   1

9 0
 s    8 1.00
                  6665  0.00069158396281299
                  1000  0.0053257961529341
                   228   0.027060721042034
                 64.71    0.10165684614077
                 21.06     0.2745748236174
                 7.495    0.44829431892377
                 2.797    0.28490261071525
                0.5215   0.015194859206082
 s    8 1.00
                  6665  -0.00029326965268655
                  1000  -0.0023180354739745
                   228  -0.011499786038565
                 64.71  -0.046826727009787
                 21.06   -0.12846616875047
                 7.495   -0.30126627246289
                 2.797   -0.25563070233011
                0.5215      1.093793361012
 s    1 1.00
                0.1596                   1
 p    3 1.00
                 9.439   0.056979251590039
                 2.002    0.31320721150073
                0.5456    0.76037674173753
 p    1 1.00
                0.1517                   1
 d    1 1.00
                  0.55                   1

10 0
 s    3 1.00
                 13.01   0.033498726389998
                 1.962    0.23480080117413
                0.4446     0.8136829578829
 s    1 1.00
                 0.122                   1
 p    1 1.00
                 0.727                   1

11 0
 s    3 1.00
                 13.01   0.033498726389998
                 1.962    0.23480080117413
                0.4446     0.8136829578829
 s    1 1.00
                 0.122                   1
 p    1 1.00
                 0.727                   1

12 0
 s    3 1.00
                 13.01   0.033498726389998
                 1.962    0.23480080117413
                0.4446     0.8136829578829
 s    1 1.00
                 0.122                   1
 p    1 1.00
                 0.727                   1

13 0
 s    8 1.00
                  6665  0.00069158396281299
                  1000  0.0053257961529341
                   228   0.027060721042034
                 64.71    0.10165684614077
                 21.06     0.2745748236174
                 7.495    0.44829431892377
                 2.797    0.28490261071525
                0.5215   0.015194859206082
 s    8 1.00
                  6665  -0.00029326965268655
                  1000  -0.0023180354739745
                   228  -0.011499786038565
                 64.71  -0.046826727009787
                 21.06   -0.12846616875047
                 7.495   -0.30126627246289
                 2.797   -0.25563070233011
                0.5215      1.093793361012
 s    1 1.00
                0.1596                   1
 p    3 1.00
                 9.439   0.056979251590039
                 2.002    0.31320721150073
                0.5456    0.76037674173753
 p    1 1.00
                0.1517                   1
 d    1 1.00
                  0.55                   1

14 0
 s    3 1.00
                 13.01   0.033498726389998
                 1.962    0.23480080117413
                0.4446     0.8136829578829
 s    1 1.00
                 0.122                   1
 p    1 1.00
                 0.727                   1

15 0
 s    3 1.00
                 13.01   0.033498726389998
                 1.962    0.23480080117413
                0.4446     0.8136829578829
 s    1 1.00
                 0.122                   1
 p    1 1.00
                 0.727                   1

16 0
 s    8 1.00
                  6665  0.00069158396281299
                  1000  0.0053257961529341
                   228   0.027060721042034
                 64.71    0.10165684614077
                 21.06     0.2745748236174
                 7.495    0.44829431892377
                 2.797    0.28490261071525
                0.5215   0.015194859206082
 s    8 1.00
                  6665  -0.00029326965268655
                  1000  -0.0023180354739745
                   228  -0.011499786038565
                 64.71  -0.046826727009787
                 21.06   -0.12846616875047
                 7.495   -0.30126627246289
                 2.797   -0.25563070233011
                0.5215      1.093793361012
 s    1 1.00
                0.1596                   1
 p    3 1.00
                 9.439   0.056979251590039
                 2.002    0.31320721150073
                0.5456    0.76037674173753
 p    1 1.00
                0.1517                   1
 d    1 1.00
                  0.55                   1

17 0
 s    3 1.00
                 13.01   0.033498726389998
                 1.962    0.23480080117413
                0.4446     0.8136829578829
 s    1 1.00
                 0.122                   1
 p    1 1.00
                 0.727                   1

18 0
 s    3 1.00
                 13.01   0.033498726389998
                 1.962    0.23480080117413
                0.4446     0.8136829578829
 s    1 1.00
                 0.122                   1
 p    1 1.00
                 0.727                   1

19 0
 s    8 1.00
                  6665  0.00069158396281299
                  1000  0.0053257961529341
                   228   0.027060721042034
                 64.71    0.10165684614077
                 21.06     0.2745748236174
                 7.495    0.44829431892377
                 2.797    0.28490261071525
                0.5215   0.015194859206082
 s    8 1.00
                  6665  -0.00029326965268655
                  1000  -0.0023180354739745
                   228  -0.011499786038565
                 64.71  -0.046826727009787
                 21.06   -0.12846616875047
                 7.495   -0.30126627246289
                 2.797   -0.25563070233011
                0.5215      1.093793361012
 s    1 1.00
                0.1596                   1
 p    3 1.00
                 9.439   0.056979251590039
                 2.002    0.31320721150073
                0.5456    0.76037674173753
 p    1 1.00
                0.1517                   1
 d    1 1.00
                  0.55                   1

20 0
 s    3 1.00
                 13.01   0.033498726389998
                 1.962    0.23480080117413
                0.4446     0.8136829578829
 s    1 1.00
                 0.122                   1
 p    1 1.00
                 0.727                   1

21 0
 s    8 1.00
                  6665  0.00069158396281299
                  1000  0.0053257961529341
                   228   0.027060721042034
                 64.71    0.10165684614077
                 21.06     0.2745748236174
                 7.495    0.44829431892377
                 2.797    0.28490261071525
                0.5215   0.015194859206082
 s    8 1.00
                  6665  -0.00029326965268655
                  1000  -0.0023180354739745
                   228  -0.011499786038565
                 64.71  -0.046826727009787
                 21.06   -0.12846616875047
                 7.495   -0.30126627246289
                 2.797   -0.25563070233011
                0.5215      1.093793361012
 s    1 1.00
                0.1596                   1
 p    3 1.00
                 9.439   0.056979251590039
                 2.002    0.31320721150073
                0.5456    0.76037674173753
 p    1 1.00
                0.1517                   1
 d    1 1.00
                  0.55                   1

22 0
 s    3 1.00
                 13.01   0.033498726389998
                 1.962    0.23480080117413
                0.4446     0.8136829578829
 s    1 1.00
                 0.122                   1
 p    1 1.00
                 0.727                   1

23 0
 s    3 1.00
                 13.01   0.033498726389998
                 1.962    0.23480080117413
                0.4446     0.8136829578829
 s    1 1.00
                 0.122                   1
 p    1 1.00
                 0.727                   1

24 0
 s    3 1.00
                 13.01   0.033498726389998
                 1.962    0.23480080117413
                0.4446     0.8136829578829
 s    1 1.00
                 0.122                   1
 p    1 1.00
                 0.727                   1

25 0
 s    8 1.00
                  6665  0.00069158396281299
                  1000  0.0053257961529341
                   228   0.027060721042034
                 64.71    0.10165684614077
                 21.06     0.2745748236174
                 7.495    0.44829431892377
                 2.797    0.28490261071525
                0.5215   0.015194859206082
 s    8 1.00
                  6665  -0.00029326965268655
                  1000  -0.0023180354739745
                   228  -0.011499786038565
                 64.71  -0.046826727009787
                 21.06   -0.12846616875047
                 7.495   -0.30126627246289
                 2.797   -0.25563070233011
                0.5215      1.093793361012
 s    1 1.00
                0.1596                   1
 p    3 1.00
                 9.439   0.056979251590039
                 2.002    0.31320721150073
                0.5456    0.76037674173753
 p    1 1.00
                0.1517                   1
 d    1 1.00
                  0.55                   1

26 0
 s    3 1.00
                 13.01   0.033498726389998
                 1.962    0.23480080117413
                0.4446     0.8136829578829
 s    1 1.00
                 0.122                   1
 p    1 1.00
                 0.727                   1

27 0
 s    3 1.00
                 13.01   0.033498726389998
                 1.962    0.23480080117413
                0.4446     0.8136829578829
 s    1 1.00
                 0.122                   1
 p    1 1.00
                 0.727                   1

28 0
 s    8 1.00
                  6665  0.00069158396281299
                  1000  0.0053257961529341
                   228   0.027060721042034
                 64.71    0.10165684614077
                 21.06     0.2745748236174
                 7.495    0.44829431892377
                 2.797    0.28490261071525
                0.5215   0.015194859206082
 s    8 1.00
                  6665  -0.00029326965268655
                  1000  -0.0023180354739745
                   228  -0.011499786038565
                 64.71  -0.046826727009787
                 21.06   -0.12846616875047
                 7.495   -0.30126627246289
                 2.797   -0.25563070233011
                0.5215      1.093793361012
 s    1 1.00
                0.1596                   1
 p    3 1.00
                 9.439   0.056979251590039
                 2.002    0.31320721150073
                0.5456    0.76037674173753
 p    1 1.00
                0.1517                   1
 d    1 1.00
                  0.55                   1

29 0
 s    3 1.00
                 13.01   0.033498726389998
                 1.962    0.23480080117413
                0.4446     0.8136829578829
 s    1 1.00
                 0.122                   1
 p    1 1.00
                 0.727                   1

30 0
 s    3 1.00
                 13.01   0.033498726389998
                 1.962    0.23480080117413
                0.4446     0.8136829578829
 s    1 1.00
                 0.122                   1
 p    1 1.00
                 0.727                   1

31 0
 s    8 1.00
                  6665  0.00069158396281299
                  1000  0.0053257961529341
                   228   0.027060721042034
                 64.71    0.10165684614077
                 21.06     0.2745748236174
                 7.495    0.44829431892377
                 2.797    0.28490261071525
                0.5215   0.015194859206082
 s    8 1.00
                  6665  -0.00029326965268655
                  1000  -0.0023180354739745
                   228  -0.011499786038565
                 64.71  -0.046826727009787
                 21.06   -0.12846616875047
                 7.495   -0.30126627246289
                 2.797   -0.25563070233011
                0.5215      1.093793361012
 s    1 1.00
                0.1596                   1
 p    3 1.00
                 9.439   0.056979251590039
                 2.002    0.31320721150073
                0.5456    0.76037674173753
 p    1 1.00
                0.1517                   1
 d    1 1.00
                  0.55                   1

32 0
 s    3 1.00
                 13.01   0.033498726389998
                 1.962    0.23480080117413
                0.4446     0.8136829578829
 s    1 1.00
                 0.122                   1
 p    1 1.00
                 0.727                   1

33 0
 s    3 1.00
                 13.01   0.033498726389998
                 1.962    0.23480080117413
                0.4446     0.8136829578829
 s    1 1.00
                 0.122                   1
 p    1 1.00
                 0.727                   1

34 0
 s    3 1.00
                 13.01   0.033498726389998
                 1.962    0.23480080117413
                0.4446     0.8136829578829
 s    1 1.00
                 0.122                   1
 p    1 1.00
                 0.727                   1

35 0
 s    3 1.00
                 13.01   0.033498726389998
                 1.962    0.23480080117413
                0.4446     0.8136829578829
 s    1 1.00
                 0.122                   1
 p    1 1.00
                 0.727                   1

36 0
 s    3 1.00
                 13.01   0.033498726389998
                 1.962    0.23480080117413
                0.4446     0.8136829578829
 s    1 1.00
                 0.122                   1
 p    1 1.00
                 0.727                   1

37 0
 s    3 1.00
                 13.01   0.033498726389998
                 1.962    0.23480080117413
                0.4446     0.8136829578829
 s    1 1.00
                 0.122                   1
 p    1 1.00
                 0.727                   1

[5d]
[7f]
[9g]

[MO]
 Sym= A
 Ene=               0
 Spin= Alpha
 Occup=    1.00000
   1    -5.4770772303482e-07
   2    3.730188050306e-07
   3    3.1957255347435e-06
   4    7.0320423201341e-08
   5    4.2202055177232e-08
   6    -1.8088544093699e-06
   7    7.3692553403412e-08
   8    -9.0928507202254e-08
   9    -2.0913421992314e-06
  10    -3.3470627988681e-08
  11    3.4377807545045e-09
  12    -6.0118761726579e-08
  13    -7.7452873938074e-09
  14    1.027038060491e-09
  15    1.1008222324602e-06
  16    -5.1288703380279e-06
  17    8.0565781692735e-08
  18    -2.8147948492639e-07
  19    6.6973237112482e-07
  20    2.372571870448e-08
  21    -9.570114237957e-08
  22    -2.9393272019099e-09
  23    1.3724684112346e-07
  24    -6.0057454926034e-08
  25    6.1056013303704e-06
  26    0.00020758133294661
  27    8.4732972714494e-05
  28    0.00028008973559662
  29    -0.00087116223688909
  30    -0.00035025463417654
  31    0.00023664441553006
  32    -0.00066718254033286
  33    -0.00016935545609571
  34    2.501517242601e-05
  35    3.709036146476e-06
  36    5.5954664332151e-05
  37    4.500111475667e-06
  38    3.5178473477704e-06
  39    0.00072998794705374
  40    0.00059717718073833
  41    0.0006361938891496
  42    7.6674309257591e-05
  43    -0.00048091269048924
  44    8.3948678447643e-05
  45    -0.00010604340633679
  46    7.7223122452208e-05
  47    -0.00012943262674372
  48    6.3062425687504e-05
  49    6.6170489652088e-05
  50    -3.8790848781608e-05
  51    3.8580149526104e-05
  52    -4.019588020411e-05
  53     0.034322755546695
  54    0.00039556956535628
  55    -0.0032114186135511
  56    -0.00023767665577584
  57    3.8436962559555e-05
  58    0.00019116769307722
  59    -0.00089347266075152
  60    -0.00083229117243322
  61    0.00094560469384616
  62    9.3615076117325e-06
  63    -0.00013601478540752
  64    -0.00013913628241564
  65    -2.0598068193093e-05
  66    9.7059376388527e-05
  67     0.004802324292125
  68    0.00014614034405682
  69    -0.0005086205846954
  70    7.4114200875342e-05
  71    -1.8824903233745e-05
  72    3.6323992432903e-05
  73    -0.00043053723546833
  74    -0.00017578303241151
  75    1.1060321083373e-06
  76    -6.003839783114e-06
  77    -9.8369826460378e-06
  78    3.6988474940431e-05
  79    1.7363463968972e-05
  80    -1.5113970851589e-05
  81    0.00013637774645956
  82    -1.8769468912635e-05
  83    -2.7534573517478e-05
  84    -2.659366550665e-05
  85    5.8490072369575e-05
  86      -1.0014970525882
  87    -0.0052332659450918
  88     0.012799061751468
  89    0.00013901088740027
  90    -0.00016755962997246
  91    -4.3029883976802e-05
  92    0.00055654180073473
  93    -0.0015560792104109
  94    2.5400182001723e-05
  95    -1.7742182488315e-05
  96    -0.00032876263560647
  97    -4.16669495142e-05
  98    8.8301222986875e-05
  99    -6.6589815909632e-05
 100    0.00011956609493448
 101    -0.00020338158964099
 102    -5.5277282550596e-05
 103    -6.0472932798407e-05
 104    3.6686264852896e-05
 105    -6.343256838585e-05
 106    2.4454006704056e-05
 107    6.1486575496719e-05
 108    2.1346411039105e-06
 109    -1.3598417191727e-05
 110    0.00010511184479823
 111    0.00046059212477889
 112    1.0414531855793e-06
 113    -3.8821356985761e-05
 114    1.5277338653343e-05
 115    0.0019395383236323
 116    3.3171704139513e-05
 117    -2.7969814349061e-05
 118    -7.2536426925553e-06
 119    8.7123958621547e-06
 120    3.7681641836902e-06
 121    -1.1589875299772e-05
 122    0.00023705467271741
 123    0.00012980723089124
 124    -2.9395311661229e-06
 125    1.3890391905936e-05
 126    -1.2432335903757e-05
 127    -1.9313860673308e-06
 128    1.3726486950141e-05
 129    -0.00021191345870428
 130    -0.0012453879935301
 131    -0.00022071744999716
 132    -0.00028737373096158
 133    -0.00024105492421847
 134    -0.00021795167596697
 135    -0.0013726155635086
 136    0.00026240178678035
 137    -7.2657101687096e-05
 138    0.00032329842216561
 139    -0.032635118180242
 140    5.7651870741033e-05
 141    -0.0034449598735349
 142    0.00011071170069847
 143    -5.0786731872532e-05
 144    -7.6196293219112e-05
 145    0.0013315675825723
 146    -0.0010316236166168
 147    -0.00073461476692468
 148    -3.6428954229035e-05
 149    -5.1382041278142e-05
 150    4.0704742907554e-05
 151    4.2802151282944e-06
 152    -8.9746952228827e-05
 153    -2.0484549656826e-05
 154    -0.00015195772562717
 155    2.0918807490477e-06
 156    3.8393987195247e-06
 157    4.0440949986248e-06
 158    1.5797116783854e-05
 159    2.9018563866561e-05
 160    -6.5615160680252e-06
 161    -1.0099765627799e-05
 162    -6.0591802112516e-06
 163    -0.00064557194143878
 164    -1.3906202971822e-05
 165    0.00015411648020706
 166    1.7814945779578e-05
 167    -6.4038376368137e-06
 168    -5.8289820834494e-06
 169    -0.00020637762760348
 170    2.1784666243437e-05
 171    2.2178774722854e-05
 172    -2.4049941405894e-06
 173    -1.6487781686792e-05
 174    3.6860896216321e-06
 175    -2.0095999598053e-06
 176    -8.659621294579e-08
 177    0.00012496380651869
 178    -0.00024271267294668
 179    5.1409873437019e-05
 180    -2.4092913200828e-05
 181    -1.9749566190462e-05
 182    -0.00013868569667412
 183    6.3127008899471e-05
 184    0.00054344126038718
 185    -5.5249132881962e-05
 186    -4.3591577540886e-06
 187    5.0029920331064e-05
 188    0.00022866967631916
 189    -0.00050392373547663
 190    -1.17094599488e-06
 191    2.2374193797808e-05
 192    8.6138125848106e-06
 193    -3.1340541798256e-05
 194    5.8633173928106e-07
 195    5.3643668301172e-05
 196    0.00012621337571906
 197    -0.00019649374918205
 198    3.9732491570282e-05
 199    -2.7098980621041e-05
 200    -3.4987225937756e-05
 201    2.4903943285489e-06
 202    -5.5437430296888e-05
 203    9.514755485604e-06
 204    -3.833907508128e-06
 205    -5.4165449914678e-06
 206    1.707454431959e-05
 207    -4.7771459325986e-05
 208    8.411893282185e-06
 209    3.4863723198581e-06
 210    -4.1396942614896e-06
 211    0.00012501270577875
 212    2.2477876238293e-05
 213    -0.00021901777082873
 214    -1.3743076333869e-05
 215    3.9666082891602e-06
 216    8.1372215245916e-06
 217    -6.7557977302226e-05
 218    6.5297234019917e-05
 219    4.7336425378942e-05
 220    -1.1814677667137e-06
 221    8.0715624410795e-06
 222    -6.4940072247215e-06
 223    -2.6492290081778e-06
 224    5.3773235495638e-06
 225    1.7826912352134e-05
 226    0.0002420853683935
 227    -5.7369337391666e-05
 228    1.1755531584352e-05
 229    1.1667110643901e-05
 230    1.5875038220188e-05
 231    0.00027235543512973
 232    -2.7342515208393e-05
 233    2.3471505087238e-05
 234    5.2305665938863e-05
 235    4.1219739012551e-05
 236    0.00016178006324742
 237    -0.0007677685370551
 238    -1.3111640330402e-05
 239    -1.1971436490158e-05
 240    1.5042854178475e-05
 241    0.00042176709698117
 242    5.0609123181292e-05
 243    -0.00037751037873353
 244    -5.7022962201792e-06
 245    2.0879938866439e-05
 246     -2.4885144699e-06
 247    -1.6370009945244e-05
 248    -1.5499294133074e-06
 249    6.9904780399124e-06
 250    1.0635823588858e-05
 251    6.6807698084817e-07
 252    -2.7736538650529e-06
 253    -1.5460857654088e-06
 254    1.4160944754601e-05
 255    1.7864907934967e-05
 256    1.639099032578e-06
 257    -1.1397012415978e-07
 258    -1.563846745306e-06
 259    2.8534843028325e-05
 260    1.1070749197336e-05
 261    -2.2246201187851e-05
 262    4.8598633831752e-06
 263    -2.655633207339e-06