[Molden Format]
made by pyscf v[2.0.1]
[Atoms] (AU)
O   1   8     0.00000000000000     0.00000000000000    11.69764103529358
H   2   1     0.00000000000000     0.00000000000000     9.87423921339262
H   3   1    -0.05031916615174     1.78353065140343    12.07351273176025
O   4   8     0.00000000000000     0.00000000000000     2.31533471513237
C   5   6     0.00000000000000     0.00000000000000     0.00000000000000
C   6   6     2.01118073026938    -1.40227222164369    -1.50774939176400
C   7   6    -2.01249334291722     1.41331050329955    -1.50315905028694
H   8   1     3.32037363730244    -2.26721897153159    -0.13599698591495
C   9   6     3.45899267434009     0.28739631745591    -3.37437943254505
H   10   1     1.07662969841332    -2.94725144642667    -2.56541439481080
H   11   1    -2.67503415753480     0.18421555839588    -3.06194479365997
H   12   1    -1.07974048864772     3.03851734677796    -2.43674295017013
C   13   6    -4.21607110578555     2.32938802552922     0.11994162256091
H   14   1     4.24440173074564     1.93368664142019    -2.34976285512790
H   15   1     2.15020713235517     1.04714335134846    -4.81494497423699
C   16   6     5.60746363007797    -1.12419643481196    -4.70268606082550
H   17   1    -3.46838323670267     3.50951302338067     1.66946842715333
H   18   1    -5.11873485366228     0.68575958301209     1.04047743976495
C   19   6    -6.18314754751344     3.80909592987882    -1.39656589068747
H   20   1     6.93011263717176    -1.87550812453645    -3.26656317360070
C   21   6     7.06356622236532     0.52877932406334    -6.57829775293605
H   22   1     4.82318879258361    -2.78573437948532    -5.70504560381835
H   23   1    -6.91582688743803     2.61304780074712    -2.95074552451969
H   24   1    -5.26532430573853     5.45420349051338    -2.31005832200284
C   25   6    -8.39941882261433     4.73263980500213     0.21800571437956
H   26   1     7.83338371486801     2.19084139882824    -5.57093109900697
H   27   1     5.73544244039420     1.27376866537418    -8.01071492370229
C   28   6     9.21124858443101    -0.89699110072176    -7.88926949186242
H   29   1    -7.66272760055236     5.92277078003992     1.77035591474408
H   30   1    -9.31497248082589     3.08753015622020     1.12614408368786
C   31   6   -10.35481709231879     6.21833079391143    -1.30905206253246
H   32   1    10.58815905329501    -1.61074586756696    -6.49512691622620
H   33   1    10.23506248045667     0.32468009384095    -9.23072870921204
H   34   1     8.47665842847139    -2.53598436989925    -8.94921964622535
H   35   1    -9.48948872868064     7.90013588951020    -2.18823918416067
H   36   1   -11.93332513000955     6.86460487874102    -0.11255798845995
H   37   1   -11.15126291841033     5.04495968327630    -2.83849898862534
[GTO]
1 0
 s    8 1.00
                 11720  0.00070964594651845
                  1759  0.0054672722921914
                 400.8   0.027823118610189
                 113.7    0.10474773971146
                 37.03    0.28292084635691
                 13.27    0.44849523869833
                 5.025    0.27081688521277
                 1.013    0.01545029160744
 s    8 1.00
                 11720  -0.00031444341168873
                  1759  -0.0024821376810179
                 400.8  -0.012316355381583
                 113.7  -0.050538917343672
                 37.03   -0.13938490331632
                 13.27   -0.32507749481778
                 5.025   -0.22984830758785
                 1.013     1.0953793467883
 s    1 1.00
                0.3023                   1
 p    3 1.00
                  17.7   0.062679166281506
                 3.854    0.33353656587936
                 1.046    0.74123964163973
 p    1 1.00
                0.2753                   1
 d    1 1.00
                 1.185                   1

2 0
 s    3 1.00
                 13.01   0.033498726389998
                 1.962    0.23480080117413
                0.4446     0.8136829578829
 s    1 1.00
                 0.122                   1
 p    1 1.00
                 0.727                   1

3 0
 s    3 1.00
                 13.01   0.033498726389998
                 1.962    0.23480080117413
                0.4446     0.8136829578829
 s    1 1.00
                 0.122                   1
 p    1 1.00
                 0.727                   1

4 0
 s    8 1.00
                 11720  0.00070964594651845
                  1759  0.0054672722921914
                 400.8   0.027823118610189
                 113.7    0.10474773971146
                 37.03    0.28292084635691
                 13.27    0.44849523869833
                 5.025    0.27081688521277
                 1.013    0.01545029160744
 s    8 1.00
                 11720  -0.00031444341168873
                  1759  -0.0024821376810179
                 400.8  -0.012316355381583
                 113.7  -0.050538917343672
                 37.03   -0.13938490331632
                 13.27   -0.32507749481778
                 5.025   -0.22984830758785
                 1.013     1.0953793467883
 s    1 1.00
                0.3023                   1
 p    3 1.00
                  17.7   0.062679166281506
                 3.854    0.33353656587936
                 1.046    0.74123964163973
 p    1 1.00
                0.2753                   1
 d    1 1.00
                 1.185                   1

5 0
 s    8 1.00
                  6665  0.00069158396281299
                  1000  0.0053257961529341
                   228   0.027060721042034
                 64.71    0.10165684614077
                 21.06     0.2745748236174
                 7.495    0.44829431892377
                 2.797    0.28490261071525
                0.5215   0.015194859206082
 s    8 1.00
                  6665  -0.00029326965268655
                  1000  -0.0023180354739745
                   228  -0.011499786038565
                 64.71  -0.046826727009787
                 21.06   -0.12846616875047
                 7.495   -0.30126627246289
                 2.797   -0.25563070233011
                0.5215      1.093793361012
 s    1 1.00
                0.1596                   1
 p    3 1.00
                 9.439   0.056979251590039
                 2.002    0.31320721150073
                0.5456    0.76037674173753
 p    1 1.00
                0.1517                   1
 d    1 1.00
                  0.55                   1

6 0
 s    8 1.00
                  6665  0.00069158396281299
                  1000  0.0053257961529341
                   228   0.027060721042034
                 64.71    0.10165684614077
                 21.06     0.2745748236174
                 7.495    0.44829431892377
                 2.797    0.28490261071525
                0.5215   0.015194859206082
 s    8 1.00
                  6665  -0.00029326965268655
                  1000  -0.0023180354739745
                   228  -0.011499786038565
                 64.71  -0.046826727009787
                 21.06   -0.12846616875047
                 7.495   -0.30126627246289
                 2.797   -0.25563070233011
                0.5215      1.093793361012
 s    1 1.00
                0.1596                   1
 p    3 1.00
                 9.439   0.056979251590039
                 2.002    0.31320721150073
                0.5456    0.76037674173753
 p    1 1.00
                0.1517                   1
 d    1 1.00
                  0.55                   1

7 0
 s    8 1.00
                  6665  0.00069158396281299
                  1000  0.0053257961529341
                   228   0.027060721042034
                 64.71    0.10165684614077
                 21.06     0.2745748236174
                 7.495    0.44829431892377
                 2.797    0.28490261071525
                0.5215   0.015194859206082
 s    8 1.00
                  6665  -0.00029326965268655
                  1000  -0.0023180354739745
                   228  -0.011499786038565
                 64.71  -0.046826727009787
                 21.06   -0.12846616875047
                 7.495   -0.30126627246289
                 2.797   -0.25563070233011
                0.5215      1.093793361012
 s    1 1.00
                0.1596                   1
 p    3 1.00
                 9.439   0.056979251590039
                 2.002    0.31320721150073
                0.5456    0.76037674173753
 p    1 1.00
                0.1517                   1
 d    1 1.00
                  0.55                   1

8 0
 s    3 1.00
                 13.01   0.033498726389998
                 1.962    0.23480080117413
                0.4446     0.8136829578829
 s    1 1.00
                 0.122                   1
 p    1 1.00
                 0.727                   1

9 0
 s    8 1.00
                  6665  0.00069158396281299
                  1000  0.0053257961529341
                   228   0.027060721042034
                 64.71    0.10165684614077
                 21.06     0.2745748236174
                 7.495    0.44829431892377
                 2.797    0.28490261071525
                0.5215   0.015194859206082
 s    8 1.00
                  6665  -0.00029326965268655
                  1000  -0.0023180354739745
                   228  -0.011499786038565
                 64.71  -0.046826727009787
                 21.06   -0.12846616875047
                 7.495   -0.30126627246289
                 2.797   -0.25563070233011
                0.5215      1.093793361012
 s    1 1.00
                0.1596                   1
 p    3 1.00
                 9.439   0.056979251590039
                 2.002    0.31320721150073
                0.5456    0.76037674173753
 p    1 1.00
                0.1517                   1
 d    1 1.00
                  0.55                   1

10 0
 s    3 1.00
                 13.01   0.033498726389998
                 1.962    0.23480080117413
                0.4446     0.8136829578829
 s    1 1.00
                 0.122                   1
 p    1 1.00
                 0.727                   1

11 0
 s    3 1.00
                 13.01   0.033498726389998
                 1.962    0.23480080117413
                0.4446     0.8136829578829
 s    1 1.00
                 0.122                   1
 p    1 1.00
                 0.727                   1

12 0
 s    3 1.00
                 13.01   0.033498726389998
                 1.962    0.23480080117413
                0.4446     0.8136829578829
 s    1 1.00
                 0.122                   1
 p    1 1.00
                 0.727                   1

13 0
 s    8 1.00
                  6665  0.00069158396281299
                  1000  0.0053257961529341
                   228   0.027060721042034
                 64.71    0.10165684614077
                 21.06     0.2745748236174
                 7.495    0.44829431892377
                 2.797    0.28490261071525
                0.5215   0.015194859206082
 s    8 1.00
                  6665  -0.00029326965268655
                  1000  -0.0023180354739745
                   228  -0.011499786038565
                 64.71  -0.046826727009787
                 21.06   -0.12846616875047
                 7.495   -0.30126627246289
                 2.797   -0.25563070233011
                0.5215      1.093793361012
 s    1 1.00
                0.1596                   1
 p    3 1.00
                 9.439   0.056979251590039
                 2.002    0.31320721150073
                0.5456    0.76037674173753
 p    1 1.00
                0.1517                   1
 d    1 1.00
                  0.55                   1

14 0
 s    3 1.00
                 13.01   0.033498726389998
                 1.962    0.23480080117413
                0.4446     0.8136829578829
 s    1 1.00
                 0.122                   1
 p    1 1.00
                 0.727                   1

15 0
 s    3 1.00
                 13.01   0.033498726389998
                 1.962    0.23480080117413
                0.4446     0.8136829578829
 s    1 1.00
                 0.122                   1
 p    1 1.00
                 0.727                   1

16 0
 s    8 1.00
                  6665  0.00069158396281299
                  1000  0.0053257961529341
                   228   0.027060721042034
                 64.71    0.10165684614077
                 21.06     0.2745748236174
                 7.495    0.44829431892377
                 2.797    0.28490261071525
                0.5215   0.015194859206082
 s    8 1.00
                  6665  -0.00029326965268655
                  1000  -0.0023180354739745
                   228  -0.011499786038565
                 64.71  -0.046826727009787
                 21.06   -0.12846616875047
                 7.495   -0.30126627246289
                 2.797   -0.25563070233011
                0.5215      1.093793361012
 s    1 1.00
                0.1596                   1
 p    3 1.00
                 9.439   0.056979251590039
                 2.002    0.31320721150073
                0.5456    0.76037674173753
 p    1 1.00
                0.1517                   1
 d    1 1.00
                  0.55                   1

17 0
 s    3 1.00
                 13.01   0.033498726389998
                 1.962    0.23480080117413
                0.4446     0.8136829578829
 s    1 1.00
                 0.122                   1
 p    1 1.00
                 0.727                   1

18 0
 s    3 1.00
                 13.01   0.033498726389998
                 1.962    0.23480080117413
                0.4446     0.8136829578829
 s    1 1.00
                 0.122                   1
 p    1 1.00
                 0.727                   1

19 0
 s    8 1.00
                  6665  0.00069158396281299
                  1000  0.0053257961529341
                   228   0.027060721042034
                 64.71    0.10165684614077
                 21.06     0.2745748236174
                 7.495    0.44829431892377
                 2.797    0.28490261071525
                0.5215   0.015194859206082
 s    8 1.00
                  6665  -0.00029326965268655
                  1000  -0.0023180354739745
                   228  -0.011499786038565
                 64.71  -0.046826727009787
                 21.06   -0.12846616875047
                 7.495   -0.30126627246289
                 2.797   -0.25563070233011
                0.5215      1.093793361012
 s    1 1.00
                0.1596                   1
 p    3 1.00
                 9.439   0.056979251590039
                 2.002    0.31320721150073
                0.5456    0.76037674173753
 p    1 1.00
                0.1517                   1
 d    1 1.00
                  0.55                   1

20 0
 s    3 1.00
                 13.01   0.033498726389998
                 1.962    0.23480080117413
                0.4446     0.8136829578829
 s    1 1.00
                 0.122                   1
 p    1 1.00
                 0.727                   1

21 0
 s    8 1.00
                  6665  0.00069158396281299
                  1000  0.0053257961529341
                   228   0.027060721042034
                 64.71    0.10165684614077
                 21.06     0.2745748236174
                 7.495    0.44829431892377
                 2.797    0.28490261071525
                0.5215   0.015194859206082
 s    8 1.00
                  6665  -0.00029326965268655
                  1000  -0.0023180354739745
                   228  -0.011499786038565
                 64.71  -0.046826727009787
                 21.06   -0.12846616875047
                 7.495   -0.30126627246289
                 2.797   -0.25563070233011
                0.5215      1.093793361012
 s    1 1.00
                0.1596                   1
 p    3 1.00
                 9.439   0.056979251590039
                 2.002    0.31320721150073
                0.5456    0.76037674173753
 p    1 1.00
                0.1517                   1
 d    1 1.00
                  0.55                   1

22 0
 s    3 1.00
                 13.01   0.033498726389998
                 1.962    0.23480080117413
                0.4446     0.8136829578829
 s    1 1.00
                 0.122                   1
 p    1 1.00
                 0.727                   1

23 0
 s    3 1.00
                 13.01   0.033498726389998
                 1.962    0.23480080117413
                0.4446     0.8136829578829
 s    1 1.00
                 0.122                   1
 p    1 1.00
                 0.727                   1

24 0
 s    3 1.00
                 13.01   0.033498726389998
                 1.962    0.23480080117413
                0.4446     0.8136829578829
 s    1 1.00
                 0.122                   1
 p    1 1.00
                 0.727                   1

25 0
 s    8 1.00
                  6665  0.00069158396281299
                  1000  0.0053257961529341
                   228   0.027060721042034
                 64.71    0.10165684614077
                 21.06     0.2745748236174
                 7.495    0.44829431892377
                 2.797    0.28490261071525
                0.5215   0.015194859206082
 s    8 1.00
                  6665  -0.00029326965268655
                  1000  -0.0023180354739745
                   228  -0.011499786038565
                 64.71  -0.046826727009787
                 21.06   -0.12846616875047
                 7.495   -0.30126627246289
                 2.797   -0.25563070233011
                0.5215      1.093793361012
 s    1 1.00
                0.1596                   1
 p    3 1.00
                 9.439   0.056979251590039
                 2.002    0.31320721150073
                0.5456    0.76037674173753
 p    1 1.00
                0.1517                   1
 d    1 1.00
                  0.55                   1

26 0
 s    3 1.00
                 13.01   0.033498726389998
                 1.962    0.23480080117413
                0.4446     0.8136829578829
 s    1 1.00
                 0.122                   1
 p    1 1.00
                 0.727                   1

27 0
 s    3 1.00
                 13.01   0.033498726389998
                 1.962    0.23480080117413
                0.4446     0.8136829578829
 s    1 1.00
                 0.122                   1
 p    1 1.00
                 0.727                   1

28 0
 s    8 1.00
                  6665  0.00069158396281299
                  1000  0.0053257961529341
                   228   0.027060721042034
                 64.71    0.10165684614077
                 21.06     0.2745748236174
                 7.495    0.44829431892377
                 2.797    0.28490261071525
                0.5215   0.015194859206082
 s    8 1.00
                  6665  -0.00029326965268655
                  1000  -0.0023180354739745
                   228  -0.011499786038565
                 64.71  -0.046826727009787
                 21.06   -0.12846616875047
                 7.495   -0.30126627246289
                 2.797   -0.25563070233011
                0.5215      1.093793361012
 s    1 1.00
                0.1596                   1
 p    3 1.00
                 9.439   0.056979251590039
                 2.002    0.31320721150073
                0.5456    0.76037674173753
 p    1 1.00
                0.1517                   1
 d    1 1.00
                  0.55                   1

29 0
 s    3 1.00
                 13.01   0.033498726389998
                 1.962    0.23480080117413
                0.4446     0.8136829578829
 s    1 1.00
                 0.122                   1
 p    1 1.00
                 0.727                   1

30 0
 s    3 1.00
                 13.01   0.033498726389998
                 1.962    0.23480080117413
                0.4446     0.8136829578829
 s    1 1.00
                 0.122                   1
 p    1 1.00
                 0.727                   1

31 0
 s    8 1.00
                  6665  0.00069158396281299
                  1000  0.0053257961529341
                   228   0.027060721042034
                 64.71    0.10165684614077
                 21.06     0.2745748236174
                 7.495    0.44829431892377
                 2.797    0.28490261071525
                0.5215   0.015194859206082
 s    8 1.00
                  6665  -0.00029326965268655
                  1000  -0.0023180354739745
                   228  -0.011499786038565
                 64.71  -0.046826727009787
                 21.06   -0.12846616875047
                 7.495   -0.30126627246289
                 2.797   -0.25563070233011
                0.5215      1.093793361012
 s    1 1.00
                0.1596                   1
 p    3 1.00
                 9.439   0.056979251590039
                 2.002    0.31320721150073
                0.5456    0.76037674173753
 p    1 1.00
                0.1517                   1
 d    1 1.00
                  0.55                   1

32 0
 s    3 1.00
                 13.01   0.033498726389998
                 1.962    0.23480080117413
                0.4446     0.8136829578829
 s    1 1.00
                 0.122                   1
 p    1 1.00
                 0.727                   1

33 0
 s    3 1.00
                 13.01   0.033498726389998
                 1.962    0.23480080117413
                0.4446     0.8136829578829
 s    1 1.00
                 0.122                   1
 p    1 1.00
                 0.727                   1

34 0
 s    3 1.00
                 13.01   0.033498726389998
                 1.962    0.23480080117413
                0.4446     0.8136829578829
 s    1 1.00
                 0.122                   1
 p    1 1.00
                 0.727                   1

35 0
 s    3 1.00
                 13.01   0.033498726389998
                 1.962    0.23480080117413
                0.4446     0.8136829578829
 s    1 1.00
                 0.122                   1
 p    1 1.00
                 0.727                   1

36 0
 s    3 1.00
                 13.01   0.033498726389998
                 1.962    0.23480080117413
                0.4446     0.8136829578829
 s    1 1.00
                 0.122                   1
 p    1 1.00
                 0.727                   1

37 0
 s    3 1.00
                 13.01   0.033498726389998
                 1.962    0.23480080117413
                0.4446     0.8136829578829
 s    1 1.00
                 0.122                   1
 p    1 1.00
                 0.727                   1

[5d]
[7f]
[9g]

[MO]
 Sym= A
 Ene=               0
 Spin= Alpha
 Occup=    1.00000
   1    -1.9416449791217e-07
   2    -3.6814292016793e-08
   3    1.5551843743645e-06
   4    2.0105545113455e-09
   5    -3.468958941143e-08
   6    -4.0324161964557e-07
   7    1.0411253242474e-08
   8    -2.9400984101786e-07
   9    -1.1785888177393e-06
  10    7.9011051867987e-08
  11    2.1339901308872e-10
  12    -1.1624895489481e-08
  13    5.084998131738e-09
  14    2.7942854851314e-10
  15    3.6674217208991e-07
  16    -3.0754012087369e-06
  17    2.0182521593196e-09
  18    2.4082608911326e-09
  19    -2.5257229830548e-07
  20    -1.021083485629e-07
  21    9.0340283707184e-07
  22    3.4916440092813e-10
  23    -1.5687405778974e-08
  24    1.4451968461646e-08
  25    5.7695333805068e-06
  26    0.00020479572642102
  27    8.0723580355124e-05
  28    0.00027925580921522
  29    -0.00087202947529043
  30    -0.00034912282702213
  31    0.00023530380182652
  32    -0.00066679164180353
  33    -0.00016728938600451
  34    2.4940053404414e-05
  35    3.6569931027034e-06
  36    5.6303213828178e-05
  37    4.4412047919942e-06
  38    3.5532410737159e-06
  39    0.00073037765087834
  40    0.00060314582910596
  41    0.0006410986995501
  42    7.7781147256904e-05
  43    -0.00048491355228497
  44    7.7937010744817e-05
  45    -0.00010537400532479
  46    7.3372495858271e-05
  47    -0.00013060953341983
  48    6.2689567527481e-05
  49    6.5763884485307e-05
  50    -3.8994598188136e-05
  51    3.8727452158893e-05
  52    -4.0783015764383e-05
  53     0.033870897307706
  54    0.00039746994706426
  55    -0.0032048193027388
  56    -0.00024215022743042
  57    4.1397768715052e-05
  58    0.00019442500046805
  59    -0.00089562258284742
  60    -0.00082983808632016
  61    0.00094681315307621
  62     9.06989705103e-06
  63    -0.00013594239413389
  64    -0.00013848845266584
  65    -2.0297725860465e-05
  66    9.6283355968968e-05
  67    0.0044969961380622
  68    0.00014593356398139
  69    -0.00050440581235019
  70    7.5801036619491e-05
  71    -2.0227550151718e-05
  72    3.7577106713114e-05
  73    -0.00042984222852177
  74    -0.00017578999206819
  75    1.9510118738034e-06
  76    -6.2298898563273e-06
  77    -9.7919866154086e-06
  78    3.6776586844531e-05
  79    1.734079791855e-05
  80    -1.5459025494499e-05
  81    0.0001360653118508
  82    -1.9423505465937e-05
  83    -2.7672001174219e-05
  84    -2.6551397098087e-05
  85    5.8377752028113e-05
  86      -1.0014740303905
  87    -0.0052329940506649
  88     0.012792488120084
  89    0.00013673386873462
  90    -0.00016839497877926
  91    -4.0287122889197e-05
  92    0.00055690848268494
  93    -0.001553830102419
  94    2.420862265806e-05
  95    -1.7772774713739e-05
  96    -0.00032914267338086
  97    -4.1628953394753e-05
  98    8.8370161443461e-05
  99    -6.6573018481026e-05
 100    0.00011908119702756
 101    -0.00020464736550226
 102    -5.514808037475e-05
 103    -6.0302388534853e-05
 104    3.680708551117e-05
 105    -6.3886454219055e-05
 106    2.3196534037596e-05
 107    6.153793834033e-05
 108    2.2251465499194e-06
 109    -1.3463758941382e-05
 110    0.00010495001699486
 111    0.00046027353695262
 112    1.0489027891358e-06
 113    -3.8981438144796e-05
 114    1.5349567138066e-05
 115    0.0019404926114042
 116    3.3204736004985e-05
 117    -2.8908196567878e-05
 118    -7.4277163726304e-06
 119    8.9362246608253e-06
 120    3.6592892144653e-06
 121    -1.2289085762854e-05
 122    0.00023703025561093
 123    0.00012965226792693
 124    -3.0195810548558e-06
 125    1.3877639517286e-05
 126    -1.2454734418471e-05
 127    -1.889281111347e-06
 128    1.3621049849279e-05
 129    -0.00021181323801368
 130    -0.0012461328402778
 131    -0.0002208015479906
 132    -0.00028737282870126
 133    -0.00024102813204421
 134    -0.00021762966821489
 135    -0.0013731952736315
 136    0.00026251382592535
 137    -7.2720695989231e-05
 138     0.000323522070898
 139    -0.033818362405693
 140    5.1504005957417e-05
 141    -0.0034286293607463
 142    0.00011010714769832
 143    -5.0221210702561e-05
 144    -7.5916942481091e-05
 145    0.0013295980148575
 146    -0.0010293346623263
 147    -0.00073368911580362
 148    -3.6592613766782e-05
 149    -5.2169082419994e-05
 150    4.0897171998068e-05
 151    4.5192631597098e-06
 152    -9.0275647389251e-05
 153    -2.0530101103062e-05
 154    -0.00015169530293761
 155    2.0481442621421e-06
 156    3.8344087824821e-06
 157    4.0314010900841e-06
 158    1.5624853711153e-05
 159    2.8981621204327e-05
 160    -6.5577117631262e-06
 161    -1.0094457511161e-05
 162    -6.0187640119396e-06
 163    -0.00065845006432406
 164    -1.3762886157414e-05
 165    0.00015440536021416
 166    1.805251887534e-05
 167    -6.594234857862e-06
 168    -5.7493215197839e-06
 169    -0.00020640500753439
 170    2.2054611522139e-05
 171    2.2382690846461e-05
 172    -2.4143490551757e-06
 173    -1.6473616513856e-05
 174    3.6907042027857e-06
 175    -1.9956557601412e-06
 176    -7.1393978778505e-08
 177    0.00012482179935082
 178    -0.00024410900251534
 179    5.1035644795368e-05
 180    -2.3972999487409e-05
 181    -2.0218223977482e-05
 182    -0.00017962214062137
 183    6.3280844957903e-05
 184    0.00054033195777966
 185    -5.517927598576e-05
 186    -4.1629041440115e-06
 187    4.9899216372464e-05
 188    0.00023097600345512
 189    -0.00050347429099543
 190    -3.3871213916295e-06
 191    2.2403503445886e-05
 192    8.5581262263999e-06
 193    -3.1472760527163e-05
 194    5.5382822104924e-07
 195    5.3766575367756e-05
 196    0.00012614924943643
 197    -0.00019780252200506
 198    4.0052816441199e-05
 199    -2.6668488990796e-05
 200    -3.4661243837816e-05
 201    2.5712020807386e-06
 202    -5.528391002442e-05
 203    9.5444605446286e-06
 204    -3.8368736966165e-06
 205    -5.4081265570639e-06
 206    1.7061555439147e-05
 207    -4.7882914421465e-05
 208    8.4377628210412e-06
 209    3.4559088121198e-06
 210    -4.1516067362569e-06
 211    0.00013032468590224
 212    2.2504687575914e-05
 213    -0.00021930787646643
 214    -1.3824033140081e-05
 215    4.0027361412501e-06
 216    8.1965359367448e-06
 217    -6.7915612077538e-05
 218    6.5349479969627e-05
 219    4.7402359581098e-05
 220    -1.1865584861229e-06
 221    8.0956418695756e-06
 222    -6.4981738744364e-06
 223    -2.6583821336977e-06
 224    5.3688616353429e-06
 225    1.8125156446165e-05
 226    0.00024190752189639
 227    -5.7412111460339e-05
 228    1.1872782859183e-05
 229    1.1629553423207e-05
 230    1.6162467150857e-05
 231    0.00027210638053059
 232    -2.7359802616215e-05
 233    2.3602595169517e-05
 234    5.2300271461467e-05
 235    3.9476507665674e-05
 236    0.00016204623152036
 237    -0.00076903543749127
 238    -1.3216262606713e-05
 239    -1.1942271638094e-05
 240    1.5125062800573e-05
 241    0.00042192115659553
 242    5.0126987674055e-05
 243    -0.00037744962489551
 244    -5.6899857808174e-06
 245    2.0918323656358e-05
 246    -2.4007342778943e-06
 247    -1.6314572793365e-05
 248    -1.585654570861e-06
 249    7.0298996628917e-06
 250    1.0655684679734e-05
 251    6.6983201847427e-07
 252    -2.7705520314926e-06
 253    -1.5416234609376e-06
 254    1.4173379402057e-05
 255    1.7778396867456e-05
 256    1.6422811046851e-06
 257    -1.1818832798198e-07
 258    -1.5580590252651e-06
 259    2.9376069335441e-05
 260    1.1121521926712e-05
 261    -2.23482509036e-05
 262    4.8992444416378e-06
 263    -2.6785465904374e-06