[Molden Format]
made by pyscf v[2.0.1]
[Atoms] (AU)
O   1   8     0.00000000000000     0.00000000000000    10.94175058546756
H   2   1     0.00000000000000     0.00000000000000     9.11834876356659
H   3   1    -0.05031916615174     1.78353065140343    11.31762228193423
O   4   8     0.00000000000000     0.00000000000000     2.31533471513237
C   5   6     0.00000000000000     0.00000000000000     0.00000000000000
C   6   6     2.01118073026938    -1.40227222164369    -1.50774939176400
C   7   6    -2.01249334291722     1.41331050329955    -1.50315905028694
H   8   1     3.32037363730244    -2.26721897153159    -0.13599698591495
C   9   6     3.45899267434009     0.28739631745591    -3.37437943254505
H   10   1     1.07662969841332    -2.94725144642667    -2.56541439481080
H   11   1    -2.67503415753480     0.18421555839588    -3.06194479365997
H   12   1    -1.07974048864772     3.03851734677796    -2.43674295017013
C   13   6    -4.21607110578555     2.32938802552922     0.11994162256091
H   14   1     4.24440173074564     1.93368664142019    -2.34976285512790
H   15   1     2.15020713235517     1.04714335134846    -4.81494497423699
C   16   6     5.60746363007797    -1.12419643481196    -4.70268606082550
H   17   1    -3.46838323670267     3.50951302338067     1.66946842715333
H   18   1    -5.11873485366228     0.68575958301209     1.04047743976495
C   19   6    -6.18314754751344     3.80909592987882    -1.39656589068747
H   20   1     6.93011263717176    -1.87550812453645    -3.26656317360070
C   21   6     7.06356622236532     0.52877932406334    -6.57829775293605
H   22   1     4.82318879258361    -2.78573437948532    -5.70504560381835
H   23   1    -6.91582688743803     2.61304780074712    -2.95074552451969
H   24   1    -5.26532430573853     5.45420349051338    -2.31005832200284
C   25   6    -8.39941882261433     4.73263980500213     0.21800571437956
H   26   1     7.83338371486801     2.19084139882824    -5.57093109900697
H   27   1     5.73544244039420     1.27376866537418    -8.01071492370229
C   28   6     9.21124858443101    -0.89699110072176    -7.88926949186242
H   29   1    -7.66272760055236     5.92277078003992     1.77035591474408
H   30   1    -9.31497248082589     3.08753015622020     1.12614408368786
C   31   6   -10.35481709231879     6.21833079391143    -1.30905206253246
H   32   1    10.58815905329501    -1.61074586756696    -6.49512691622620
H   33   1    10.23506248045667     0.32468009384095    -9.23072870921204
H   34   1     8.47665842847139    -2.53598436989925    -8.94921964622535
H   35   1    -9.48948872868064     7.90013588951020    -2.18823918416067
H   36   1   -11.93332513000955     6.86460487874102    -0.11255798845995
H   37   1   -11.15126291841033     5.04495968327630    -2.83849898862534
[GTO]
1 0
 s    8 1.00
                 11720  0.00070964594651845
                  1759  0.0054672722921914
                 400.8   0.027823118610189
                 113.7    0.10474773971146
                 37.03    0.28292084635691
                 13.27    0.44849523869833
                 5.025    0.27081688521277
                 1.013    0.01545029160744
 s    8 1.00
                 11720  -0.00031444341168873
                  1759  -0.0024821376810179
                 400.8  -0.012316355381583
                 113.7  -0.050538917343672
                 37.03   -0.13938490331632
                 13.27   -0.32507749481778
                 5.025   -0.22984830758785
                 1.013     1.0953793467883
 s    1 1.00
                0.3023                   1
 p    3 1.00
                  17.7   0.062679166281506
                 3.854    0.33353656587936
                 1.046    0.74123964163973
 p    1 1.00
                0.2753                   1
 d    1 1.00
                 1.185                   1

2 0
 s    3 1.00
                 13.01   0.033498726389998
                 1.962    0.23480080117413
                0.4446     0.8136829578829
 s    1 1.00
                 0.122                   1
 p    1 1.00
                 0.727                   1

3 0
 s    3 1.00
                 13.01   0.033498726389998
                 1.962    0.23480080117413
                0.4446     0.8136829578829
 s    1 1.00
                 0.122                   1
 p    1 1.00
                 0.727                   1

4 0
 s    8 1.00
                 11720  0.00070964594651845
                  1759  0.0054672722921914
                 400.8   0.027823118610189
                 113.7    0.10474773971146
                 37.03    0.28292084635691
                 13.27    0.44849523869833
                 5.025    0.27081688521277
                 1.013    0.01545029160744
 s    8 1.00
                 11720  -0.00031444341168873
                  1759  -0.0024821376810179
                 400.8  -0.012316355381583
                 113.7  -0.050538917343672
                 37.03   -0.13938490331632
                 13.27   -0.32507749481778
                 5.025   -0.22984830758785
                 1.013     1.0953793467883
 s    1 1.00
                0.3023                   1
 p    3 1.00
                  17.7   0.062679166281506
                 3.854    0.33353656587936
                 1.046    0.74123964163973
 p    1 1.00
                0.2753                   1
 d    1 1.00
                 1.185                   1

5 0
 s    8 1.00
                  6665  0.00069158396281299
                  1000  0.0053257961529341
                   228   0.027060721042034
                 64.71    0.10165684614077
                 21.06     0.2745748236174
                 7.495    0.44829431892377
                 2.797    0.28490261071525
                0.5215   0.015194859206082
 s    8 1.00
                  6665  -0.00029326965268655
                  1000  -0.0023180354739745
                   228  -0.011499786038565
                 64.71  -0.046826727009787
                 21.06   -0.12846616875047
                 7.495   -0.30126627246289
                 2.797   -0.25563070233011
                0.5215      1.093793361012
 s    1 1.00
                0.1596                   1
 p    3 1.00
                 9.439   0.056979251590039
                 2.002    0.31320721150073
                0.5456    0.76037674173753
 p    1 1.00
                0.1517                   1
 d    1 1.00
                  0.55                   1

6 0
 s    8 1.00
                  6665  0.00069158396281299
                  1000  0.0053257961529341
                   228   0.027060721042034
                 64.71    0.10165684614077
                 21.06     0.2745748236174
                 7.495    0.44829431892377
                 2.797    0.28490261071525
                0.5215   0.015194859206082
 s    8 1.00
                  6665  -0.00029326965268655
                  1000  -0.0023180354739745
                   228  -0.011499786038565
                 64.71  -0.046826727009787
                 21.06   -0.12846616875047
                 7.495   -0.30126627246289
                 2.797   -0.25563070233011
                0.5215      1.093793361012
 s    1 1.00
                0.1596                   1
 p    3 1.00
                 9.439   0.056979251590039
                 2.002    0.31320721150073
                0.5456    0.76037674173753
 p    1 1.00
                0.1517                   1
 d    1 1.00
                  0.55                   1

7 0
 s    8 1.00
                  6665  0.00069158396281299
                  1000  0.0053257961529341
                   228   0.027060721042034
                 64.71    0.10165684614077
                 21.06     0.2745748236174
                 7.495    0.44829431892377
                 2.797    0.28490261071525
                0.5215   0.015194859206082
 s    8 1.00
                  6665  -0.00029326965268655
                  1000  -0.0023180354739745
                   228  -0.011499786038565
                 64.71  -0.046826727009787
                 21.06   -0.12846616875047
                 7.495   -0.30126627246289
                 2.797   -0.25563070233011
                0.5215      1.093793361012
 s    1 1.00
                0.1596                   1
 p    3 1.00
                 9.439   0.056979251590039
                 2.002    0.31320721150073
                0.5456    0.76037674173753
 p    1 1.00
                0.1517                   1
 d    1 1.00
                  0.55                   1

8 0
 s    3 1.00
                 13.01   0.033498726389998
                 1.962    0.23480080117413
                0.4446     0.8136829578829
 s    1 1.00
                 0.122                   1
 p    1 1.00
                 0.727                   1

9 0
 s    8 1.00
                  6665  0.00069158396281299
                  1000  0.0053257961529341
                   228   0.027060721042034
                 64.71    0.10165684614077
                 21.06     0.2745748236174
                 7.495    0.44829431892377
                 2.797    0.28490261071525
                0.5215   0.015194859206082
 s    8 1.00
                  6665  -0.00029326965268655
                  1000  -0.0023180354739745
                   228  -0.011499786038565
                 64.71  -0.046826727009787
                 21.06   -0.12846616875047
                 7.495   -0.30126627246289
                 2.797   -0.25563070233011
                0.5215      1.093793361012
 s    1 1.00
                0.1596                   1
 p    3 1.00
                 9.439   0.056979251590039
                 2.002    0.31320721150073
                0.5456    0.76037674173753
 p    1 1.00
                0.1517                   1
 d    1 1.00
                  0.55                   1

10 0
 s    3 1.00
                 13.01   0.033498726389998
                 1.962    0.23480080117413
                0.4446     0.8136829578829
 s    1 1.00
                 0.122                   1
 p    1 1.00
                 0.727                   1

11 0
 s    3 1.00
                 13.01   0.033498726389998
                 1.962    0.23480080117413
                0.4446     0.8136829578829
 s    1 1.00
                 0.122                   1
 p    1 1.00
                 0.727                   1

12 0
 s    3 1.00
                 13.01   0.033498726389998
                 1.962    0.23480080117413
                0.4446     0.8136829578829
 s    1 1.00
                 0.122                   1
 p    1 1.00
                 0.727                   1

13 0
 s    8 1.00
                  6665  0.00069158396281299
                  1000  0.0053257961529341
                   228   0.027060721042034
                 64.71    0.10165684614077
                 21.06     0.2745748236174
                 7.495    0.44829431892377
                 2.797    0.28490261071525
                0.5215   0.015194859206082
 s    8 1.00
                  6665  -0.00029326965268655
                  1000  -0.0023180354739745
                   228  -0.011499786038565
                 64.71  -0.046826727009787
                 21.06   -0.12846616875047
                 7.495   -0.30126627246289
                 2.797   -0.25563070233011
                0.5215      1.093793361012
 s    1 1.00
                0.1596                   1
 p    3 1.00
                 9.439   0.056979251590039
                 2.002    0.31320721150073
                0.5456    0.76037674173753
 p    1 1.00
                0.1517                   1
 d    1 1.00
                  0.55                   1

14 0
 s    3 1.00
                 13.01   0.033498726389998
                 1.962    0.23480080117413
                0.4446     0.8136829578829
 s    1 1.00
                 0.122                   1
 p    1 1.00
                 0.727                   1

15 0
 s    3 1.00
                 13.01   0.033498726389998
                 1.962    0.23480080117413
                0.4446     0.8136829578829
 s    1 1.00
                 0.122                   1
 p    1 1.00
                 0.727                   1

16 0
 s    8 1.00
                  6665  0.00069158396281299
                  1000  0.0053257961529341
                   228   0.027060721042034
                 64.71    0.10165684614077
                 21.06     0.2745748236174
                 7.495    0.44829431892377
                 2.797    0.28490261071525
                0.5215   0.015194859206082
 s    8 1.00
                  6665  -0.00029326965268655
                  1000  -0.0023180354739745
                   228  -0.011499786038565
                 64.71  -0.046826727009787
                 21.06   -0.12846616875047
                 7.495   -0.30126627246289
                 2.797   -0.25563070233011
                0.5215      1.093793361012
 s    1 1.00
                0.1596                   1
 p    3 1.00
                 9.439   0.056979251590039
                 2.002    0.31320721150073
                0.5456    0.76037674173753
 p    1 1.00
                0.1517                   1
 d    1 1.00
                  0.55                   1

17 0
 s    3 1.00
                 13.01   0.033498726389998
                 1.962    0.23480080117413
                0.4446     0.8136829578829
 s    1 1.00
                 0.122                   1
 p    1 1.00
                 0.727                   1

18 0
 s    3 1.00
                 13.01   0.033498726389998
                 1.962    0.23480080117413
                0.4446     0.8136829578829
 s    1 1.00
                 0.122                   1
 p    1 1.00
                 0.727                   1

19 0
 s    8 1.00
                  6665  0.00069158396281299
                  1000  0.0053257961529341
                   228   0.027060721042034
                 64.71    0.10165684614077
                 21.06     0.2745748236174
                 7.495    0.44829431892377
                 2.797    0.28490261071525
                0.5215   0.015194859206082
 s    8 1.00
                  6665  -0.00029326965268655
                  1000  -0.0023180354739745
                   228  -0.011499786038565
                 64.71  -0.046826727009787
                 21.06   -0.12846616875047
                 7.495   -0.30126627246289
                 2.797   -0.25563070233011
                0.5215      1.093793361012
 s    1 1.00
                0.1596                   1
 p    3 1.00
                 9.439   0.056979251590039
                 2.002    0.31320721150073
                0.5456    0.76037674173753
 p    1 1.00
                0.1517                   1
 d    1 1.00
                  0.55                   1

20 0
 s    3 1.00
                 13.01   0.033498726389998
                 1.962    0.23480080117413
                0.4446     0.8136829578829
 s    1 1.00
                 0.122                   1
 p    1 1.00
                 0.727                   1

21 0
 s    8 1.00
                  6665  0.00069158396281299
                  1000  0.0053257961529341
                   228   0.027060721042034
                 64.71    0.10165684614077
                 21.06     0.2745748236174
                 7.495    0.44829431892377
                 2.797    0.28490261071525
                0.5215   0.015194859206082
 s    8 1.00
                  6665  -0.00029326965268655
                  1000  -0.0023180354739745
                   228  -0.011499786038565
                 64.71  -0.046826727009787
                 21.06   -0.12846616875047
                 7.495   -0.30126627246289
                 2.797   -0.25563070233011
                0.5215      1.093793361012
 s    1 1.00
                0.1596                   1
 p    3 1.00
                 9.439   0.056979251590039
                 2.002    0.31320721150073
                0.5456    0.76037674173753
 p    1 1.00
                0.1517                   1
 d    1 1.00
                  0.55                   1

22 0
 s    3 1.00
                 13.01   0.033498726389998
                 1.962    0.23480080117413
                0.4446     0.8136829578829
 s    1 1.00
                 0.122                   1
 p    1 1.00
                 0.727                   1

23 0
 s    3 1.00
                 13.01   0.033498726389998
                 1.962    0.23480080117413
                0.4446     0.8136829578829
 s    1 1.00
                 0.122                   1
 p    1 1.00
                 0.727                   1

24 0
 s    3 1.00
                 13.01   0.033498726389998
                 1.962    0.23480080117413
                0.4446     0.8136829578829
 s    1 1.00
                 0.122                   1
 p    1 1.00
                 0.727                   1

25 0
 s    8 1.00
                  6665  0.00069158396281299
                  1000  0.0053257961529341
                   228   0.027060721042034
                 64.71    0.10165684614077
                 21.06     0.2745748236174
                 7.495    0.44829431892377
                 2.797    0.28490261071525
                0.5215   0.015194859206082
 s    8 1.00
                  6665  -0.00029326965268655
                  1000  -0.0023180354739745
                   228  -0.011499786038565
                 64.71  -0.046826727009787
                 21.06   -0.12846616875047
                 7.495   -0.30126627246289
                 2.797   -0.25563070233011
                0.5215      1.093793361012
 s    1 1.00
                0.1596                   1
 p    3 1.00
                 9.439   0.056979251590039
                 2.002    0.31320721150073
                0.5456    0.76037674173753
 p    1 1.00
                0.1517                   1
 d    1 1.00
                  0.55                   1

26 0
 s    3 1.00
                 13.01   0.033498726389998
                 1.962    0.23480080117413
                0.4446     0.8136829578829
 s    1 1.00
                 0.122                   1
 p    1 1.00
                 0.727                   1

27 0
 s    3 1.00
                 13.01   0.033498726389998
                 1.962    0.23480080117413
                0.4446     0.8136829578829
 s    1 1.00
                 0.122                   1
 p    1 1.00
                 0.727                   1

28 0
 s    8 1.00
                  6665  0.00069158396281299
                  1000  0.0053257961529341
                   228   0.027060721042034
                 64.71    0.10165684614077
                 21.06     0.2745748236174
                 7.495    0.44829431892377
                 2.797    0.28490261071525
                0.5215   0.015194859206082
 s    8 1.00
                  6665  -0.00029326965268655
                  1000  -0.0023180354739745
                   228  -0.011499786038565
                 64.71  -0.046826727009787
                 21.06   -0.12846616875047
                 7.495   -0.30126627246289
                 2.797   -0.25563070233011
                0.5215      1.093793361012
 s    1 1.00
                0.1596                   1
 p    3 1.00
                 9.439   0.056979251590039
                 2.002    0.31320721150073
                0.5456    0.76037674173753
 p    1 1.00
                0.1517                   1
 d    1 1.00
                  0.55                   1

29 0
 s    3 1.00
                 13.01   0.033498726389998
                 1.962    0.23480080117413
                0.4446     0.8136829578829
 s    1 1.00
                 0.122                   1
 p    1 1.00
                 0.727                   1

30 0
 s    3 1.00
                 13.01   0.033498726389998
                 1.962    0.23480080117413
                0.4446     0.8136829578829
 s    1 1.00
                 0.122                   1
 p    1 1.00
                 0.727                   1

31 0
 s    8 1.00
                  6665  0.00069158396281299
                  1000  0.0053257961529341
                   228   0.027060721042034
                 64.71    0.10165684614077
                 21.06     0.2745748236174
                 7.495    0.44829431892377
                 2.797    0.28490261071525
                0.5215   0.015194859206082
 s    8 1.00
                  6665  -0.00029326965268655
                  1000  -0.0023180354739745
                   228  -0.011499786038565
                 64.71  -0.046826727009787
                 21.06   -0.12846616875047
                 7.495   -0.30126627246289
                 2.797   -0.25563070233011
                0.5215      1.093793361012
 s    1 1.00
                0.1596                   1
 p    3 1.00
                 9.439   0.056979251590039
                 2.002    0.31320721150073
                0.5456    0.76037674173753
 p    1 1.00
                0.1517                   1
 d    1 1.00
                  0.55                   1

32 0
 s    3 1.00
                 13.01   0.033498726389998
                 1.962    0.23480080117413
                0.4446     0.8136829578829
 s    1 1.00
                 0.122                   1
 p    1 1.00
                 0.727                   1

33 0
 s    3 1.00
                 13.01   0.033498726389998
                 1.962    0.23480080117413
                0.4446     0.8136829578829
 s    1 1.00
                 0.122                   1
 p    1 1.00
                 0.727                   1

34 0
 s    3 1.00
                 13.01   0.033498726389998
                 1.962    0.23480080117413
                0.4446     0.8136829578829
 s    1 1.00
                 0.122                   1
 p    1 1.00
                 0.727                   1

35 0
 s    3 1.00
                 13.01   0.033498726389998
                 1.962    0.23480080117413
                0.4446     0.8136829578829
 s    1 1.00
                 0.122                   1
 p    1 1.00
                 0.727                   1

36 0
 s    3 1.00
                 13.01   0.033498726389998
                 1.962    0.23480080117413
                0.4446     0.8136829578829
 s    1 1.00
                 0.122                   1
 p    1 1.00
                 0.727                   1

37 0
 s    3 1.00
                 13.01   0.033498726389998
                 1.962    0.23480080117413
                0.4446     0.8136829578829
 s    1 1.00
                 0.122                   1
 p    1 1.00
                 0.727                   1

[5d]
[7f]
[9g]

[MO]
 Sym= A
 Ene=               0
 Spin= Alpha
 Occup=    1.00000
   1    3.5312759101109e-07
   2    -4.2321553639041e-08
   3    -2.5398829545743e-06
   4    -1.3797767812833e-08
   5    4.2852655206487e-08
   6    8.7155909075133e-07
   7    -2.3365521610345e-08
   8    3.1638982484295e-07
   9    1.7846982265316e-06
  10    -7.9533099042204e-08
  11    -8.2038672691582e-10
  12    2.3827144078755e-08
  13    -3.902864230927e-10
  14    -2.2350153471514e-10
  15    -6.5649363116438e-07
  16    4.5702338305116e-06
  17    -1.5934744215304e-08
  18    4.7062410521919e-08
  19    1.2023037670282e-07
  20    1.2656911093568e-07
  21    -8.8963796743953e-07
  22    9.281116899685e-10
  23    -3.2867656099621e-08
  24    -6.6062155498094e-09
  25    -5.9130184018429e-06
  26    -0.00020590147995788
  27    -8.2297378496673e-05
  28    -0.00027958002303006
  29    0.00087168756705009
  30    0.00034961487819594
  31    -0.00023583871281092
  32    0.00066698122499893
  33    0.00016812861491199
  34    -2.4970750294456e-05
  35    -3.6780254933486e-06
  36    -5.6165456963694e-05
  37    -4.4662574017386e-06
  38    -3.5389306421475e-06
  39    -0.00073020417985401
  40    -0.00060074315117409
  41    -0.00063914388429135
  42    -7.7327058528105e-05
  43    0.00048331776758821
  44    -8.0397521520014e-05
  45    0.00010560195518386
  46    -7.4861240802664e-05
  47    0.00013015479813112
  48    -6.2843906646303e-05
  49    -6.5923426670624e-05
  50    3.8908874204986e-05
  51    -3.8670271225148e-05
  52    4.0548579316606e-05
  53    -0.034050727102645
  54    -0.00039668177112069
  55    0.0032075282486049
  56    0.00024033900327351
  57    -4.0197178868566e-05
  58    -0.00019310761188216
  59    0.00089471583846008
  60    0.00083085409312237
  61    -0.00094628671839101
  62    -9.1885186310885e-06
  63    0.00013597233371102
  64    0.00013875268099306
  65    2.042184460918e-05
  66    -9.6599268896005e-05
  67    -0.0046185828087992
  68    -0.00014599668662839
  69    0.00050602259989582
  70    -7.5110730632415e-05
  71    1.9655553584558e-05
  72    -3.7065756555314e-05
  73    0.00043013483578925
  74    0.00017577278227592
  75    -1.6447128643082e-06
  76    6.1371201680254e-06
  77    9.8110768595292e-06
  78    -3.6861001600649e-05
  79    -1.7350339729116e-05
  80    1.5319311183652e-05
  81    -0.00013618917669645
  82    1.9163768523262e-05
  83    2.7618566616295e-05
  84    2.6567460715529e-05
  85    -5.8424729956896e-05
  86       1.0014847720281
  87    0.0052331195045553
  88    -0.012795277690805
  89    -0.00013767139453432
  90    0.00016810407345326
  91    4.1435716034423e-05
  92    -0.00055679921131967
  93    0.0015547567120904
  94    -2.4679646122855e-05
  95    1.7758082841777e-05
  96    0.00032899075532808
  97    4.1650447224211e-05
  98    -8.8345738819898e-05
  99    6.658203023103e-05
 100    -0.00011927549935602
 101    0.00020414867343207
 102    5.5202863152419e-05
 103    6.0369793988729e-05
 104    -3.6760577666143e-05
 105    6.3702993562522e-05
 106    -2.3710894257405e-05
 107    -6.1517889583484e-05
 108    -2.1887130810039e-06
 109    1.3517900076114e-05
 110    -0.0001050165620941
 111    -0.00046040092902336
 112    -1.0461309525396e-06
 113    3.8916831546499e-05
 114    -1.5319488020305e-05
 115    -0.0019435399459206
 116    -3.3212307968458e-05
 117    2.858902540482e-05
 118    7.3551669648199e-06
 119    -8.8478067846038e-06
 120    -3.7085638080497e-06
 121    1.2019401012429e-05
 122    -0.00023705123852063
 123    -0.00012974643332793
 124    2.9862535776251e-06
 125    -1.3884221932726e-05
 126    1.2445308525119e-05
 127    1.907748488979e-06
 128    -1.3665712854486e-05
 129    0.00021183733604545
 130    0.0012458381602329
 131    0.00022077338197945
 132    0.00028739084321366
 133    0.00024105163658009
 134    0.00021776546488857
 135    0.0013729515925888
 136    -0.00026247111757809
 137    7.2696023749777e-05
 138    -0.00032343120641268
 139     0.033306418961846
 140    -5.4167843968687e-05
 141    0.0034356556390764
 142    -0.00011035721089288
 143    5.0462435693745e-05
 144    7.6030849439624e-05
 145    -0.0013304338960182
 146    0.0010303072977205
 147    0.0007340828361707
 148    3.6523506131989e-05
 149    5.183148353727e-05
 150    -4.0817331730596e-05
 151    -4.4161019416317e-06
 152    9.0051904365584e-05
 153    2.0505437553054e-05
 154    0.00015183075405245
 155    -2.0656717799465e-06
 156    -3.838928871004e-06
 157    -4.0376508467958e-06
 158    -1.5695837875137e-05
 159    -2.9001533816552e-05
 160    6.559669675905e-06
 161    1.0097821476619e-05
 162    6.0351098196531e-06
 163    0.00065372520629726
 164    1.3825425657106e-05
 165    -0.00015430589252749
 166    -1.7954664712425e-05
 167    6.5167652857188e-06
 168    5.7827249564526e-06
 169    0.00020638596406482
 170    -2.1942369761191e-05
 171    -2.2305783784324e-05
 172    2.4107098811084e-06
 173    1.6479491329789e-05
 174    -3.6891937207612e-06
 175    2.0011354729015e-06
 176    7.7498368452799e-08
 177    -0.00012488562352105
 178    0.00024350206613246
 179    -5.1196219247659e-05
 180    2.4024815113634e-05
 181    2.0016133407847e-05
 182    0.00016153630557156
 183    -6.3221355028856e-05
 184    -0.00054166194786095
 185    5.5210026275889e-05
 186    4.2442819545465e-06
 187    -4.995476505512e-05
 188    -0.00023001894356281
 189    0.00050367859658538
 190    2.4615328309791e-06
 191    -2.2390598912848e-05
 192    -8.5834329657669e-06
 193    3.1415316569596e-05
 194    -5.6779425189056e-07
 195    -5.3712716210817e-05
 196    -0.00012617919376636
 197    0.0001972293406957
 198    -3.9913857502466e-05
 199    2.6853904875475e-05
 200    3.4800994902065e-05
 201    -2.5391883770066e-06
 202    5.5341707250047e-05
 203    -9.5326740259494e-06
 204    3.8354937313109e-06
 205    5.4111026779689e-06
 206    -1.7065288801189e-05
 207    4.7835956514958e-05
 208    -8.427269030167e-06
 209    -3.4676466470777e-06
 210    4.1467176897643e-06
 211    -0.00012814470760724
 212    -2.2494302705866e-05
 213    0.00021919588366967
 214    1.3791336717597e-05
 215    -3.9881734479474e-06
 216    -8.1725705452025e-06
 217    6.7776574935183e-05
 218    -6.532851742126e-05
 219    -4.7372968721869e-05
 220    1.1841607106735e-06
 221    -8.0859811105965e-06
 222    6.4966858695545e-06
 223    2.6548780896916e-06
 224    -5.3722960250122e-06
 225    -1.8000821045016e-05
 226    -0.00024198814240655
 227    5.7396216784939e-05
 228    -1.1823182510915e-05
 229    -1.1646822133781e-05
 230    -1.60423588796e-05
 231    -0.00027221379431688
 232    2.7354399157844e-05
 233    -2.3547542785712e-05
 234    -5.2304089898248e-05
 235    -4.0244970090669e-05
 236    -0.00016193466641113
 237    0.00076851688005452
 238    1.3171584551414e-05
 239    1.1954538056921e-05
 240    -1.5089976003467e-05
 241    -0.00042186301654483
 242    -5.0321077898304e-05
 243    0.00037747784102176
 244    5.6949343416064e-06
 245    -2.0902335368144e-05
 246    2.4389747086496e-06
 247    1.6338474576066e-05
 248    1.5694382759731e-06
 249    -7.0143698310476e-06
 250    -1.0653846536649e-05
 251    -6.6908694268831e-07
 252    2.7719378924391e-06
 253    1.543524688152e-06
 254    -1.4168639231967e-05
 255    -1.7811299032151e-05
 256    -1.6409621271964e-06
 257    1.1653944671707e-07
 258    1.5602055853568e-06
 259    -2.9040338894365e-05
 260    -1.1100627623561e-05
 261    2.2308099300968e-05
 262    -4.8831158522968e-06