[Molden Format]
made by pyscf v[2.0.1]
[Atoms] (AU)
C   1   6     0.69100024066471     0.64692934207205    -3.48223131169301
H   2   1     2.68052439830868     1.13355088658700    -3.25784032593313
C   3   6    -0.36286361513219     0.85440132524594    -5.97030179418974
H   4   1    -2.35448549047279     0.36322488579172    -6.17995817793143
C   5   6     0.93697958957450     1.61209284601821    -8.05828437677121
H   6   1     0.01358296644616     2.85086245433209    -9.41980240085128
C   7   6     3.49095983212942     0.86501358647737    -8.58301400036413
H   8   1     4.39173101664678    -0.37544723242066    -7.20113468241566
H   9   1     1.55630230933075    -1.92953025305990    12.99630010416247
C   10   6     0.75233899775814    -2.21270439606481    11.10705728102219
H   11   1    -0.43433408177274    -3.90944857546550    11.22216085340412
C   12   6     2.86362581178706    -2.63237380607947     9.17926416456045
H   13   1     4.39038949912609    -1.24955421540245     9.49899813497433
H   14   1     3.74629220191363    -4.48798724300892     9.47414880959024
C   15   6     2.02478325613682    -2.42177285709634     6.44560829588644
C   16   6     3.88048732735477    -3.58795445234514     4.61402886975252
C   17   6    -0.18412382258602    -1.30464291234259     5.76021113872346
C   18   6    -2.10044360464350    -0.26837831858460     7.71610340967100
C   19   6    -3.08956938670431     2.35282328359417     6.88693925039594
C   20   6    -4.37372924086464    -2.09766595989678     7.93610724222001
C   21   6    -0.83850430601230     0.06372213486173    10.33002307638377
H   22   1     0.38411922151109     1.74281358582432    10.27380136542181
H   23   1    -2.30980003007874     0.45460143924521    11.73986301809809
H   24   1     4.58527064644668    -5.38706904487420     5.36778158031719
H   25   1     5.54944938085014    -2.37631462192748     4.35398898413318
H   26   1     3.06633019150423    -3.94118377050688     2.75255466040884
H   27   1    -4.17727778763735     2.26573369139522     5.12914900961283
H   28   1    -1.52662344944051     3.68001877445626     6.59540397144508
H   29   1    -4.32916174397830     3.13643051467482     8.35225460090378
H   30   1    -5.32329548508442    -2.36691813602939     6.11583672749896
H   31   1    -5.77989366602257    -1.33896741843465     9.25748940450990
H   32   1    -3.79310905208926    -3.96389819310853     8.61386170102686
C   33   6    -1.01100794811226    -1.06331657314144     3.11929490449947
C   34   6     0.37686231036534    -0.33275864505552     1.09165013605873
H   35   1    -3.01671213906703    -1.40297922279997     2.77827895090944
C   36   6    -0.64382707979370    -0.11591880174385    -1.42063131251064
H   37   1     2.35569259782137     0.17174499283897     1.33641070251401
H   38   1    -2.63317482980319    -0.60229203511219    -1.66119700387645
C   39   6     4.85727779250226     1.56932506344372   -10.63578143211247
C   40   6     7.45078580641309     0.70440198785573   -10.99998857146552
H   41   1     4.07326566832422     2.80126406203857   -12.08333786763668
O   42   8     8.78463246786107     1.26137953491899   -12.79761289932761
H   43   1     8.17650804893433    -0.55247504818230    -9.47232163774676
[GTO]
1 0
 s    6 1.00
             3047.5249  0.0018347001629433
             457.36951    0.01403730124668
             103.94869   0.068842606114048
             29.210155    0.23218442062076
              9.286663    0.46794134155879
              3.163927    0.36231203217765
 s    3 1.00
             7.8682724   -0.11933240861517
             1.8812885   -0.16085421161283
             0.5442493     1.1434564825515
 s    1 1.00
             0.1687144                   1
 p    3 1.00
             7.8682724   0.068999095584993
             1.8812885    0.31642397975315
             0.5442493    0.74430825237435
 p    1 1.00
             0.1687144                   1
 d    1 1.00
                   0.8                   1

2 0
 s    3 1.00
             18.731137    0.03349459952309
             2.8253937    0.23472694665786
             0.6401217    0.81375731841339
 s    1 1.00
             0.1612778                   1

3 0
 s    6 1.00
             3047.5249  0.0018347001629433
             457.36951    0.01403730124668
             103.94869   0.068842606114048
             29.210155    0.23218442062076
              9.286663    0.46794134155879
              3.163927    0.36231203217765
 s    3 1.00
             7.8682724   -0.11933240861517
             1.8812885   -0.16085421161283
             0.5442493     1.1434564825515
 s    1 1.00
             0.1687144                   1
 p    3 1.00
             7.8682724   0.068999095584993
             1.8812885    0.31642397975315
             0.5442493    0.74430825237435
 p    1 1.00
             0.1687144                   1
 d    1 1.00
                   0.8                   1

4 0
 s    3 1.00
             18.731137    0.03349459952309
             2.8253937    0.23472694665786
             0.6401217    0.81375731841339
 s    1 1.00
             0.1612778                   1

5 0
 s    6 1.00
             3047.5249  0.0018347001629433
             457.36951    0.01403730124668
             103.94869   0.068842606114048
             29.210155    0.23218442062076
              9.286663    0.46794134155879
              3.163927    0.36231203217765
 s    3 1.00
             7.8682724   -0.11933240861517
             1.8812885   -0.16085421161283
             0.5442493     1.1434564825515
 s    1 1.00
             0.1687144                   1
 p    3 1.00
             7.8682724   0.068999095584993
             1.8812885    0.31642397975315
             0.5442493    0.74430825237435
 p    1 1.00
             0.1687144                   1
 d    1 1.00
                   0.8                   1

6 0
 s    3 1.00
             18.731137    0.03349459952309
             2.8253937    0.23472694665786
             0.6401217    0.81375731841339
 s    1 1.00
             0.1612778                   1

7 0
 s    6 1.00
             3047.5249  0.0018347001629433
             457.36951    0.01403730124668
             103.94869   0.068842606114048
             29.210155    0.23218442062076
              9.286663    0.46794134155879
              3.163927    0.36231203217765
 s    3 1.00
             7.8682724   -0.11933240861517
             1.8812885   -0.16085421161283
             0.5442493     1.1434564825515
 s    1 1.00
             0.1687144                   1
 p    3 1.00
             7.8682724   0.068999095584993
             1.8812885    0.31642397975315
             0.5442493    0.74430825237435
 p    1 1.00
             0.1687144                   1
 d    1 1.00
                   0.8                   1

8 0
 s    3 1.00
             18.731137    0.03349459952309
             2.8253937    0.23472694665786
             0.6401217    0.81375731841339
 s    1 1.00
             0.1612778                   1

9 0
 s    3 1.00
             18.731137    0.03349459952309
             2.8253937    0.23472694665786
             0.6401217    0.81375731841339
 s    1 1.00
             0.1612778                   1

10 0
 s    6 1.00
             3047.5249  0.0018347001629433
             457.36951    0.01403730124668
             103.94869   0.068842606114048
             29.210155    0.23218442062076
              9.286663    0.46794134155879
              3.163927    0.36231203217765
 s    3 1.00
             7.8682724   -0.11933240861517
             1.8812885   -0.16085421161283
             0.5442493     1.1434564825515
 s    1 1.00
             0.1687144                   1
 p    3 1.00
             7.8682724   0.068999095584993
             1.8812885    0.31642397975315
             0.5442493    0.74430825237435
 p    1 1.00
             0.1687144                   1
 d    1 1.00
                   0.8                   1

11 0
 s    3 1.00
             18.731137    0.03349459952309
             2.8253937    0.23472694665786
             0.6401217    0.81375731841339
 s    1 1.00
             0.1612778                   1

12 0
 s    6 1.00
             3047.5249  0.0018347001629433
             457.36951    0.01403730124668
             103.94869   0.068842606114048
             29.210155    0.23218442062076
              9.286663    0.46794134155879
              3.163927    0.36231203217765
 s    3 1.00
             7.8682724   -0.11933240861517
             1.8812885   -0.16085421161283
             0.5442493     1.1434564825515
 s    1 1.00
             0.1687144                   1
 p    3 1.00
             7.8682724   0.068999095584993
             1.8812885    0.31642397975315
             0.5442493    0.74430825237435
 p    1 1.00
             0.1687144                   1
 d    1 1.00
                   0.8                   1

13 0
 s    3 1.00
             18.731137    0.03349459952309
             2.8253937    0.23472694665786
             0.6401217    0.81375731841339
 s    1 1.00
             0.1612778                   1

14 0
 s    3 1.00
             18.731137    0.03349459952309
             2.8253937    0.23472694665786
             0.6401217    0.81375731841339
 s    1 1.00
             0.1612778                   1

15 0
 s    6 1.00
             3047.5249  0.0018347001629433
             457.36951    0.01403730124668
             103.94869   0.068842606114048
             29.210155    0.23218442062076
              9.286663    0.46794134155879
              3.163927    0.36231203217765
 s    3 1.00
             7.8682724   -0.11933240861517
             1.8812885   -0.16085421161283
             0.5442493     1.1434564825515
 s    1 1.00
             0.1687144                   1
 p    3 1.00
             7.8682724   0.068999095584993
             1.8812885    0.31642397975315
             0.5442493    0.74430825237435
 p    1 1.00
             0.1687144                   1
 d    1 1.00
                   0.8                   1

16 0
 s    6 1.00
             3047.5249  0.0018347001629433
             457.36951    0.01403730124668
             103.94869   0.068842606114048
             29.210155    0.23218442062076
              9.286663    0.46794134155879
              3.163927    0.36231203217765
 s    3 1.00
             7.8682724   -0.11933240861517
             1.8812885   -0.16085421161283
             0.5442493     1.1434564825515
 s    1 1.00
             0.1687144                   1
 p    3 1.00
             7.8682724   0.068999095584993
             1.8812885    0.31642397975315
             0.5442493    0.74430825237435
 p    1 1.00
             0.1687144                   1
 d    1 1.00
                   0.8                   1

17 0
 s    6 1.00
             3047.5249  0.0018347001629433
             457.36951    0.01403730124668
             103.94869   0.068842606114048
             29.210155    0.23218442062076
              9.286663    0.46794134155879
              3.163927    0.36231203217765
 s    3 1.00
             7.8682724   -0.11933240861517
             1.8812885   -0.16085421161283
             0.5442493     1.1434564825515
 s    1 1.00
             0.1687144                   1
 p    3 1.00
             7.8682724   0.068999095584993
             1.8812885    0.31642397975315
             0.5442493    0.74430825237435
 p    1 1.00
             0.1687144                   1
 d    1 1.00
                   0.8                   1

18 0
 s    6 1.00
             3047.5249  0.0018347001629433
             457.36951    0.01403730124668
             103.94869   0.068842606114048
             29.210155    0.23218442062076
              9.286663    0.46794134155879
              3.163927    0.36231203217765
 s    3 1.00
             7.8682724   -0.11933240861517
             1.8812885   -0.16085421161283
             0.5442493     1.1434564825515
 s    1 1.00
             0.1687144                   1
 p    3 1.00
             7.8682724   0.068999095584993
             1.8812885    0.31642397975315
             0.5442493    0.74430825237435
 p    1 1.00
             0.1687144                   1
 d    1 1.00
                   0.8                   1

19 0
 s    6 1.00
             3047.5249  0.0018347001629433
             457.36951    0.01403730124668
             103.94869   0.068842606114048
             29.210155    0.23218442062076
              9.286663    0.46794134155879
              3.163927    0.36231203217765
 s    3 1.00
             7.8682724   -0.11933240861517
             1.8812885   -0.16085421161283
             0.5442493     1.1434564825515
 s    1 1.00
             0.1687144                   1
 p    3 1.00
             7.8682724   0.068999095584993
             1.8812885    0.31642397975315
             0.5442493    0.74430825237435
 p    1 1.00
             0.1687144                   1
 d    1 1.00
                   0.8                   1

20 0
 s    6 1.00
             3047.5249  0.0018347001629433
             457.36951    0.01403730124668
             103.94869   0.068842606114048
             29.210155    0.23218442062076
              9.286663    0.46794134155879
              3.163927    0.36231203217765
 s    3 1.00
             7.8682724   -0.11933240861517
             1.8812885   -0.16085421161283
             0.5442493     1.1434564825515
 s    1 1.00
             0.1687144                   1
 p    3 1.00
             7.8682724   0.068999095584993
             1.8812885    0.31642397975315
             0.5442493    0.74430825237435
 p    1 1.00
             0.1687144                   1
 d    1 1.00
                   0.8                   1

21 0
 s    6 1.00
             3047.5249  0.0018347001629433
             457.36951    0.01403730124668
             103.94869   0.068842606114048
             29.210155    0.23218442062076
              9.286663    0.46794134155879
              3.163927    0.36231203217765
 s    3 1.00
             7.8682724   -0.11933240861517
             1.8812885   -0.16085421161283
             0.5442493     1.1434564825515
 s    1 1.00
             0.1687144                   1
 p    3 1.00
             7.8682724   0.068999095584993
             1.8812885    0.31642397975315
             0.5442493    0.74430825237435
 p    1 1.00
             0.1687144                   1
 d    1 1.00
                   0.8                   1

22 0
 s    3 1.00
             18.731137    0.03349459952309
             2.8253937    0.23472694665786
             0.6401217    0.81375731841339
 s    1 1.00
             0.1612778                   1

23 0
 s    3 1.00
             18.731137    0.03349459952309
             2.8253937    0.23472694665786
             0.6401217    0.81375731841339
 s    1 1.00
             0.1612778                   1

24 0
 s    3 1.00
             18.731137    0.03349459952309
             2.8253937    0.23472694665786
             0.6401217    0.81375731841339
 s    1 1.00
             0.1612778                   1

25 0
 s    3 1.00
             18.731137    0.03349459952309
             2.8253937    0.23472694665786
             0.6401217    0.81375731841339
 s    1 1.00
             0.1612778                   1

26 0
 s    3 1.00
             18.731137    0.03349459952309
             2.8253937    0.23472694665786
             0.6401217    0.81375731841339
 s    1 1.00
             0.1612778                   1

27 0
 s    3 1.00
             18.731137    0.03349459952309
             2.8253937    0.23472694665786
             0.6401217    0.81375731841339
 s    1 1.00
             0.1612778                   1

28 0
 s    3 1.00
             18.731137    0.03349459952309
             2.8253937    0.23472694665786
             0.6401217    0.81375731841339
 s    1 1.00
             0.1612778                   1

29 0
 s    3 1.00
             18.731137    0.03349459952309
             2.8253937    0.23472694665786
             0.6401217    0.81375731841339
 s    1 1.00
             0.1612778                   1

30 0
 s    3 1.00
             18.731137    0.03349459952309
             2.8253937    0.23472694665786
             0.6401217    0.81375731841339
 s    1 1.00
             0.1612778                   1

31 0
 s    3 1.00
             18.731137    0.03349459952309
             2.8253937    0.23472694665786
             0.6401217    0.81375731841339
 s    1 1.00
             0.1612778                   1

32 0
 s    3 1.00
             18.731137    0.03349459952309
             2.8253937    0.23472694665786
             0.6401217    0.81375731841339
 s    1 1.00
             0.1612778                   1

33 0
 s    6 1.00
             3047.5249  0.0018347001629433
             457.36951    0.01403730124668
             103.94869   0.068842606114048
             29.210155    0.23218442062076
              9.286663    0.46794134155879
              3.163927    0.36231203217765
 s    3 1.00
             7.8682724   -0.11933240861517
             1.8812885   -0.16085421161283
             0.5442493     1.1434564825515
 s    1 1.00
             0.1687144                   1
 p    3 1.00
             7.8682724   0.068999095584993
             1.8812885    0.31642397975315
             0.5442493    0.74430825237435
 p    1 1.00
             0.1687144                   1
 d    1 1.00
                   0.8                   1

34 0
 s    6 1.00
             3047.5249  0.0018347001629433
             457.36951    0.01403730124668
             103.94869   0.068842606114048
             29.210155    0.23218442062076
              9.286663    0.46794134155879
              3.163927    0.36231203217765
 s    3 1.00
             7.8682724   -0.11933240861517
             1.8812885   -0.16085421161283
             0.5442493     1.1434564825515
 s    1 1.00
             0.1687144                   1
 p    3 1.00
             7.8682724   0.068999095584993
             1.8812885    0.31642397975315
             0.5442493    0.74430825237435
 p    1 1.00
             0.1687144                   1
 d    1 1.00
                   0.8                   1

35 0
 s    3 1.00
             18.731137    0.03349459952309
             2.8253937    0.23472694665786
             0.6401217    0.81375731841339
 s    1 1.00
             0.1612778                   1

36 0
 s    6 1.00
             3047.5249  0.0018347001629433
             457.36951    0.01403730124668
             103.94869   0.068842606114048
             29.210155    0.23218442062076
              9.286663    0.46794134155879
              3.163927    0.36231203217765
 s    3 1.00
             7.8682724   -0.11933240861517
             1.8812885   -0.16085421161283
             0.5442493     1.1434564825515
 s    1 1.00
             0.1687144                   1
 p    3 1.00
             7.8682724   0.068999095584993
             1.8812885    0.31642397975315
             0.5442493    0.74430825237435
 p    1 1.00
             0.1687144                   1
 d    1 1.00
                   0.8                   1

37 0
 s    3 1.00
             18.731137    0.03349459952309
             2.8253937    0.23472694665786
             0.6401217    0.81375731841339
 s    1 1.00
             0.1612778                   1

38 0
 s    3 1.00
             18.731137    0.03349459952309
             2.8253937    0.23472694665786
             0.6401217    0.81375731841339
 s    1 1.00
             0.1612778                   1

39 0
 s    6 1.00
             3047.5249  0.0018347001629433
             457.36951    0.01403730124668
             103.94869   0.068842606114048
             29.210155    0.23218442062076
              9.286663    0.46794134155879
              3.163927    0.36231203217765
 s    3 1.00
             7.8682724   -0.11933240861517
             1.8812885   -0.16085421161283
             0.5442493     1.1434564825515
 s    1 1.00
             0.1687144                   1
 p    3 1.00
             7.8682724   0.068999095584993
             1.8812885    0.31642397975315
             0.5442493    0.74430825237435
 p    1 1.00
             0.1687144                   1
 d    1 1.00
                   0.8                   1

40 0
 s    6 1.00
             3047.5249  0.0018347001629433
             457.36951    0.01403730124668
             103.94869   0.068842606114048
             29.210155    0.23218442062076
              9.286663    0.46794134155879
              3.163927    0.36231203217765
 s    3 1.00
             7.8682724   -0.11933240861517
             1.8812885   -0.16085421161283
             0.5442493     1.1434564825515
 s    1 1.00
             0.1687144                   1
 p    3 1.00
             7.8682724   0.068999095584993
             1.8812885    0.31642397975315
             0.5442493    0.74430825237435
 p    1 1.00
             0.1687144                   1
 d    1 1.00
                   0.8                   1

41 0
 s    3 1.00
             18.731137    0.03349459952309
             2.8253937    0.23472694665786
             0.6401217    0.81375731841339
 s    1 1.00
             0.1612778                   1

42 0
 s    6 1.00
             5484.6717   0.001831099805527
             825.23495   0.013950098518422
             188.04696    0.06844509273075
               52.9645    0.23271427528445
              16.89757    0.47019295006289
             5.7996353    0.35852086192309
 s    3 1.00
             15.539616   -0.11077750382508
             3.5999336   -0.14802630511126
             1.0137618     1.1307670390447
 s    1 1.00
             0.2700058                   1
 p    3 1.00
             15.539616   0.070874299543311
             3.5999336    0.33975279781076
             1.0137618    0.72715859531445
 p    1 1.00
             0.2700058                   1
 d    1 1.00
                   0.8                   1

43 0
 s    3 1.00
             18.731137    0.03349459952309
             2.8253937    0.23472694665786
             0.6401217    0.81375731841339
 s    1 1.00
             0.1612778                   1

[5d]
[7f]
[9g]

[MO]
 Sym= A
 Ene=               0
 Spin= Alpha
 Occup=    1.00000
   1    -4.4396291862554e-06
   2    -3.5360055833618e-05
   3    0.00048106969395641
   4    -1.3968550027581e-05
   5    1.4789226054177e-05
   6    1.6737894469098e-06
   7    -3.3048521482513e-05
   8    -4.435223483695e-05
   9    -0.00029968817034612
  10    1.3002519666348e-05
  11    9.629347919304e-06
  12    3.9225798749113e-06
  13    -1.2933936681168e-06
  14    1.807469683693e-06
  15    -8.1221399435314e-06
  16    -1.6811297293738e-05
  17    7.0395653064469e-06
  18    1.1861135190203e-05
  19    -0.00092532277015428
  20    -2.1836842702678e-05
  21    -6.3765009806617e-06
  22    3.7585618514056e-05
  23    -0.00058603467686434
  24    1.8541650894449e-05
  25    -4.0192961103384e-05
  26    -1.9665701696261e-05
  27    1.5354941605148e-05
  28    -8.5261688097227e-06
  29    -1.5793395222587e-05
  30    -1.5144758135075e-05
  31    -1.7264217309112e-05
  32    -0.00011843318977025
  33    -3.1864626988844e-05
  34    -0.00020022855050809
  35    0.0027664083793619
  36    6.5448666265993e-05
  37    6.2000140571783e-06
  38    -5.3179891410485e-05
  39    0.0011593168419161
  40    -0.0006872948982041
  41    0.00041721503632761
  42    -1.4630787616961e-05
  43    -4.3452216159464e-05
  44    -1.524078601892e-05
  45    6.321510245436e-05
  46    -4.1511890593088e-05
  47    2.0626768423783e-05
  48    0.00022623608578161
  49    -2.6395085532377e-06
  50    -6.3592664975537e-05
  51    -0.0021597115030506
  52    -0.0001966814875125
  53    6.0985843858722e-05
  54    4.4287495711399e-05
  55    0.0022073404172933
  56    -0.00073105223877907
  57    -0.00036707821752947
  58    9.2935255402876e-05
  59    -7.0648382430994e-06
  60    -8.2852870729903e-05
  61    -5.5919275281492e-05
  62    3.9795158767929e-05
  63    -0.00016214430972537
  64    -8.3065294134959e-05
  65    -9.345831355084e-08
  66    4.5688320254576e-07
  67    -1.9350817812665e-08
  68    -1.1405696234939e-07
  69    -8.629972747826e-07
  70    1.7962248322046e-07
  71    -2.353967171666e-07
  72    -7.173192198962e-08
  73    7.9063483270522e-07
  74    3.8161453281547e-07
  75    -9.7784041886865e-08
  76    1.1981681608624e-07
  77    9.313461116161e-08
  78    2.4279736783975e-08
  79    4.4837157435534e-08
  80    9.8796888237175e-08
  81    6.205941444927e-08
  82    5.4341021124116e-07
  83    9.0904780797666e-08
  84    9.7919750130361e-07
  85    5.9997200252218e-06
  86    -3.3083187787184e-07
  87    3.3421152120081e-07
  88    -2.7657346272726e-07
  89    6.7312937287579e-08
  90    -2.4966895321082e-06
  91    -3.0293433905341e-06
  92    -8.9067201655249e-08
  93    -1.6238732119636e-08
  94    1.3441242904201e-07
  95    -1.8687059146445e-07
  96    8.6582674324294e-08
  97    2.211777172144e-07
  98    5.7002088850254e-07
  99    -4.0259982480086e-07
 100    -7.5194838130497e-07
 101    -2.5866589756915e-07
 102    -1.2996557865142e-06
 103    2.8265723312545e-05
 104    -8.8478469550861e-07
 105    2.6146409596248e-07
 106    -3.6691109805835e-08
 107    -2.5014699655487e-06
 108    3.0834346428941e-06
 109    -2.4817439884581e-05
 110    3.5328571908196e-07
 111    7.2350014083993e-07
 112    -2.9927493965951e-07
 113    5.2976269412766e-08
 114    -2.337780581763e-07
 115    2.2509696251011e-07
 116    1.9250091356649e-06
 117    -1.5524085801197e-05
 118    2.3279693945575e-07
 119    2.8243336779014e-07
 120    -7.696532099569e-07
 121    6.7534469396198e-06
 122    -6.8734900320278e-06
 123    -2.4448772514039e-07
 124    3.0685187565608e-07
 125    9.8626509513564e-08
 126    -4.0243586771795e-07
 127    -3.0117782579719e-07
 128    2.0552479499044e-07
 129    6.2028996081247e-07
 130    3.9828147388967e-06
 131    -3.1880347512244e-05
 132    1.4512356593984e-06
 133    -7.6809938006385e-07
 134    -1.5069485058571e-06
 135    -2.8646573433862e-05
 136    9.6925812897315e-06
 137    4.7448368544958e-05
 138    -1.4392815983551e-06
 139    -6.6679655774096e-07
 140    8.2665101380279e-07
 141    -2.0296183675306e-07
 142    9.1938686440202e-07
 143    4.0642017501073e-07
 144    2.9927992353636e-06
 145    -3.3319202395097e-05
 146    2.3713213442458e-07
 147    1.1367186508862e-07
 148    1.4503216929052e-06
 149    -1.6724343337854e-05
 150    1.1597501032707e-05
 151    -3.1092295965737e-06
 152    8.0022832148231e-08
 153    2.0223498886965e-07
 154    -5.337315833354e-07
 155    -4.1458119554204e-07
 156    3.2160738509796e-07
 157    1.6052879835883e-07
 158    1.5179784536506e-06
 159    -8.3034260709778e-06
 160    1.2819160721137e-07
 161    4.1373794325629e-08
 162    -1.2248123368122e-07
 163    4.8635760947045e-07
 164    3.2200310067933e-06
 165    9.7257110833459e-07
 166    -8.149673427075e-09
 167    1.7833517845992e-07
 168    -3.6479402543297e-08
 169    2.7395133079567e-07
 170    -7.8747742766459e-08
 171    -6.6760744851793e-09
 172    -1.1145548493525e-07
 173    -9.729966946555e-08
 174    -1.9885499736072e-07
 175    5.3681164011951e-08
 176    4.8044140768456e-07
 177    4.7523488631392e-06
 178    -1.1482046044372e-06
 179    9.4154863461064e-07
 180    -6.6050828146488e-08
 181    4.2991631235285e-07
 182    -1.1986488475105e-07
 183    4.3619077211349e-07
 184    2.780580716169e-07
 185    -1.2935333360937e-07
 186    -6.8898217537494e-07
 187    1.1827359588233e-05
 188    -3.478535174702e-07
 189    -1.4423706432465e-07
 190    -8.3702437851107e-07
 191    -1.6068810225695e-06
 192    -2.498499774897e-06
 193    -4.1425633005396e-06
 194    2.5047549450365e-07
 195    3.3092005874543e-07
 196    2.3625418878496e-07
 197    -2.6053925235514e-07
 198    2.1288474291657e-07
 199    -4.1508333867417e-07
 200    4.9894402059966e-07
 201    -1.8780536751903e-07
 202    -1.1682516306537e-06
 203    -3.1064352217182e-08
 204    -2.181943819492e-06
 205    1.033230563762e-06
 206    2.6165267213816e-07
 207    1.1686982340508e-06
 208    6.9801032697811e-07
 209    2.8821547942583e-07
 210    2.5291966533819e-06
 211    2.2119981426111e-07
 212    -6.1479975369622e-08
 213    3.2407697778862e-07
 214    -6.5636686640316e-07
 215    -9.7984091818935e-07
 216    4.9956276507687e-06
 217    3.660665320673e-07
 218    9.6046398868221e-07
 219    -9.8738505986708e-08
 220    -1.6013946826301e-06
 221    -1.340352793318e-06
 222    -8.0088115925417e-06
 223    0.00014219419041927
 224    2.4087388821702e-07
 225    2.3510941161644e-06
 226    -3.1323302914669e-06
 227    4.454529354831e-05
 228    7.3928023571479e-06
 229    -2.949652765696e-05
 230    2.8312419740861e-06
 231    -9.1185007623998e-07
 232    -1.948211597944e-06
 233    5.8947061926673e-07
 234    3.7716797293836e-07
 235    1.5326582707464e-06
 236    8.7620397835972e-06
 237    -0.00019536307315194
 238    -2.2187904486881e-06
 239    -3.6238997365866e-06
 240    5.7074935550504e-06
 241    8.3499381482747e-05
 242    2.4417521633841e-05
 243    -1.5202977369698e-05
 244    -3.1614169080182e-06
 245    7.8167923188605e-07
 246    2.7610256171578e-06
 247    -9.3526194609071e-07
 248    3.1179441999276e-07
 249    1.0613272335619e-06
 250    -3.4554144794544e-06
 251    4.9013729422009e-07
 252    5.6184855314211e-06
 253    5.5650007524813e-05
 254    -2.8834703174143e-06
 255    -9.657788941392e-07
 256    -9.2898353906506e-06
 257     5.11729551412e-05
 258    1.5732013385751e-05
 259    0.00014942673384822
 260    -4.7173676804037e-07
 261    4.5074566261784e-06
 262    -1.4953830966472e-06
 263    -3.3526291594599e-06
 264    3.0409718240008e-06
 265    -5.9000658175418e-06
 266    -6.2667221734494e-06
 267    9.152782538083e-06
 268    2.0233441249127e-05
 269    3.126678854178e-05
 270    6.2468753542763e-05
 271    -0.0018360893255475
 272    -8.4934620076033e-05
 273     6.04082351475e-05
 274    -3.9570206504908e-05
 275    -0.0014463461608899
 276    -0.00043914958813758
 277    0.0016982197996283
 278    2.4897078796713e-05
 279    0.00019058829432831
 280    -8.1472563338183e-05