[Molden Format]
made by pyscf v[2.0.1]
[Atoms] (AU)
C   1   6     0.69100024066471     0.64692934207205    -3.48223131169301
H   2   1     2.68052439830868     1.13355088658700    -3.25784032593313
C   3   6    -0.36286361513219     0.85440132524594    -5.97030179418974
H   4   1    -2.35448549047279     0.36322488579172    -6.17995817793143
C   5   6     0.93697958957450     1.61209284601821    -8.05828437677121
H   6   1     1.52220939200985     3.58023657898303    -8.21595213017833
C   7   6     1.59282573286669    -0.05175011382745   -10.09734693546315
H   8   1     0.99474836942587    -2.01839690080961    -9.91207388765078
H   9   1     1.55630230933075    -1.92953025305990    12.99630010416247
C   10   6     0.75233899775814    -2.21270439606481    11.10705728102219
H   11   1    -0.43433408177274    -3.90944857546550    11.22216085340412
C   12   6     2.86362581178706    -2.63237380607947     9.17926416456045
H   13   1     4.39038949912609    -1.24955421540245     9.49899813497433
H   14   1     3.74629220191363    -4.48798724300892     9.47414880959024
C   15   6     2.02478325613682    -2.42177285709634     6.44560829588644
C   16   6     3.88048732735477    -3.58795445234514     4.61402886975252
C   17   6    -0.18412382258602    -1.30464291234259     5.76021113872346
C   18   6    -2.10044360464350    -0.26837831858460     7.71610340967100
C   19   6    -3.08956938670431     2.35282328359417     6.88693925039594
C   20   6    -4.37372924086464    -2.09766595989678     7.93610724222001
C   21   6    -0.83850430601230     0.06372213486173    10.33002307638377
H   22   1     0.38411922151109     1.74281358582432    10.27380136542181
H   23   1    -2.30980003007874     0.45460143924521    11.73986301809809
H   24   1     4.58527064644668    -5.38706904487420     5.36778158031719
H   25   1     5.54944938085014    -2.37631462192748     4.35398898413318
H   26   1     3.06633019150423    -3.94118377050688     2.75255466040884
H   27   1    -4.17727778763735     2.26573369139522     5.12914900961283
H   28   1    -1.52662344944051     3.68001877445626     6.59540397144508
H   29   1    -4.32916174397830     3.13643051467482     8.35225460090378
H   30   1    -5.32329548508442    -2.36691813602939     6.11583672749896
H   31   1    -5.77989366602257    -1.33896741843465     9.25748940450990
H   32   1    -3.79310905208926    -3.96389819310853     8.61386170102686
C   33   6    -1.01100794811226    -1.06331657314144     3.11929490449947
C   34   6     0.37686231036534    -0.33275864505552     1.09165013605873
H   35   1    -3.01671213906703    -1.40297922279997     2.77827895090944
C   36   6    -0.64382707979370    -0.11591880174385    -1.42063131251064
H   37   1     2.35569259782137     0.17174499283897     1.33641070251401
H   38   1    -2.63317482980319    -0.60229203511219    -1.66119700387645
C   39   6     2.88089126504443     0.61821658123040   -12.21129238571255
C   40   6     3.45664863859100    -1.22033421200677   -14.18493293343049
H   41   1     3.53070761900678     2.54536442784122   -12.51396089296279
O   42   8     4.60321296142939    -0.74877588551315   -16.13014426558594
H   43   1     2.75622344406002    -3.16930929543288   -13.79624335354022
[GTO]
1 0
 s    6 1.00
             3047.5249  0.0018347001629433
             457.36951    0.01403730124668
             103.94869   0.068842606114048
             29.210155    0.23218442062076
              9.286663    0.46794134155879
              3.163927    0.36231203217765
 s    3 1.00
             7.8682724   -0.11933240861517
             1.8812885   -0.16085421161283
             0.5442493     1.1434564825515
 s    1 1.00
             0.1687144                   1
 p    3 1.00
             7.8682724   0.068999095584993
             1.8812885    0.31642397975315
             0.5442493    0.74430825237435
 p    1 1.00
             0.1687144                   1
 d    1 1.00
                   0.8                   1

2 0
 s    3 1.00
             18.731137    0.03349459952309
             2.8253937    0.23472694665786
             0.6401217    0.81375731841339
 s    1 1.00
             0.1612778                   1

3 0
 s    6 1.00
             3047.5249  0.0018347001629433
             457.36951    0.01403730124668
             103.94869   0.068842606114048
             29.210155    0.23218442062076
              9.286663    0.46794134155879
              3.163927    0.36231203217765
 s    3 1.00
             7.8682724   -0.11933240861517
             1.8812885   -0.16085421161283
             0.5442493     1.1434564825515
 s    1 1.00
             0.1687144                   1
 p    3 1.00
             7.8682724   0.068999095584993
             1.8812885    0.31642397975315
             0.5442493    0.74430825237435
 p    1 1.00
             0.1687144                   1
 d    1 1.00
                   0.8                   1

4 0
 s    3 1.00
             18.731137    0.03349459952309
             2.8253937    0.23472694665786
             0.6401217    0.81375731841339
 s    1 1.00
             0.1612778                   1

5 0
 s    6 1.00
             3047.5249  0.0018347001629433
             457.36951    0.01403730124668
             103.94869   0.068842606114048
             29.210155    0.23218442062076
              9.286663    0.46794134155879
              3.163927    0.36231203217765
 s    3 1.00
             7.8682724   -0.11933240861517
             1.8812885   -0.16085421161283
             0.5442493     1.1434564825515
 s    1 1.00
             0.1687144                   1
 p    3 1.00
             7.8682724   0.068999095584993
             1.8812885    0.31642397975315
             0.5442493    0.74430825237435
 p    1 1.00
             0.1687144                   1
 d    1 1.00
                   0.8                   1

6 0
 s    3 1.00
             18.731137    0.03349459952309
             2.8253937    0.23472694665786
             0.6401217    0.81375731841339
 s    1 1.00
             0.1612778                   1

7 0
 s    6 1.00
             3047.5249  0.0018347001629433
             457.36951    0.01403730124668
             103.94869   0.068842606114048
             29.210155    0.23218442062076
              9.286663    0.46794134155879
              3.163927    0.36231203217765
 s    3 1.00
             7.8682724   -0.11933240861517
             1.8812885   -0.16085421161283
             0.5442493     1.1434564825515
 s    1 1.00
             0.1687144                   1
 p    3 1.00
             7.8682724   0.068999095584993
             1.8812885    0.31642397975315
             0.5442493    0.74430825237435
 p    1 1.00
             0.1687144                   1
 d    1 1.00
                   0.8                   1

8 0
 s    3 1.00
             18.731137    0.03349459952309
             2.8253937    0.23472694665786
             0.6401217    0.81375731841339
 s    1 1.00
             0.1612778                   1

9 0
 s    3 1.00
             18.731137    0.03349459952309
             2.8253937    0.23472694665786
             0.6401217    0.81375731841339
 s    1 1.00
             0.1612778                   1

10 0
 s    6 1.00
             3047.5249  0.0018347001629433
             457.36951    0.01403730124668
             103.94869   0.068842606114048
             29.210155    0.23218442062076
              9.286663    0.46794134155879
              3.163927    0.36231203217765
 s    3 1.00
             7.8682724   -0.11933240861517
             1.8812885   -0.16085421161283
             0.5442493     1.1434564825515
 s    1 1.00
             0.1687144                   1
 p    3 1.00
             7.8682724   0.068999095584993
             1.8812885    0.31642397975315
             0.5442493    0.74430825237435
 p    1 1.00
             0.1687144                   1
 d    1 1.00
                   0.8                   1

11 0
 s    3 1.00
             18.731137    0.03349459952309
             2.8253937    0.23472694665786
             0.6401217    0.81375731841339
 s    1 1.00
             0.1612778                   1

12 0
 s    6 1.00
             3047.5249  0.0018347001629433
             457.36951    0.01403730124668
             103.94869   0.068842606114048
             29.210155    0.23218442062076
              9.286663    0.46794134155879
              3.163927    0.36231203217765
 s    3 1.00
             7.8682724   -0.11933240861517
             1.8812885   -0.16085421161283
             0.5442493     1.1434564825515
 s    1 1.00
             0.1687144                   1
 p    3 1.00
             7.8682724   0.068999095584993
             1.8812885    0.31642397975315
             0.5442493    0.74430825237435
 p    1 1.00
             0.1687144                   1
 d    1 1.00
                   0.8                   1

13 0
 s    3 1.00
             18.731137    0.03349459952309
             2.8253937    0.23472694665786
             0.6401217    0.81375731841339
 s    1 1.00
             0.1612778                   1

14 0
 s    3 1.00
             18.731137    0.03349459952309
             2.8253937    0.23472694665786
             0.6401217    0.81375731841339
 s    1 1.00
             0.1612778                   1

15 0
 s    6 1.00
             3047.5249  0.0018347001629433
             457.36951    0.01403730124668
             103.94869   0.068842606114048
             29.210155    0.23218442062076
              9.286663    0.46794134155879
              3.163927    0.36231203217765
 s    3 1.00
             7.8682724   -0.11933240861517
             1.8812885   -0.16085421161283
             0.5442493     1.1434564825515
 s    1 1.00
             0.1687144                   1
 p    3 1.00
             7.8682724   0.068999095584993
             1.8812885    0.31642397975315
             0.5442493    0.74430825237435
 p    1 1.00
             0.1687144                   1
 d    1 1.00
                   0.8                   1

16 0
 s    6 1.00
             3047.5249  0.0018347001629433
             457.36951    0.01403730124668
             103.94869   0.068842606114048
             29.210155    0.23218442062076
              9.286663    0.46794134155879
              3.163927    0.36231203217765
 s    3 1.00
             7.8682724   -0.11933240861517
             1.8812885   -0.16085421161283
             0.5442493     1.1434564825515
 s    1 1.00
             0.1687144                   1
 p    3 1.00
             7.8682724   0.068999095584993
             1.8812885    0.31642397975315
             0.5442493    0.74430825237435
 p    1 1.00
             0.1687144                   1
 d    1 1.00
                   0.8                   1

17 0
 s    6 1.00
             3047.5249  0.0018347001629433
             457.36951    0.01403730124668
             103.94869   0.068842606114048
             29.210155    0.23218442062076
              9.286663    0.46794134155879
              3.163927    0.36231203217765
 s    3 1.00
             7.8682724   -0.11933240861517
             1.8812885   -0.16085421161283
             0.5442493     1.1434564825515
 s    1 1.00
             0.1687144                   1
 p    3 1.00
             7.8682724   0.068999095584993
             1.8812885    0.31642397975315
             0.5442493    0.74430825237435
 p    1 1.00
             0.1687144                   1
 d    1 1.00
                   0.8                   1

18 0
 s    6 1.00
             3047.5249  0.0018347001629433
             457.36951    0.01403730124668
             103.94869   0.068842606114048
             29.210155    0.23218442062076
              9.286663    0.46794134155879
              3.163927    0.36231203217765
 s    3 1.00
             7.8682724   -0.11933240861517
             1.8812885   -0.16085421161283
             0.5442493     1.1434564825515
 s    1 1.00
             0.1687144                   1
 p    3 1.00
             7.8682724   0.068999095584993
             1.8812885    0.31642397975315
             0.5442493    0.74430825237435
 p    1 1.00
             0.1687144                   1
 d    1 1.00
                   0.8                   1

19 0
 s    6 1.00
             3047.5249  0.0018347001629433
             457.36951    0.01403730124668
             103.94869   0.068842606114048
             29.210155    0.23218442062076
              9.286663    0.46794134155879
              3.163927    0.36231203217765
 s    3 1.00
             7.8682724   -0.11933240861517
             1.8812885   -0.16085421161283
             0.5442493     1.1434564825515
 s    1 1.00
             0.1687144                   1
 p    3 1.00
             7.8682724   0.068999095584993
             1.8812885    0.31642397975315
             0.5442493    0.74430825237435
 p    1 1.00
             0.1687144                   1
 d    1 1.00
                   0.8                   1

20 0
 s    6 1.00
             3047.5249  0.0018347001629433
             457.36951    0.01403730124668
             103.94869   0.068842606114048
             29.210155    0.23218442062076
              9.286663    0.46794134155879
              3.163927    0.36231203217765
 s    3 1.00
             7.8682724   -0.11933240861517
             1.8812885   -0.16085421161283
             0.5442493     1.1434564825515
 s    1 1.00
             0.1687144                   1
 p    3 1.00
             7.8682724   0.068999095584993
             1.8812885    0.31642397975315
             0.5442493    0.74430825237435
 p    1 1.00
             0.1687144                   1
 d    1 1.00
                   0.8                   1

21 0
 s    6 1.00
             3047.5249  0.0018347001629433
             457.36951    0.01403730124668
             103.94869   0.068842606114048
             29.210155    0.23218442062076
              9.286663    0.46794134155879
              3.163927    0.36231203217765
 s    3 1.00
             7.8682724   -0.11933240861517
             1.8812885   -0.16085421161283
             0.5442493     1.1434564825515
 s    1 1.00
             0.1687144                   1
 p    3 1.00
             7.8682724   0.068999095584993
             1.8812885    0.31642397975315
             0.5442493    0.74430825237435
 p    1 1.00
             0.1687144                   1
 d    1 1.00
                   0.8                   1

22 0
 s    3 1.00
             18.731137    0.03349459952309
             2.8253937    0.23472694665786
             0.6401217    0.81375731841339
 s    1 1.00
             0.1612778                   1

23 0
 s    3 1.00
             18.731137    0.03349459952309
             2.8253937    0.23472694665786
             0.6401217    0.81375731841339
 s    1 1.00
             0.1612778                   1

24 0
 s    3 1.00
             18.731137    0.03349459952309
             2.8253937    0.23472694665786
             0.6401217    0.81375731841339
 s    1 1.00
             0.1612778                   1

25 0
 s    3 1.00
             18.731137    0.03349459952309
             2.8253937    0.23472694665786
             0.6401217    0.81375731841339
 s    1 1.00
             0.1612778                   1

26 0
 s    3 1.00
             18.731137    0.03349459952309
             2.8253937    0.23472694665786
             0.6401217    0.81375731841339
 s    1 1.00
             0.1612778                   1

27 0
 s    3 1.00
             18.731137    0.03349459952309
             2.8253937    0.23472694665786
             0.6401217    0.81375731841339
 s    1 1.00
             0.1612778                   1

28 0
 s    3 1.00
             18.731137    0.03349459952309
             2.8253937    0.23472694665786
             0.6401217    0.81375731841339
 s    1 1.00
             0.1612778                   1

29 0
 s    3 1.00
             18.731137    0.03349459952309
             2.8253937    0.23472694665786
             0.6401217    0.81375731841339
 s    1 1.00
             0.1612778                   1

30 0
 s    3 1.00
             18.731137    0.03349459952309
             2.8253937    0.23472694665786
             0.6401217    0.81375731841339
 s    1 1.00
             0.1612778                   1

31 0
 s    3 1.00
             18.731137    0.03349459952309
             2.8253937    0.23472694665786
             0.6401217    0.81375731841339
 s    1 1.00
             0.1612778                   1

32 0
 s    3 1.00
             18.731137    0.03349459952309
             2.8253937    0.23472694665786
             0.6401217    0.81375731841339
 s    1 1.00
             0.1612778                   1

33 0
 s    6 1.00
             3047.5249  0.0018347001629433
             457.36951    0.01403730124668
             103.94869   0.068842606114048
             29.210155    0.23218442062076
              9.286663    0.46794134155879
              3.163927    0.36231203217765
 s    3 1.00
             7.8682724   -0.11933240861517
             1.8812885   -0.16085421161283
             0.5442493     1.1434564825515
 s    1 1.00
             0.1687144                   1
 p    3 1.00
             7.8682724   0.068999095584993
             1.8812885    0.31642397975315
             0.5442493    0.74430825237435
 p    1 1.00
             0.1687144                   1
 d    1 1.00
                   0.8                   1

34 0
 s    6 1.00
             3047.5249  0.0018347001629433
             457.36951    0.01403730124668
             103.94869   0.068842606114048
             29.210155    0.23218442062076
              9.286663    0.46794134155879
              3.163927    0.36231203217765
 s    3 1.00
             7.8682724   -0.11933240861517
             1.8812885   -0.16085421161283
             0.5442493     1.1434564825515
 s    1 1.00
             0.1687144                   1
 p    3 1.00
             7.8682724   0.068999095584993
             1.8812885    0.31642397975315
             0.5442493    0.74430825237435
 p    1 1.00
             0.1687144                   1
 d    1 1.00
                   0.8                   1

35 0
 s    3 1.00
             18.731137    0.03349459952309
             2.8253937    0.23472694665786
             0.6401217    0.81375731841339
 s    1 1.00
             0.1612778                   1

36 0
 s    6 1.00
             3047.5249  0.0018347001629433
             457.36951    0.01403730124668
             103.94869   0.068842606114048
             29.210155    0.23218442062076
              9.286663    0.46794134155879
              3.163927    0.36231203217765
 s    3 1.00
             7.8682724   -0.11933240861517
             1.8812885   -0.16085421161283
             0.5442493     1.1434564825515
 s    1 1.00
             0.1687144                   1
 p    3 1.00
             7.8682724   0.068999095584993
             1.8812885    0.31642397975315
             0.5442493    0.74430825237435
 p    1 1.00
             0.1687144                   1
 d    1 1.00
                   0.8                   1

37 0
 s    3 1.00
             18.731137    0.03349459952309
             2.8253937    0.23472694665786
             0.6401217    0.81375731841339
 s    1 1.00
             0.1612778                   1

38 0
 s    3 1.00
             18.731137    0.03349459952309
             2.8253937    0.23472694665786
             0.6401217    0.81375731841339
 s    1 1.00
             0.1612778                   1

39 0
 s    6 1.00
             3047.5249  0.0018347001629433
             457.36951    0.01403730124668
             103.94869   0.068842606114048
             29.210155    0.23218442062076
              9.286663    0.46794134155879
              3.163927    0.36231203217765
 s    3 1.00
             7.8682724   -0.11933240861517
             1.8812885   -0.16085421161283
             0.5442493     1.1434564825515
 s    1 1.00
             0.1687144                   1
 p    3 1.00
             7.8682724   0.068999095584993
             1.8812885    0.31642397975315
             0.5442493    0.74430825237435
 p    1 1.00
             0.1687144                   1
 d    1 1.00
                   0.8                   1

40 0
 s    6 1.00
             3047.5249  0.0018347001629433
             457.36951    0.01403730124668
             103.94869   0.068842606114048
             29.210155    0.23218442062076
              9.286663    0.46794134155879
              3.163927    0.36231203217765
 s    3 1.00
             7.8682724   -0.11933240861517
             1.8812885   -0.16085421161283
             0.5442493     1.1434564825515
 s    1 1.00
             0.1687144                   1
 p    3 1.00
             7.8682724   0.068999095584993
             1.8812885    0.31642397975315
             0.5442493    0.74430825237435
 p    1 1.00
             0.1687144                   1
 d    1 1.00
                   0.8                   1

41 0
 s    3 1.00
             18.731137    0.03349459952309
             2.8253937    0.23472694665786
             0.6401217    0.81375731841339
 s    1 1.00
             0.1612778                   1

42 0
 s    6 1.00
             5484.6717   0.001831099805527
             825.23495   0.013950098518422
             188.04696    0.06844509273075
               52.9645    0.23271427528445
              16.89757    0.47019295006289
             5.7996353    0.35852086192309
 s    3 1.00
             15.539616   -0.11077750382508
             3.5999336   -0.14802630511126
             1.0137618     1.1307670390447
 s    1 1.00
             0.2700058                   1
 p    3 1.00
             15.539616   0.070874299543311
             3.5999336    0.33975279781076
             1.0137618    0.72715859531445
 p    1 1.00
             0.2700058                   1
 d    1 1.00
                   0.8                   1

43 0
 s    3 1.00
             18.731137    0.03349459952309
             2.8253937    0.23472694665786
             0.6401217    0.81375731841339
 s    1 1.00
             0.1612778                   1

[5d]
[7f]
[9g]

[MO]
 Sym= A
 Ene=               0
 Spin= Alpha
 Occup=    1.00000
   1    9.1811046594658e-07
   2    1.2205287349003e-05
   3    -6.8081538049698e-05
   4    3.2217295392059e-06
   5    -9.4701327322969e-06
   6    -6.7605543991229e-06
   7    2.2664204584074e-05
   8    4.9510469058852e-06
   9    0.00013814902208342
  10    1.1905929458051e-06
  11    -4.9661425263935e-06
  12    -2.184692891403e-06
  13    -6.777733731223e-06
  14    3.6555695460302e-06
  15    4.5611592099941e-06
  16    -1.5744788782664e-05
  17    -3.173371130563e-06
  18    -7.9652875445981e-05
  19    -0.00032347329674044
  20    -2.6002025497582e-05
  21    8.1916944570167e-06
  22    4.0832555157016e-05
  23    -8.7008766425458e-05
  24    2.1661925793895e-05
  25    0.00039147312849281
  26    -1.4501703812963e-05
  27    1.2202306684218e-05
  28    1.572026124913e-07
  29    -2.3933496403498e-05
  30    1.0512389521653e-05
  31    4.4050194908165e-06
  32    -5.9820286782564e-06
  33    -2.9454293362582e-05
  34    -0.00019286430386763
  35    0.0025409587501703
  36    4.2149035152753e-05
  37    -1.0718678838514e-05
  38    -8.538858202959e-05
  39    -4.9891129310132e-05
  40    -0.0010756147766936
  41    -0.00046590762018577
  42    3.5332371486044e-05
  43    -4.8219318032708e-05
  44    5.303281334924e-05
  45    -2.4924339380556e-05
  46    -6.3396363214196e-06
  47    9.6990007089491e-06
  48    0.00016554688225331
  49    -4.1131514552384e-06
  50    -7.0896654868519e-05
  51    -0.0019724024882821
  52    -5.2534798617601e-05
  53    0.00012557443946357
  54    0.00016147083971464
  55    0.00049049586872875
  56    -0.0014193449058477
  57    -0.0016081915676869
  58    -1.0882700157788e-05
  59    -3.9258892144876e-05
  60    -0.00011032961134717
  61    -1.6367262425289e-06
  62    7.0129777444978e-05
  63    -0.0001672384256567
  64    -3.6519387865138e-05
  65    1.2236548329975e-07
  66    2.5656155643103e-07
  67    1.6474937202277e-08
  68    2.213557235399e-07
  69    -1.6129202894423e-06
  70    -9.384513803027e-08
  71    1.2380630253219e-07
  72    -1.0456427770748e-08
  73    1.4608884539177e-08
  74    -8.062642191589e-07
  75    -2.3959604131064e-07
  76    3.3495341652911e-08
  77    6.4193406240451e-08
  78    -2.2047463998564e-08
  79    -3.9622257026177e-08
  80    4.9886412315858e-08
  81    -2.3512647082438e-08
  82    -5.4091274758093e-08
  83    -5.7618391101454e-09
  84    8.0009075227505e-08
  85    5.1253636216752e-06
  86    -2.2225157491164e-07
  87    -8.207689217239e-08
  88    -3.6305653670703e-07
  89    -1.4597627888091e-06
  90    2.0973812438616e-06
  91    -1.1176806917723e-06
  92    -8.1011117725929e-08
  93    1.1158199837056e-07
  94    -1.1968781076175e-07
  95    -1.5938984577382e-08
  96    6.5655892030315e-08
  97    -2.4986185007997e-07
  98    -4.5218380257086e-07
  99    5.0402838548028e-08
 100    5.3519142550925e-07
 101    4.3327568596732e-08
 102    6.0489006910242e-07
 103    -6.4535820776264e-06
 104    -2.3804468445282e-08
 105    4.3850954056999e-07
 106    1.2258719324794e-07
 107    7.9449592717602e-06
 108    -6.6111642917817e-06
 109    -1.1678466484535e-05
 110    2.8932633564164e-07
 111    2.6523157438216e-07
 112    -1.2243898797752e-07
 113    -3.0926259703395e-07
 114    1.6741930873748e-07
 115    2.4867749253146e-07
 116    2.4157503173445e-06
 117    -1.7217628076302e-05
 118    2.8382369909464e-07
 119    -5.0348263020098e-07
 120    -4.2508224759902e-07
 121    3.3077758558996e-06
 122    1.6357383508183e-07
 123    4.9877057869833e-07
 124    2.8997095225797e-08
 125    1.1853834815839e-08
 126    8.9663815557357e-08
 127    2.2061817338237e-08
 128    1.169328948339e-07
 129    4.3769630909177e-07
 130    4.2839204489962e-06
 131    -1.716467948803e-05
 132    1.2728563315568e-07
 133    5.3407136769864e-07
 134    -1.8983813422138e-06
 135    8.6230958553643e-06
 136    -2.7852804662567e-06
 137    3.1378216537443e-05
 138    -1.0291392420426e-06
 139    -5.5226392871495e-07
 140    -3.3993660888485e-08
 141    -1.8897747348194e-07
 142    -1.745065151861e-08
 143    1.0322137512779e-07
 144    9.7825726222679e-07
 145    -5.9744963654864e-06
 146    -1.9296878773294e-07
 147    -4.6990831328947e-07
 148    6.9082520156227e-08
 149    -3.989798128152e-06
 150    5.6155076338024e-06
 151    -9.4482367624907e-07
 152    4.6863287894326e-07
 153    1.3048315324835e-07
 154    -5.3354769910362e-08
 155    -3.2684410662192e-07
 156    2.0680063629057e-07
 157    -6.1177297293804e-09
 158    -9.9581524426695e-08
 159    -2.8986194829582e-06
 160    -3.6824235642208e-07
 161    1.6336071661691e-07
 162    -9.8201163814532e-08
 163    1.9328069399364e-06
 164    9.6176516506428e-07
 165    -2.2561623648968e-07
 166    -9.3803982477754e-08
 167    -1.822389988304e-08
 168    1.6381644310383e-08
 169    8.0131364569526e-08
 170    -4.9824966014011e-08
 171    -1.5389117605082e-08
 172    1.7014313929324e-07
 173    1.4936283049628e-06
 174    3.2833487973715e-07
 175    4.1496365622304e-08
 176    -3.0553983582131e-07
 177    7.7610010331267e-07
 178    -2.6086704237094e-07
 179    1.3796653211145e-06
 180    -1.0243621681512e-07
 181    -3.2865412820408e-08
 182    3.4625513865219e-08
 183    2.1023191009084e-07
 184    -3.086196903955e-08
 185    1.1096492845186e-07
 186    1.146949160091e-06
 187    -3.1092692920129e-07
 188    8.4693862566444e-08
 189    -5.9536045460501e-08
 190    -4.7011568026686e-07
 191    -1.2592122893638e-06
 192    -1.1527125432547e-06
 193    2.4463784124821e-06
 194    -1.8175782828976e-07
 195    5.1341093874904e-08
 196    3.8581347040895e-08
 197    -3.1929746987445e-08
 198    4.9590519869406e-08
 199    3.1535436063566e-07
 200    8.3482291164837e-07
 201    -6.5820392577817e-08
 202    -1.4673015733181e-06
 203    8.367732332879e-07
 204    1.0044695116879e-06
 205    2.6869707804521e-07
 206    1.1048167595808e-06
 207    -1.020378729176e-06
 208    8.5192296633546e-06
 209    -3.2754594976725e-07
 210    1.873621723067e-06
 211    -3.6954080129135e-08
 212    -1.1301646055782e-06
 213    1.0419156178345e-07
 214    8.3252305447959e-07
 215    1.3501412293204e-07
 216    5.8085914279179e-07
 217    -1.4711365448749e-07
 218    -4.9198329327219e-07
 219    -5.6702779983147e-08
 220    -6.3385707959052e-07
 221    2.3093888519063e-07
 222    3.2682815541815e-06
 223    7.0023720045659e-06
 224    4.8540054350935e-07
 225    -2.6174447220982e-07
 226    -1.4235393118208e-06
 227    -8.9819265443857e-06
 228    -9.4991278810774e-06
 229    2.790989273289e-05
 230    7.5034668095676e-07
 231    1.3091442408647e-06
 232    7.9270857794314e-07
 233    -6.5155722740164e-07
 234    -1.3181840172569e-06
 235    1.0478192182449e-06
 236    8.6971845169503e-06
 237    -5.3078792925053e-05
 238    4.7569140562022e-07
 239    -1.699700095605e-06
 240    -1.2061188245997e-06
 241    1.9222623472676e-05
 242    8.6890827546821e-06
 243    5.7919888124006e-05
 244    -2.4321883407847e-06
 245    -3.2414469823491e-06
 246    -1.3103135202271e-06
 247    -1.2282398743883e-06
 248    -1.5325737074581e-06
 249    8.3971696747575e-07
 250    -6.9222337395412e-06
 251    1.1689690781283e-06
 252    1.0920226842798e-05
 253    -3.0245064316656e-05
 254    -2.6350985398079e-06
 255    8.0194335783297e-06
 256    -5.5059868017673e-06
 257    -1.5488941755769e-05
 258    -5.6943827429646e-05
 259    0.00010698778061643
 260    9.8398575023702e-07
 261    4.9991762049303e-06
 262    3.2949235142846e-06
 263    -2.3215787548521e-06
 264    -4.2855634684925e-06
 265    2.4062270990061e-06
 266    -1.3691770898066e-05
 267    5.3705860216646e-06
 268    -1.637896233747e-05
 269    3.1344878567578e-05
 270    6.2510635608354e-05
 271    -0.0018288428895389
 272    7.6741950541381e-06
 273    0.00010844798553301
 274    3.5119552319115e-05
 275    -0.0011020870931418
 276    -0.00033903206782828
 277    0.0019289644135186
 278    -0.00016830271820375
 279    9.8877012726223e-05