[Molden Format]
made by pyscf v[2.0.1]
[Atoms] (AU)
C   1   6     0.69100024066471     0.64692934207205    -3.48223131169301
H   2   1     2.68052439830868     1.13355088658700    -3.25784032593313
C   3   6    -0.36286361513219     0.85440132524594    -5.97030179418974
H   4   1    -2.35448549047279     0.36322488579172    -6.17995817793143
C   5   6     0.93697958957450     1.61209284601821    -8.05828437677121
H   6   1     0.14022243979667     3.08603065646166    -9.25562650474843
C   7   6     3.33155915073320     0.56926267114995    -8.78956929307971
H   8   1     4.10661901770469    -0.90506612570738    -7.57081623325171
H   9   1     1.55630230933075    -1.92953025305990    12.99630010416247
C   10   6     0.75233899775814    -2.21270439606481    11.10705728102219
H   11   1    -0.43433408177274    -3.90944857546550    11.22216085340412
C   12   6     2.86362581178706    -2.63237380607947     9.17926416456045
H   13   1     4.39038949912609    -1.24955421540245     9.49899813497433
H   14   1     3.74629220191363    -4.48798724300892     9.47414880959024
C   15   6     2.02478325613682    -2.42177285709634     6.44560829588644
C   16   6     3.88048732735477    -3.58795445234514     4.61402886975252
C   17   6    -0.18412382258602    -1.30464291234259     5.76021113872346
C   18   6    -2.10044360464350    -0.26837831858460     7.71610340967100
C   19   6    -3.08956938670431     2.35282328359417     6.88693925039594
C   20   6    -4.37372924086464    -2.09766595989678     7.93610724222001
C   21   6    -0.83850430601230     0.06372213486173    10.33002307638377
H   22   1     0.38411922151109     1.74281358582432    10.27380136542181
H   23   1    -2.30980003007874     0.45460143924521    11.73986301809809
H   24   1     4.58527064644668    -5.38706904487420     5.36778158031719
H   25   1     5.54944938085014    -2.37631462192748     4.35398898413318
H   26   1     3.06633019150423    -3.94118377050688     2.75255466040884
H   27   1    -4.17727778763735     2.26573369139522     5.12914900961283
H   28   1    -1.52662344944051     3.68001877445626     6.59540397144508
H   29   1    -4.32916174397830     3.13643051467482     8.35225460090378
H   30   1    -5.32329548508442    -2.36691813602939     6.11583672749896
H   31   1    -5.77989366602257    -1.33896741843465     9.25748940450990
H   32   1    -3.79310905208926    -3.96389819310853     8.61386170102686
C   33   6    -1.01100794811226    -1.06331657314144     3.11929490449947
C   34   6     0.37686231036534    -0.33275864505552     1.09165013605873
H   35   1    -3.01671213906703    -1.40297922279997     2.77827895090944
C   36   6    -0.64382707979370    -0.11591880174385    -1.42063131251064
H   37   1     2.35569259782137     0.17174499283897     1.33641070251401
H   38   1    -2.63317482980319    -0.60229203511219    -1.66119700387645
C   39   6     4.69106502259275     1.26188352336463   -10.85081981009206
C   40   6     7.11506387067225     0.08270412537969   -11.43459041306820
H   41   1     4.02727424636240     2.71762167762249   -12.14232148362751
O   42   8     8.43283181269616     0.61123359193353   -13.25254761350674
H   43   1     7.72125158488297    -1.39686243822724   -10.06214800755086
[GTO]
1 0
 s    6 1.00
             3047.5249  0.0018347001629433
             457.36951    0.01403730124668
             103.94869   0.068842606114048
             29.210155    0.23218442062076
              9.286663    0.46794134155879
              3.163927    0.36231203217765
 s    3 1.00
             7.8682724   -0.11933240861517
             1.8812885   -0.16085421161283
             0.5442493     1.1434564825515
 s    1 1.00
             0.1687144                   1
 p    3 1.00
             7.8682724   0.068999095584993
             1.8812885    0.31642397975315
             0.5442493    0.74430825237435
 p    1 1.00
             0.1687144                   1
 d    1 1.00
                   0.8                   1

2 0
 s    3 1.00
             18.731137    0.03349459952309
             2.8253937    0.23472694665786
             0.6401217    0.81375731841339
 s    1 1.00
             0.1612778                   1

3 0
 s    6 1.00
             3047.5249  0.0018347001629433
             457.36951    0.01403730124668
             103.94869   0.068842606114048
             29.210155    0.23218442062076
              9.286663    0.46794134155879
              3.163927    0.36231203217765
 s    3 1.00
             7.8682724   -0.11933240861517
             1.8812885   -0.16085421161283
             0.5442493     1.1434564825515
 s    1 1.00
             0.1687144                   1
 p    3 1.00
             7.8682724   0.068999095584993
             1.8812885    0.31642397975315
             0.5442493    0.74430825237435
 p    1 1.00
             0.1687144                   1
 d    1 1.00
                   0.8                   1

4 0
 s    3 1.00
             18.731137    0.03349459952309
             2.8253937    0.23472694665786
             0.6401217    0.81375731841339
 s    1 1.00
             0.1612778                   1

5 0
 s    6 1.00
             3047.5249  0.0018347001629433
             457.36951    0.01403730124668
             103.94869   0.068842606114048
             29.210155    0.23218442062076
              9.286663    0.46794134155879
              3.163927    0.36231203217765
 s    3 1.00
             7.8682724   -0.11933240861517
             1.8812885   -0.16085421161283
             0.5442493     1.1434564825515
 s    1 1.00
             0.1687144                   1
 p    3 1.00
             7.8682724   0.068999095584993
             1.8812885    0.31642397975315
             0.5442493    0.74430825237435
 p    1 1.00
             0.1687144                   1
 d    1 1.00
                   0.8                   1

6 0
 s    3 1.00
             18.731137    0.03349459952309
             2.8253937    0.23472694665786
             0.6401217    0.81375731841339
 s    1 1.00
             0.1612778                   1

7 0
 s    6 1.00
             3047.5249  0.0018347001629433
             457.36951    0.01403730124668
             103.94869   0.068842606114048
             29.210155    0.23218442062076
              9.286663    0.46794134155879
              3.163927    0.36231203217765
 s    3 1.00
             7.8682724   -0.11933240861517
             1.8812885   -0.16085421161283
             0.5442493     1.1434564825515
 s    1 1.00
             0.1687144                   1
 p    3 1.00
             7.8682724   0.068999095584993
             1.8812885    0.31642397975315
             0.5442493    0.74430825237435
 p    1 1.00
             0.1687144                   1
 d    1 1.00
                   0.8                   1

8 0
 s    3 1.00
             18.731137    0.03349459952309
             2.8253937    0.23472694665786
             0.6401217    0.81375731841339
 s    1 1.00
             0.1612778                   1

9 0
 s    3 1.00
             18.731137    0.03349459952309
             2.8253937    0.23472694665786
             0.6401217    0.81375731841339
 s    1 1.00
             0.1612778                   1

10 0
 s    6 1.00
             3047.5249  0.0018347001629433
             457.36951    0.01403730124668
             103.94869   0.068842606114048
             29.210155    0.23218442062076
              9.286663    0.46794134155879
              3.163927    0.36231203217765
 s    3 1.00
             7.8682724   -0.11933240861517
             1.8812885   -0.16085421161283
             0.5442493     1.1434564825515
 s    1 1.00
             0.1687144                   1
 p    3 1.00
             7.8682724   0.068999095584993
             1.8812885    0.31642397975315
             0.5442493    0.74430825237435
 p    1 1.00
             0.1687144                   1
 d    1 1.00
                   0.8                   1

11 0
 s    3 1.00
             18.731137    0.03349459952309
             2.8253937    0.23472694665786
             0.6401217    0.81375731841339
 s    1 1.00
             0.1612778                   1

12 0
 s    6 1.00
             3047.5249  0.0018347001629433
             457.36951    0.01403730124668
             103.94869   0.068842606114048
             29.210155    0.23218442062076
              9.286663    0.46794134155879
              3.163927    0.36231203217765
 s    3 1.00
             7.8682724   -0.11933240861517
             1.8812885   -0.16085421161283
             0.5442493     1.1434564825515
 s    1 1.00
             0.1687144                   1
 p    3 1.00
             7.8682724   0.068999095584993
             1.8812885    0.31642397975315
             0.5442493    0.74430825237435
 p    1 1.00
             0.1687144                   1
 d    1 1.00
                   0.8                   1

13 0
 s    3 1.00
             18.731137    0.03349459952309
             2.8253937    0.23472694665786
             0.6401217    0.81375731841339
 s    1 1.00
             0.1612778                   1

14 0
 s    3 1.00
             18.731137    0.03349459952309
             2.8253937    0.23472694665786
             0.6401217    0.81375731841339
 s    1 1.00
             0.1612778                   1

15 0
 s    6 1.00
             3047.5249  0.0018347001629433
             457.36951    0.01403730124668
             103.94869   0.068842606114048
             29.210155    0.23218442062076
              9.286663    0.46794134155879
              3.163927    0.36231203217765
 s    3 1.00
             7.8682724   -0.11933240861517
             1.8812885   -0.16085421161283
             0.5442493     1.1434564825515
 s    1 1.00
             0.1687144                   1
 p    3 1.00
             7.8682724   0.068999095584993
             1.8812885    0.31642397975315
             0.5442493    0.74430825237435
 p    1 1.00
             0.1687144                   1
 d    1 1.00
                   0.8                   1

16 0
 s    6 1.00
             3047.5249  0.0018347001629433
             457.36951    0.01403730124668
             103.94869   0.068842606114048
             29.210155    0.23218442062076
              9.286663    0.46794134155879
              3.163927    0.36231203217765
 s    3 1.00
             7.8682724   -0.11933240861517
             1.8812885   -0.16085421161283
             0.5442493     1.1434564825515
 s    1 1.00
             0.1687144                   1
 p    3 1.00
             7.8682724   0.068999095584993
             1.8812885    0.31642397975315
             0.5442493    0.74430825237435
 p    1 1.00
             0.1687144                   1
 d    1 1.00
                   0.8                   1

17 0
 s    6 1.00
             3047.5249  0.0018347001629433
             457.36951    0.01403730124668
             103.94869   0.068842606114048
             29.210155    0.23218442062076
              9.286663    0.46794134155879
              3.163927    0.36231203217765
 s    3 1.00
             7.8682724   -0.11933240861517
             1.8812885   -0.16085421161283
             0.5442493     1.1434564825515
 s    1 1.00
             0.1687144                   1
 p    3 1.00
             7.8682724   0.068999095584993
             1.8812885    0.31642397975315
             0.5442493    0.74430825237435
 p    1 1.00
             0.1687144                   1
 d    1 1.00
                   0.8                   1

18 0
 s    6 1.00
             3047.5249  0.0018347001629433
             457.36951    0.01403730124668
             103.94869   0.068842606114048
             29.210155    0.23218442062076
              9.286663    0.46794134155879
              3.163927    0.36231203217765
 s    3 1.00
             7.8682724   -0.11933240861517
             1.8812885   -0.16085421161283
             0.5442493     1.1434564825515
 s    1 1.00
             0.1687144                   1
 p    3 1.00
             7.8682724   0.068999095584993
             1.8812885    0.31642397975315
             0.5442493    0.74430825237435
 p    1 1.00
             0.1687144                   1
 d    1 1.00
                   0.8                   1

19 0
 s    6 1.00
             3047.5249  0.0018347001629433
             457.36951    0.01403730124668
             103.94869   0.068842606114048
             29.210155    0.23218442062076
              9.286663    0.46794134155879
              3.163927    0.36231203217765
 s    3 1.00
             7.8682724   -0.11933240861517
             1.8812885   -0.16085421161283
             0.5442493     1.1434564825515
 s    1 1.00
             0.1687144                   1
 p    3 1.00
             7.8682724   0.068999095584993
             1.8812885    0.31642397975315
             0.5442493    0.74430825237435
 p    1 1.00
             0.1687144                   1
 d    1 1.00
                   0.8                   1

20 0
 s    6 1.00
             3047.5249  0.0018347001629433
             457.36951    0.01403730124668
             103.94869   0.068842606114048
             29.210155    0.23218442062076
              9.286663    0.46794134155879
              3.163927    0.36231203217765
 s    3 1.00
             7.8682724   -0.11933240861517
             1.8812885   -0.16085421161283
             0.5442493     1.1434564825515
 s    1 1.00
             0.1687144                   1
 p    3 1.00
             7.8682724   0.068999095584993
             1.8812885    0.31642397975315
             0.5442493    0.74430825237435
 p    1 1.00
             0.1687144                   1
 d    1 1.00
                   0.8                   1

21 0
 s    6 1.00
             3047.5249  0.0018347001629433
             457.36951    0.01403730124668
             103.94869   0.068842606114048
             29.210155    0.23218442062076
              9.286663    0.46794134155879
              3.163927    0.36231203217765
 s    3 1.00
             7.8682724   -0.11933240861517
             1.8812885   -0.16085421161283
             0.5442493     1.1434564825515
 s    1 1.00
             0.1687144                   1
 p    3 1.00
             7.8682724   0.068999095584993
             1.8812885    0.31642397975315
             0.5442493    0.74430825237435
 p    1 1.00
             0.1687144                   1
 d    1 1.00
                   0.8                   1

22 0
 s    3 1.00
             18.731137    0.03349459952309
             2.8253937    0.23472694665786
             0.6401217    0.81375731841339
 s    1 1.00
             0.1612778                   1

23 0
 s    3 1.00
             18.731137    0.03349459952309
             2.8253937    0.23472694665786
             0.6401217    0.81375731841339
 s    1 1.00
             0.1612778                   1

24 0
 s    3 1.00
             18.731137    0.03349459952309
             2.8253937    0.23472694665786
             0.6401217    0.81375731841339
 s    1 1.00
             0.1612778                   1

25 0
 s    3 1.00
             18.731137    0.03349459952309
             2.8253937    0.23472694665786
             0.6401217    0.81375731841339
 s    1 1.00
             0.1612778                   1

26 0
 s    3 1.00
             18.731137    0.03349459952309
             2.8253937    0.23472694665786
             0.6401217    0.81375731841339
 s    1 1.00
             0.1612778                   1

27 0
 s    3 1.00
             18.731137    0.03349459952309
             2.8253937    0.23472694665786
             0.6401217    0.81375731841339
 s    1 1.00
             0.1612778                   1

28 0
 s    3 1.00
             18.731137    0.03349459952309
             2.8253937    0.23472694665786
             0.6401217    0.81375731841339
 s    1 1.00
             0.1612778                   1

29 0
 s    3 1.00
             18.731137    0.03349459952309
             2.8253937    0.23472694665786
             0.6401217    0.81375731841339
 s    1 1.00
             0.1612778                   1

30 0
 s    3 1.00
             18.731137    0.03349459952309
             2.8253937    0.23472694665786
             0.6401217    0.81375731841339
 s    1 1.00
             0.1612778                   1

31 0
 s    3 1.00
             18.731137    0.03349459952309
             2.8253937    0.23472694665786
             0.6401217    0.81375731841339
 s    1 1.00
             0.1612778                   1

32 0
 s    3 1.00
             18.731137    0.03349459952309
             2.8253937    0.23472694665786
             0.6401217    0.81375731841339
 s    1 1.00
             0.1612778                   1

33 0
 s    6 1.00
             3047.5249  0.0018347001629433
             457.36951    0.01403730124668
             103.94869   0.068842606114048
             29.210155    0.23218442062076
              9.286663    0.46794134155879
              3.163927    0.36231203217765
 s    3 1.00
             7.8682724   -0.11933240861517
             1.8812885   -0.16085421161283
             0.5442493     1.1434564825515
 s    1 1.00
             0.1687144                   1
 p    3 1.00
             7.8682724   0.068999095584993
             1.8812885    0.31642397975315
             0.5442493    0.74430825237435
 p    1 1.00
             0.1687144                   1
 d    1 1.00
                   0.8                   1

34 0
 s    6 1.00
             3047.5249  0.0018347001629433
             457.36951    0.01403730124668
             103.94869   0.068842606114048
             29.210155    0.23218442062076
              9.286663    0.46794134155879
              3.163927    0.36231203217765
 s    3 1.00
             7.8682724   -0.11933240861517
             1.8812885   -0.16085421161283
             0.5442493     1.1434564825515
 s    1 1.00
             0.1687144                   1
 p    3 1.00
             7.8682724   0.068999095584993
             1.8812885    0.31642397975315
             0.5442493    0.74430825237435
 p    1 1.00
             0.1687144                   1
 d    1 1.00
                   0.8                   1

35 0
 s    3 1.00
             18.731137    0.03349459952309
             2.8253937    0.23472694665786
             0.6401217    0.81375731841339
 s    1 1.00
             0.1612778                   1

36 0
 s    6 1.00
             3047.5249  0.0018347001629433
             457.36951    0.01403730124668
             103.94869   0.068842606114048
             29.210155    0.23218442062076
              9.286663    0.46794134155879
              3.163927    0.36231203217765
 s    3 1.00
             7.8682724   -0.11933240861517
             1.8812885   -0.16085421161283
             0.5442493     1.1434564825515
 s    1 1.00
             0.1687144                   1
 p    3 1.00
             7.8682724   0.068999095584993
             1.8812885    0.31642397975315
             0.5442493    0.74430825237435
 p    1 1.00
             0.1687144                   1
 d    1 1.00
                   0.8                   1

37 0
 s    3 1.00
             18.731137    0.03349459952309
             2.8253937    0.23472694665786
             0.6401217    0.81375731841339
 s    1 1.00
             0.1612778                   1

38 0
 s    3 1.00
             18.731137    0.03349459952309
             2.8253937    0.23472694665786
             0.6401217    0.81375731841339
 s    1 1.00
             0.1612778                   1

39 0
 s    6 1.00
             3047.5249  0.0018347001629433
             457.36951    0.01403730124668
             103.94869   0.068842606114048
             29.210155    0.23218442062076
              9.286663    0.46794134155879
              3.163927    0.36231203217765
 s    3 1.00
             7.8682724   -0.11933240861517
             1.8812885   -0.16085421161283
             0.5442493     1.1434564825515
 s    1 1.00
             0.1687144                   1
 p    3 1.00
             7.8682724   0.068999095584993
             1.8812885    0.31642397975315
             0.5442493    0.74430825237435
 p    1 1.00
             0.1687144                   1
 d    1 1.00
                   0.8                   1

40 0
 s    6 1.00
             3047.5249  0.0018347001629433
             457.36951    0.01403730124668
             103.94869   0.068842606114048
             29.210155    0.23218442062076
              9.286663    0.46794134155879
              3.163927    0.36231203217765
 s    3 1.00
             7.8682724   -0.11933240861517
             1.8812885   -0.16085421161283
             0.5442493     1.1434564825515
 s    1 1.00
             0.1687144                   1
 p    3 1.00
             7.8682724   0.068999095584993
             1.8812885    0.31642397975315
             0.5442493    0.74430825237435
 p    1 1.00
             0.1687144                   1
 d    1 1.00
                   0.8                   1

41 0
 s    3 1.00
             18.731137    0.03349459952309
             2.8253937    0.23472694665786
             0.6401217    0.81375731841339
 s    1 1.00
             0.1612778                   1

42 0
 s    6 1.00
             5484.6717   0.001831099805527
             825.23495   0.013950098518422
             188.04696    0.06844509273075
               52.9645    0.23271427528445
              16.89757    0.47019295006289
             5.7996353    0.35852086192309
 s    3 1.00
             15.539616   -0.11077750382508
             3.5999336   -0.14802630511126
             1.0137618     1.1307670390447
 s    1 1.00
             0.2700058                   1
 p    3 1.00
             15.539616   0.070874299543311
             3.5999336    0.33975279781076
             1.0137618    0.72715859531445
 p    1 1.00
             0.2700058                   1
 d    1 1.00
                   0.8                   1

43 0
 s    3 1.00
             18.731137    0.03349459952309
             2.8253937    0.23472694665786
             0.6401217    0.81375731841339
 s    1 1.00
             0.1612778                   1

[5d]
[7f]
[9g]

[MO]
 Sym= A
 Ene=               0
 Spin= Alpha
 Occup=    1.00000
   1    -2.8832475323133e-06
   2    -2.3373272364137e-05
   3    0.00035413696293557
   4    -8.8906238429418e-06
   5    1.5156289308441e-05
   6    -1.7729778844229e-07
   7    -4.3689413228479e-05
   8    -7.5084562977881e-05
   9    -0.00012848782115839
  10    8.7330032900559e-06
  11    4.8011189700813e-06
  12    3.5550828321878e-06
  13    -3.2934382071919e-06
  14    2.7161363566364e-06
  15    -2.5016104596829e-06
  16    -9.033140710696e-06
  17    3.3111366389028e-06
  18    -2.0932154099666e-05
  19    -0.00069156117200948
  20    -2.6293643194627e-05
  21    -5.0114907808379e-06
  22    3.6725606604966e-05
  23    -0.0004284077398393
  24    5.0533577923901e-05
  25    5.7638755943625e-05
  26    -1.6990363215301e-05
  27    1.5116032852038e-05
  28    -1.0893511046425e-05
  29    -1.6861949091492e-05
  30    -1.3976134821168e-05
  31    -8.3433646021253e-06
  32    -8.2315287703528e-05
  33    -3.0436287156537e-05
  34    -0.00019356100553538
  35    0.0026248512292504
  36    6.6104876688563e-05
  37    1.088833808494e-06
  38    -5.9426049587189e-05
  39    0.00099088990924623
  40    -0.00081200904926218
  41    0.00024882615825861
  42    -1.3656889977789e-05
  43    -5.1196576235473e-05
  44    -7.2956365336624e-06
  45    4.6175962922026e-05
  46    -5.0962906596272e-05
  47    1.6539448458058e-05
  48    0.00019966191733083
  49    -3.2625189587413e-06
  50    -6.7349922959038e-05
  51    -0.0020861547947494
  52    -0.00018451471442442
  53    8.1547060455132e-05
  54    5.9196542749194e-05
  55     0.001995168842729
  56    -0.00095897110153738
  57    -0.00052139586500008
  58    7.845258547267e-05
  59    -6.0142386077691e-06
  60    -9.1522007271131e-05
  61    -4.981737912291e-05
  62    4.874091313645e-05
  63    -0.00016537446789688
  64    -6.4595878479149e-05
  65    -3.5517904881476e-08
  66    3.4891974226221e-07
  67    -6.0015255446849e-09
  68    3.0474011211897e-08
  69    -9.9985545746766e-07
  70    8.7510106146479e-08
  71    -9.8251752700627e-08
  72    -9.1318487588959e-08
  73    4.7483541966541e-07
  74    -5.6741650339733e-08
  75    -1.5839087711004e-08
  76    9.381672096686e-08
  77    8.4886255219779e-08
  78    1.1688320975645e-08
  79    2.2421876966933e-08
  80    8.9650991878144e-08
  81    1.7522354344679e-08
  82    3.1984706898885e-07
  83    6.1585214965695e-08
  84    7.5402059069863e-07
  85    7.1527501462345e-06
  86    -3.8058611765645e-07
  87    2.4723886942539e-07
  88    -3.739234313337e-07
  89    -5.1825363260982e-07
  90    -8.7607335547246e-07
  91    -2.9455455507108e-06
  92    -9.6517427117603e-08
  93    3.8938465130873e-08
  94    1.8193400881383e-08
  95    -1.4715631150312e-07
  96    9.5964548895301e-08
  97    1.8819115855809e-08
  98    2.5365414777593e-07
  99    -2.96368181259e-07
 100    -3.5498465656652e-07
 101    -1.8612211173609e-07
 102    -8.6942117480848e-07
 103    1.8542368561793e-05
 104    -7.0963160528371e-07
 105    3.7324104414594e-07
 106    1.2808079897061e-07
 107    1.7426556221712e-06
 108    -1.5196264686786e-06
 109    -2.4458153228833e-05
 110    3.6460927754196e-07
 111    6.2700988161453e-07
 112    -2.5436442749075e-07
 113    3.5824336030055e-08
 114    -6.0846888583914e-08
 115    2.438543534214e-07
 116    2.1149481143786e-06
 117    -1.783358866354e-05
 118    2.9929271766895e-07
 119    2.476379028228e-08
 120    -7.0375520785728e-07
 121    6.6276456387165e-06
 122    -5.3457194116059e-06
 123    -1.2272222029993e-06
 124    2.4304494023627e-07
 125    1.4756692313841e-07
 126    -2.7079442442856e-07
 127    -2.6251236191504e-07
 128    2.3848691541454e-07
 129    6.2131275303981e-07
 130    4.4131236665465e-06
 131    -3.4329478473063e-05
 132    9.7338958762576e-07
 133    -6.6884142770701e-07
 134    -1.6592437558558e-06
 135    -1.5940011439334e-05
 136    8.1666264327787e-06
 137    5.097988845054e-05
 138    -1.5033354799909e-06
 139    -8.4197645553337e-07
 140    5.2840291435727e-07
 141    -2.3863907674949e-07
 142    6.4182136791977e-07
 143    4.0782032446873e-07
 144    3.2123577270358e-06
 145    -2.9212285309334e-05
 146    1.5079341545788e-07
 147    7.8242891536943e-08
 148    8.996460588335e-07
 149    -1.4877370766577e-05
 150    8.530840083968e-06
 151    -6.0633745349284e-07
 152    2.2338772986787e-07
 153    2.4354426244612e-07
 154    -3.2716911293065e-07
 155    -4.3025579680578e-07
 156    4.1848737746711e-07
 157    7.8983256630175e-08
 158    8.0086372744765e-07
 159    -4.9773798125893e-06
 160    -2.8355201540112e-08
 161    5.3380215914787e-09
 162    -5.589223319549e-09
 163    1.927417200979e-06
 164    1.8128830459835e-06
 165    4.4410420364194e-07
 166    -1.339627713111e-07
 167    2.0380614287669e-07
 168    -3.7467273801017e-08
 169    2.0143937516929e-07
 170    -1.400696010836e-07
 171    -5.0314534491705e-09
 172    3.658666447413e-08
 173    -1.4406920920392e-07
 174    -2.8553173177418e-08
 175    7.8844176755168e-08
 176    1.8213363499828e-07
 177    3.207108139557e-06
 178    -1.2922280970038e-06
 179    8.2218036025768e-07
 180    -6.2547819605586e-08
 181    2.4606633467828e-07
 182    -1.1117264091708e-07
 183    3.691466448173e-07
 184    1.4598259908997e-07
 185    -3.3789811612908e-08
 186    1.2113316260811e-07
 187    7.9597908596511e-06
 188    -2.0839163381523e-07
 189    -1.2528051377307e-07
 190    -8.3692258682042e-07
 191    -1.4142262039739e-06
 192    -1.6809079843312e-06
 193    -1.9755109816107e-06
 194    1.4275116457854e-07
 195    2.3298220566309e-07
 196    9.1690335579555e-08
 197    -2.0991680550736e-07
 198    1.650420255401e-07
 199    -1.6565116976561e-07
 200    4.6861320726167e-07
 201    -1.282171788095e-07
 202    -1.4417796218235e-06
 203    2.7019952885348e-07
 204    -1.2817150250585e-06
 205    7.4896807859216e-07
 206    6.6973273527236e-07
 207    7.6491238796243e-07
 208    1.672836180873e-06
 209    -8.2916024648407e-08
 210    2.6695833131427e-06
 211    -6.1550657336656e-09
 212    -6.5881057542029e-07
 213    2.7710785674082e-07
 214    1.0644184477051e-08
 215    -5.7324613344386e-07
 216    3.1715180876074e-06
 217    2.1954350783397e-07
 218    5.4706497305397e-07
 219    -1.3849389929363e-07
 220    -1.289918372641e-06
 221    -7.7391300780011e-07
 222    -3.9532209861276e-06
 223    0.00010086188410534
 224    -1.257388895916e-07
 225    2.1094710604661e-06
 226    -2.9587386433659e-06
 227    3.0467275557452e-05
 228    -1.0993364085843e-06
 229    1.3586780381905e-06
 230    2.1426607454857e-06
 231    3.0911008080456e-07
 232    -9.982288624081e-07
 233    7.3039073599733e-10
 234    -2.6638749811471e-07
 235    1.1360759176984e-06
 236    7.3166189396517e-06
 237    -0.00013159855229347
 238    -1.4419354526787e-06
 239    -3.0871494692097e-06
 240    2.9701422421096e-06
 241    6.1214222887805e-05
 242    1.7130698947041e-05
 243    1.9404503309486e-06
 244    -2.0240447876479e-06
 245    -7.1637670760876e-07
 246    1.8301438466814e-06
 247    -1.1923674321942e-06
 248    2.7559617206568e-07
 249    1.8618339635426e-06
 250    -3.9633950423762e-06
 251    1.2345209801635e-06
 252    1.1009913980477e-05
 253    -3.6151099719226e-05
 254    -1.9778859933057e-06
 255    -1.1012662817981e-07
 256    -7.5274052309901e-06
 257     4.52232339621e-06
 258    -2.571340720604e-06
 259    0.00015551661748691
 260    -1.3517272808198e-06
 261    5.6744549414248e-06
 262    -4.410070363241e-07
 263    -4.2868000275069e-06
 264    1.8860255948573e-06
 265    -3.4306584903549e-06
 266    -9.9782324452725e-06
 267    7.8153679564638e-06
 268    6.5572507032961e-06
 269    3.1097541599856e-05
 270    6.1209496661524e-05
 271    -0.0018113181765075
 272    -7.8309922550656e-05
 273    7.6222907228744e-05
 274    -2.9106771613515e-05
 275    -0.0013966681236554
 276    -0.00041184729883387
 277    0.0017416009557804
 278    -5.7083386319305e-06
 279    0.00018016168779759
 280    -9.7119195949219e-05