[Molden Format]
made by pyscf v[2.0.1]
[Atoms] (AU)
C   1   6     0.69100024066471     0.64692934207205    -3.48223131169301
H   2   1     2.68052439830868     1.13355088658700    -3.25784032593313
C   3   6    -0.36286361513219     0.85440132524594    -5.97030179418974
H   4   1    -2.35448549047279     0.36322488579172    -6.17995817793143
C   5   6     0.93697958957450     1.61209284601821    -8.05828437677121
H   6   1     2.04771873455416     3.34419409619576    -7.97445952172335
C   7   6     0.93181860145248     0.24539724069794   -10.40101785795171
H   8   1    -0.18866463604211    -1.48700602985521   -10.45595821195799
H   9   1     1.55630230933075    -1.92953025305990    12.99630010416247
C   10   6     0.75233899775814    -2.21270439606481    11.10705728102219
H   11   1    -0.43433408177274    -3.90944857546550    11.22216085340412
C   12   6     2.86362581178706    -2.63237380607947     9.17926416456045
H   13   1     4.39038949912609    -1.24955421540245     9.49899813497433
H   14   1     3.74629220191363    -4.48798724300892     9.47414880959024
C   15   6     2.02478325613682    -2.42177285709634     6.44560829588644
C   16   6     3.88048732735477    -3.58795445234514     4.61402886975252
C   17   6    -0.18412382258602    -1.30464291234259     5.76021113872346
C   18   6    -2.10044360464350    -0.26837831858460     7.71610340967100
C   19   6    -3.08956938670431     2.35282328359417     6.88693925039594
C   20   6    -4.37372924086464    -2.09766595989678     7.93610724222001
C   21   6    -0.83850430601230     0.06372213486173    10.33002307638377
H   22   1     0.38411922151109     1.74281358582432    10.27380136542181
H   23   1    -2.30980003007874     0.45460143924521    11.73986301809809
H   24   1     4.58527064644668    -5.38706904487420     5.36778158031719
H   25   1     5.54944938085014    -2.37631462192748     4.35398898413318
H   26   1     3.06633019150423    -3.94118377050688     2.75255466040884
H   27   1    -4.17727778763735     2.26573369139522     5.12914900961283
H   28   1    -1.52662344944051     3.68001877445626     6.59540397144508
H   29   1    -4.32916174397830     3.13643051467482     8.35225460090378
H   30   1    -5.32329548508442    -2.36691813602939     6.11583672749896
H   31   1    -5.77989366602257    -1.33896741843465     9.25748940450990
H   32   1    -3.79310905208926    -3.96389819310853     8.61386170102686
C   33   6    -1.01100794811226    -1.06331657314144     3.11929490449947
C   34   6     0.37686231036534    -0.33275864505552     1.09165013605873
H   35   1    -3.01671213906703    -1.40297922279997     2.77827895090944
C   36   6    -0.64382707979370    -0.11591880174385    -1.42063131251064
H   37   1     2.35569259782137     0.17174499283897     1.33641070251401
H   38   1    -2.63317482980319    -0.60229203511219    -1.66119700387645
C   39   6     2.19331151370285     0.92821726401642   -12.52684146370420
C   40   6     2.06658501336205    -0.59430170292716   -14.82312084011087
H   41   1     3.34297492540252     2.63137484242591   -12.59961951178576
O   42   8     3.14891962090165    -0.09254461622574   -16.79735885819125
H   43   1     0.86886987612456    -2.32059369084518   -14.66320417409860
[GTO]
1 0
 s    6 1.00
             3047.5249  0.0018347001629433
             457.36951    0.01403730124668
             103.94869   0.068842606114048
             29.210155    0.23218442062076
              9.286663    0.46794134155879
              3.163927    0.36231203217765
 s    3 1.00
             7.8682724   -0.11933240861517
             1.8812885   -0.16085421161283
             0.5442493     1.1434564825515
 s    1 1.00
             0.1687144                   1
 p    3 1.00
             7.8682724   0.068999095584993
             1.8812885    0.31642397975315
             0.5442493    0.74430825237435
 p    1 1.00
             0.1687144                   1
 d    1 1.00
                   0.8                   1

2 0
 s    3 1.00
             18.731137    0.03349459952309
             2.8253937    0.23472694665786
             0.6401217    0.81375731841339
 s    1 1.00
             0.1612778                   1

3 0
 s    6 1.00
             3047.5249  0.0018347001629433
             457.36951    0.01403730124668
             103.94869   0.068842606114048
             29.210155    0.23218442062076
              9.286663    0.46794134155879
              3.163927    0.36231203217765
 s    3 1.00
             7.8682724   -0.11933240861517
             1.8812885   -0.16085421161283
             0.5442493     1.1434564825515
 s    1 1.00
             0.1687144                   1
 p    3 1.00
             7.8682724   0.068999095584993
             1.8812885    0.31642397975315
             0.5442493    0.74430825237435
 p    1 1.00
             0.1687144                   1
 d    1 1.00
                   0.8                   1

4 0
 s    3 1.00
             18.731137    0.03349459952309
             2.8253937    0.23472694665786
             0.6401217    0.81375731841339
 s    1 1.00
             0.1612778                   1

5 0
 s    6 1.00
             3047.5249  0.0018347001629433
             457.36951    0.01403730124668
             103.94869   0.068842606114048
             29.210155    0.23218442062076
              9.286663    0.46794134155879
              3.163927    0.36231203217765
 s    3 1.00
             7.8682724   -0.11933240861517
             1.8812885   -0.16085421161283
             0.5442493     1.1434564825515
 s    1 1.00
             0.1687144                   1
 p    3 1.00
             7.8682724   0.068999095584993
             1.8812885    0.31642397975315
             0.5442493    0.74430825237435
 p    1 1.00
             0.1687144                   1
 d    1 1.00
                   0.8                   1

6 0
 s    3 1.00
             18.731137    0.03349459952309
             2.8253937    0.23472694665786
             0.6401217    0.81375731841339
 s    1 1.00
             0.1612778                   1

7 0
 s    6 1.00
             3047.5249  0.0018347001629433
             457.36951    0.01403730124668
             103.94869   0.068842606114048
             29.210155    0.23218442062076
              9.286663    0.46794134155879
              3.163927    0.36231203217765
 s    3 1.00
             7.8682724   -0.11933240861517
             1.8812885   -0.16085421161283
             0.5442493     1.1434564825515
 s    1 1.00
             0.1687144                   1
 p    3 1.00
             7.8682724   0.068999095584993
             1.8812885    0.31642397975315
             0.5442493    0.74430825237435
 p    1 1.00
             0.1687144                   1
 d    1 1.00
                   0.8                   1

8 0
 s    3 1.00
             18.731137    0.03349459952309
             2.8253937    0.23472694665786
             0.6401217    0.81375731841339
 s    1 1.00
             0.1612778                   1

9 0
 s    3 1.00
             18.731137    0.03349459952309
             2.8253937    0.23472694665786
             0.6401217    0.81375731841339
 s    1 1.00
             0.1612778                   1

10 0
 s    6 1.00
             3047.5249  0.0018347001629433
             457.36951    0.01403730124668
             103.94869   0.068842606114048
             29.210155    0.23218442062076
              9.286663    0.46794134155879
              3.163927    0.36231203217765
 s    3 1.00
             7.8682724   -0.11933240861517
             1.8812885   -0.16085421161283
             0.5442493     1.1434564825515
 s    1 1.00
             0.1687144                   1
 p    3 1.00
             7.8682724   0.068999095584993
             1.8812885    0.31642397975315
             0.5442493    0.74430825237435
 p    1 1.00
             0.1687144                   1
 d    1 1.00
                   0.8                   1

11 0
 s    3 1.00
             18.731137    0.03349459952309
             2.8253937    0.23472694665786
             0.6401217    0.81375731841339
 s    1 1.00
             0.1612778                   1

12 0
 s    6 1.00
             3047.5249  0.0018347001629433
             457.36951    0.01403730124668
             103.94869   0.068842606114048
             29.210155    0.23218442062076
              9.286663    0.46794134155879
              3.163927    0.36231203217765
 s    3 1.00
             7.8682724   -0.11933240861517
             1.8812885   -0.16085421161283
             0.5442493     1.1434564825515
 s    1 1.00
             0.1687144                   1
 p    3 1.00
             7.8682724   0.068999095584993
             1.8812885    0.31642397975315
             0.5442493    0.74430825237435
 p    1 1.00
             0.1687144                   1
 d    1 1.00
                   0.8                   1

13 0
 s    3 1.00
             18.731137    0.03349459952309
             2.8253937    0.23472694665786
             0.6401217    0.81375731841339
 s    1 1.00
             0.1612778                   1

14 0
 s    3 1.00
             18.731137    0.03349459952309
             2.8253937    0.23472694665786
             0.6401217    0.81375731841339
 s    1 1.00
             0.1612778                   1

15 0
 s    6 1.00
             3047.5249  0.0018347001629433
             457.36951    0.01403730124668
             103.94869   0.068842606114048
             29.210155    0.23218442062076
              9.286663    0.46794134155879
              3.163927    0.36231203217765
 s    3 1.00
             7.8682724   -0.11933240861517
             1.8812885   -0.16085421161283
             0.5442493     1.1434564825515
 s    1 1.00
             0.1687144                   1
 p    3 1.00
             7.8682724   0.068999095584993
             1.8812885    0.31642397975315
             0.5442493    0.74430825237435
 p    1 1.00
             0.1687144                   1
 d    1 1.00
                   0.8                   1

16 0
 s    6 1.00
             3047.5249  0.0018347001629433
             457.36951    0.01403730124668
             103.94869   0.068842606114048
             29.210155    0.23218442062076
              9.286663    0.46794134155879
              3.163927    0.36231203217765
 s    3 1.00
             7.8682724   -0.11933240861517
             1.8812885   -0.16085421161283
             0.5442493     1.1434564825515
 s    1 1.00
             0.1687144                   1
 p    3 1.00
             7.8682724   0.068999095584993
             1.8812885    0.31642397975315
             0.5442493    0.74430825237435
 p    1 1.00
             0.1687144                   1
 d    1 1.00
                   0.8                   1

17 0
 s    6 1.00
             3047.5249  0.0018347001629433
             457.36951    0.01403730124668
             103.94869   0.068842606114048
             29.210155    0.23218442062076
              9.286663    0.46794134155879
              3.163927    0.36231203217765
 s    3 1.00
             7.8682724   -0.11933240861517
             1.8812885   -0.16085421161283
             0.5442493     1.1434564825515
 s    1 1.00
             0.1687144                   1
 p    3 1.00
             7.8682724   0.068999095584993
             1.8812885    0.31642397975315
             0.5442493    0.74430825237435
 p    1 1.00
             0.1687144                   1
 d    1 1.00
                   0.8                   1

18 0
 s    6 1.00
             3047.5249  0.0018347001629433
             457.36951    0.01403730124668
             103.94869   0.068842606114048
             29.210155    0.23218442062076
              9.286663    0.46794134155879
              3.163927    0.36231203217765
 s    3 1.00
             7.8682724   -0.11933240861517
             1.8812885   -0.16085421161283
             0.5442493     1.1434564825515
 s    1 1.00
             0.1687144                   1
 p    3 1.00
             7.8682724   0.068999095584993
             1.8812885    0.31642397975315
             0.5442493    0.74430825237435
 p    1 1.00
             0.1687144                   1
 d    1 1.00
                   0.8                   1

19 0
 s    6 1.00
             3047.5249  0.0018347001629433
             457.36951    0.01403730124668
             103.94869   0.068842606114048
             29.210155    0.23218442062076
              9.286663    0.46794134155879
              3.163927    0.36231203217765
 s    3 1.00
             7.8682724   -0.11933240861517
             1.8812885   -0.16085421161283
             0.5442493     1.1434564825515
 s    1 1.00
             0.1687144                   1
 p    3 1.00
             7.8682724   0.068999095584993
             1.8812885    0.31642397975315
             0.5442493    0.74430825237435
 p    1 1.00
             0.1687144                   1
 d    1 1.00
                   0.8                   1

20 0
 s    6 1.00
             3047.5249  0.0018347001629433
             457.36951    0.01403730124668
             103.94869   0.068842606114048
             29.210155    0.23218442062076
              9.286663    0.46794134155879
              3.163927    0.36231203217765
 s    3 1.00
             7.8682724   -0.11933240861517
             1.8812885   -0.16085421161283
             0.5442493     1.1434564825515
 s    1 1.00
             0.1687144                   1
 p    3 1.00
             7.8682724   0.068999095584993
             1.8812885    0.31642397975315
             0.5442493    0.74430825237435
 p    1 1.00
             0.1687144                   1
 d    1 1.00
                   0.8                   1

21 0
 s    6 1.00
             3047.5249  0.0018347001629433
             457.36951    0.01403730124668
             103.94869   0.068842606114048
             29.210155    0.23218442062076
              9.286663    0.46794134155879
              3.163927    0.36231203217765
 s    3 1.00
             7.8682724   -0.11933240861517
             1.8812885   -0.16085421161283
             0.5442493     1.1434564825515
 s    1 1.00
             0.1687144                   1
 p    3 1.00
             7.8682724   0.068999095584993
             1.8812885    0.31642397975315
             0.5442493    0.74430825237435
 p    1 1.00
             0.1687144                   1
 d    1 1.00
                   0.8                   1

22 0
 s    3 1.00
             18.731137    0.03349459952309
             2.8253937    0.23472694665786
             0.6401217    0.81375731841339
 s    1 1.00
             0.1612778                   1

23 0
 s    3 1.00
             18.731137    0.03349459952309
             2.8253937    0.23472694665786
             0.6401217    0.81375731841339
 s    1 1.00
             0.1612778                   1

24 0
 s    3 1.00
             18.731137    0.03349459952309
             2.8253937    0.23472694665786
             0.6401217    0.81375731841339
 s    1 1.00
             0.1612778                   1

25 0
 s    3 1.00
             18.731137    0.03349459952309
             2.8253937    0.23472694665786
             0.6401217    0.81375731841339
 s    1 1.00
             0.1612778                   1

26 0
 s    3 1.00
             18.731137    0.03349459952309
             2.8253937    0.23472694665786
             0.6401217    0.81375731841339
 s    1 1.00
             0.1612778                   1

27 0
 s    3 1.00
             18.731137    0.03349459952309
             2.8253937    0.23472694665786
             0.6401217    0.81375731841339
 s    1 1.00
             0.1612778                   1

28 0
 s    3 1.00
             18.731137    0.03349459952309
             2.8253937    0.23472694665786
             0.6401217    0.81375731841339
 s    1 1.00
             0.1612778                   1

29 0
 s    3 1.00
             18.731137    0.03349459952309
             2.8253937    0.23472694665786
             0.6401217    0.81375731841339
 s    1 1.00
             0.1612778                   1

30 0
 s    3 1.00
             18.731137    0.03349459952309
             2.8253937    0.23472694665786
             0.6401217    0.81375731841339
 s    1 1.00
             0.1612778                   1

31 0
 s    3 1.00
             18.731137    0.03349459952309
             2.8253937    0.23472694665786
             0.6401217    0.81375731841339
 s    1 1.00
             0.1612778                   1

32 0
 s    3 1.00
             18.731137    0.03349459952309
             2.8253937    0.23472694665786
             0.6401217    0.81375731841339
 s    1 1.00
             0.1612778                   1

33 0
 s    6 1.00
             3047.5249  0.0018347001629433
             457.36951    0.01403730124668
             103.94869   0.068842606114048
             29.210155    0.23218442062076
              9.286663    0.46794134155879
              3.163927    0.36231203217765
 s    3 1.00
             7.8682724   -0.11933240861517
             1.8812885   -0.16085421161283
             0.5442493     1.1434564825515
 s    1 1.00
             0.1687144                   1
 p    3 1.00
             7.8682724   0.068999095584993
             1.8812885    0.31642397975315
             0.5442493    0.74430825237435
 p    1 1.00
             0.1687144                   1
 d    1 1.00
                   0.8                   1

34 0
 s    6 1.00
             3047.5249  0.0018347001629433
             457.36951    0.01403730124668
             103.94869   0.068842606114048
             29.210155    0.23218442062076
              9.286663    0.46794134155879
              3.163927    0.36231203217765
 s    3 1.00
             7.8682724   -0.11933240861517
             1.8812885   -0.16085421161283
             0.5442493     1.1434564825515
 s    1 1.00
             0.1687144                   1
 p    3 1.00
             7.8682724   0.068999095584993
             1.8812885    0.31642397975315
             0.5442493    0.74430825237435
 p    1 1.00
             0.1687144                   1
 d    1 1.00
                   0.8                   1

35 0
 s    3 1.00
             18.731137    0.03349459952309
             2.8253937    0.23472694665786
             0.6401217    0.81375731841339
 s    1 1.00
             0.1612778                   1

36 0
 s    6 1.00
             3047.5249  0.0018347001629433
             457.36951    0.01403730124668
             103.94869   0.068842606114048
             29.210155    0.23218442062076
              9.286663    0.46794134155879
              3.163927    0.36231203217765
 s    3 1.00
             7.8682724   -0.11933240861517
             1.8812885   -0.16085421161283
             0.5442493     1.1434564825515
 s    1 1.00
             0.1687144                   1
 p    3 1.00
             7.8682724   0.068999095584993
             1.8812885    0.31642397975315
             0.5442493    0.74430825237435
 p    1 1.00
             0.1687144                   1
 d    1 1.00
                   0.8                   1

37 0
 s    3 1.00
             18.731137    0.03349459952309
             2.8253937    0.23472694665786
             0.6401217    0.81375731841339
 s    1 1.00
             0.1612778                   1

38 0
 s    3 1.00
             18.731137    0.03349459952309
             2.8253937    0.23472694665786
             0.6401217    0.81375731841339
 s    1 1.00
             0.1612778                   1

39 0
 s    6 1.00
             3047.5249  0.0018347001629433
             457.36951    0.01403730124668
             103.94869   0.068842606114048
             29.210155    0.23218442062076
              9.286663    0.46794134155879
              3.163927    0.36231203217765
 s    3 1.00
             7.8682724   -0.11933240861517
             1.8812885   -0.16085421161283
             0.5442493     1.1434564825515
 s    1 1.00
             0.1687144                   1
 p    3 1.00
             7.8682724   0.068999095584993
             1.8812885    0.31642397975315
             0.5442493    0.74430825237435
 p    1 1.00
             0.1687144                   1
 d    1 1.00
                   0.8                   1

40 0
 s    6 1.00
             3047.5249  0.0018347001629433
             457.36951    0.01403730124668
             103.94869   0.068842606114048
             29.210155    0.23218442062076
              9.286663    0.46794134155879
              3.163927    0.36231203217765
 s    3 1.00
             7.8682724   -0.11933240861517
             1.8812885   -0.16085421161283
             0.5442493     1.1434564825515
 s    1 1.00
             0.1687144                   1
 p    3 1.00
             7.8682724   0.068999095584993
             1.8812885    0.31642397975315
             0.5442493    0.74430825237435
 p    1 1.00
             0.1687144                   1
 d    1 1.00
                   0.8                   1

41 0
 s    3 1.00
             18.731137    0.03349459952309
             2.8253937    0.23472694665786
             0.6401217    0.81375731841339
 s    1 1.00
             0.1612778                   1

42 0
 s    6 1.00
             5484.6717   0.001831099805527
             825.23495   0.013950098518422
             188.04696    0.06844509273075
               52.9645    0.23271427528445
              16.89757    0.47019295006289
             5.7996353    0.35852086192309
 s    3 1.00
             15.539616   -0.11077750382508
             3.5999336   -0.14802630511126
             1.0137618     1.1307670390447
 s    1 1.00
             0.2700058                   1
 p    3 1.00
             15.539616   0.070874299543311
             3.5999336    0.33975279781076
             1.0137618    0.72715859531445
 p    1 1.00
             0.2700058                   1
 d    1 1.00
                   0.8                   1

43 0
 s    3 1.00
             18.731137    0.03349459952309
             2.8253937    0.23472694665786
             0.6401217    0.81375731841339
 s    1 1.00
             0.1612778                   1

[5d]
[7f]
[9g]

[MO]
 Sym= A
 Ene=               0
 Spin= Alpha
 Occup=    1.00000
   1    -3.58944038824e-07
   2    2.2685990881232e-06
   3    -8.5598754157645e-05
   4    1.8451653874812e-07
   5    -1.7433704471885e-05
   6    1.2432728949576e-07
   7    7.2021606034209e-05
   8    8.0274376890066e-05
   9    -7.7713444637573e-05
  10    4.8016376432246e-06
  11    1.8880637863417e-06
  12    -1.4194955383369e-06
  13    -3.5175432786023e-06
  14    2.1829029832506e-06
  15    -6.2586385769232e-06
  16    -1.8264160815599e-05
  17    1.3028546832963e-06
  18    -3.6568145572762e-05
  19    -0.00059130046303199
  20    -1.8050709746889e-05
  21    8.4058304891433e-06
  22    3.8724833175617e-05
  23    -0.0001375316173889
  24    -2.4064562342677e-05
  25    0.00040460420243044
  26    -1.9959849698509e-05
  27    1.1445002179474e-05
  28    7.0391396459332e-06
  29    -1.9792247865721e-05
  30    1.7066126945558e-05
  31    2.4551142048424e-06
  32    1.1182886633667e-05
  33    -2.970635050524e-05
  34    -0.00018583648335783
  35    0.0026533997275535
  36    3.2951976146932e-05
  37    -7.026061245012e-06
  38    -8.0071738696384e-05
  39    -0.00042597457620176
  40    -0.00095129581419142
  41    -0.00061923351898213
  42    6.1264794361672e-05
  43    -2.2699736317701e-05
  44    5.3879598836114e-05
  45    -1.7418814099626e-05
  46    1.777109134943e-05
  47    1.3243006355583e-05
  48    0.00017516528015406
  49    -3.3967789015349e-06
  50    -6.7624376599223e-05
  51    -0.0020378024392586
  52    -2.8008460128033e-06
  53    0.00010390226811235
  54    0.00018182957378149
  55    -6.1827281309896e-05
  56    -0.0011984545436526
  57    -0.0018669556174103
  58    -3.5761474424553e-05
  59    -5.9901477503336e-05
  60    -9.8393713394082e-05
  61    1.3352954181871e-05
  62    6.5545846172937e-05
  63    -0.00016789999513243
  64    -3.9765087287006e-05
  65    6.6608362083509e-08
  66    4.8812875381571e-07
  67    -8.7355162425632e-09
  68    -8.4407049651651e-08
  69    -1.2118948563861e-06
  70    6.6615553150958e-08
  71    -7.9074891628501e-08
  72    8.0689175198547e-08
  73    4.2095050078446e-07
  74    -4.0558187324416e-07
  75    -6.3811817650606e-07
  76    6.0778375010937e-08
  77    5.5434917669515e-08
  78    8.7254181105717e-09
  79    -1.1109761657723e-08
  80    4.3552456561941e-08
  81    1.9993522487418e-08
  82    1.0308871685755e-07
  83    3.8595562776747e-08
  84    3.1551032030269e-07
  85    9.5725738934142e-07
  86    -2.9375555742006e-08
  87    -6.8182225657049e-08
  88    -8.0891089449415e-08
  89    -6.5446497295759e-08
  90    -6.3380575997716e-08
  91    -3.9452048103526e-07
  92    -6.3920948329913e-08
  93    -1.5450308441452e-08
  94    8.7576175717151e-08
  95    -5.4596695210303e-08
  96    3.3917576109245e-08
  97    8.2524859497491e-08
  98    -2.0558402942865e-07
  99    5.030720014425e-09
 100    9.2422058438007e-08
 101    -5.4833557634983e-08
 102    1.1972307964888e-07
 103    7.8633069961349e-06
 104    -1.1278958175038e-07
 105    2.870009004791e-07
 106    -3.601749130101e-07
 107    -8.1988058129376e-07
 108    1.9987995015188e-06
 109    -6.1470597608195e-06
 110    2.7587813242817e-07
 111    3.3897862864894e-07
 112    -1.555484292789e-07
 113    -3.5581949461423e-07
 114    -1.7820197995785e-07
 115    2.1434279872512e-07
 116    2.2286306426906e-06
 117    -1.1515796599973e-05
 118    9.7618980147336e-08
 119    -1.1128242731303e-07
 120    -4.6499248530188e-07
 121    2.1160819885523e-06
 122    -9.3016498556939e-07
 123    3.746711744397e-06
 124    9.2445484673238e-08
 125    -1.415479696746e-07
 126    -1.9070774744664e-08
 127    4.2541844612971e-08
 128    1.3386296964812e-08
 129    3.1137661943808e-07
 130    3.1715758047637e-06
 131    1.0731637203469e-07
 132    9.8827063046304e-07
 133    7.8081721923889e-07
 134    -1.8499415024845e-06
 135    -1.2506273166254e-05
 136    -1.7381273517186e-06
 137    1.0324912853319e-05
 138    -4.0053734409935e-07
 139    -8.8065962792169e-08
 140    3.9333966073977e-07
 141    -1.6142194865222e-07
 142    2.5520740219289e-07
 143    4.818789165136e-09
 144    -2.3213060634869e-07
 145    -6.66539596284e-06
 146    -2.0985425463831e-07
 147    -6.0152009267041e-07
 148    9.2034310107725e-07
 149    -3.1558936486072e-06
 150    1.0053516163498e-05
 151    -4.576707234768e-06
 152    1.4497716010927e-07
 153    6.9630290610461e-08
 154    -3.8345083243704e-07
 155    -2.1076371637759e-07
 156    -1.0447584411406e-07
 157    1.1242811579441e-07
 158    8.4913192925031e-07
 159    -7.7568767161023e-06
 160    -1.9045600405619e-07
 161    2.917513957202e-07
 162    -2.8478550131858e-07
 163    -8.8780977391323e-07
 164    2.9261822836518e-06
 165    2.6051718674602e-07
 166    1.6877845104347e-07
 167    -1.1510608643734e-07
 168    5.1239763351941e-08
 169    1.3234800454026e-07
 170    1.3366438757116e-07
 171    -2.4464224481625e-09
 172    1.2833606109143e-07
 173    1.8040588729385e-06
 174    1.8382758253808e-07
 175    -2.9263129997687e-08
 176    5.7155330996224e-08
 177    2.5439834964844e-06
 178    6.9878177135553e-07
 179    1.9464531027533e-06
 180    -1.3040971138255e-07
 181    2.2108138758967e-07
 182    5.6098789167261e-08
 183    2.4929265906944e-07
 184    1.6078293552308e-07
 185    -4.8422701297383e-08
 186    -3.0846113466903e-07
 187    4.2932749873381e-06
 188    -1.2111507706785e-07
 189    -4.6096487162245e-08
 190    -2.6726219088082e-07
 191    -9.9004806261274e-07
 192    -2.5403466436192e-06
 193    -5.4922074920091e-07
 194    -4.6734421789308e-08
 195    1.6563896686367e-07
 196    3.1089565458139e-07
 197    -7.9427525889098e-08
 198    8.4019443937759e-08
 199    -7.688686824329e-08
 200    8.7454328737631e-07
 201    -1.2564006801172e-07
 202    -6.2761488903365e-07
 203    4.1796800828509e-07
 204    -1.6710764387279e-07
 205    6.3264805533435e-07
 206    7.267743452488e-07
 207    -9.6863468926516e-07
 208    9.3989756401088e-06
 209    2.3844996393295e-07
 210    1.1231610181374e-06
 211    3.6371397936311e-07
 212    -1.0004762714449e-07
 213    1.3767192403878e-07
 214    -7.7122105084916e-08
 215    -3.6521804529478e-07
 216    3.3555740719823e-06
 217    1.2477703736922e-08
 218    -3.2510160868546e-07
 219    1.1584216063666e-07
 220    -7.752323853201e-07
 221    -4.3915601071315e-07
 222    -1.5191050677764e-06
 223    4.2334225942133e-05
 224    1.5771917957531e-06
 225    -4.9465252564623e-07
 226    -6.407304921071e-07
 227    -1.2128544727007e-06
 228    3.5246268488478e-06
 229    -3.1457896141593e-05
 230    1.4279696007811e-06
 231    -8.6706588682902e-07
 232    -4.7651316319537e-07
 233    2.0716482525787e-07
 234    -4.7923521158979e-07
 235    1.9924321281762e-06
 236    1.3219483880705e-05
 237    -0.00016060644682735
 238    -2.9461470773293e-07
 239    -2.2830702572257e-06
 240    2.3882658191138e-06
 241    4.9607550860524e-05
 242    1.6993078928488e-05
 243    5.8578602795664e-05
 244    -5.2750024571541e-06
 245    -1.4822729604976e-06
 246    -2.4918739608699e-07
 247    -9.1299786098227e-07
 248    -1.9890242586136e-06
 249    -1.6399619313992e-06
 250    -8.1716944945753e-06
 251    -8.5136777858004e-07
 252    -3.1577668961365e-06
 253    0.00018452740841087
 254    -4.4385086891979e-06
 255    8.7654444844263e-06
 256    -9.0459421568748e-06
 257    7.9896377703414e-05
 258    -3.2533716013043e-05
 259    7.5213735472789e-05
 260    4.4966011613979e-06
 261    1.7680572120775e-06
 262    1.6174315316733e-06
 263    3.7424782181489e-07
 264    -3.4089192749246e-06
 265    4.3955700543157e-07
 266    -9.7717655848674e-06
 267    7.817242557378e-06
 268    1.2679955476982e-06
 269    3.0941561259749e-05
 270    5.9760132124038e-05
 271    -0.0018065235117239
 272    4.1196842056838e-05
 273    9.2930279587576e-05
 274    5.0646979621445e-05
 275    -0.001013815918431
 276    -0.00037881311755385
 277    0.0019978741315014
 278    -0.00019778470952427
 279    7.6374493482883e-05