[Molden Format]
made by pyscf v[2.0.1]
[Atoms] (AU)
C   1   6     0.69100024066471     0.64692934207205    -3.48223131169301
H   2   1     2.68052439830868     1.13355088658700    -3.25784032593313
C   3   6    -0.36286361513219     0.85440132524594    -5.97030179418974
H   4   1    -2.35448549047279     0.36322488579172    -6.17995817793143
C   5   6     0.93697958957450     1.61209284601821    -8.05828437677121
H   6   1     0.93570604399073     3.60645829547735    -8.57155587183010
C   7   6     2.33064164489587    -0.08500019610028    -9.65009622470686
H   8   1     2.31545752956704    -2.07726916449957    -9.11124928966168
H   9   1     1.55630230933075    -1.92953025305990    12.99630010416247
C   10   6     0.75233899775814    -2.21270439606481    11.10705728102219
H   11   1    -0.43433408177274    -3.90944857546550    11.22216085340412
C   12   6     2.86362581178706    -2.63237380607947     9.17926416456045
H   13   1     4.39038949912609    -1.24955421540245     9.49899813497433
H   14   1     3.74629220191363    -4.48798724300892     9.47414880959024
C   15   6     2.02478325613682    -2.42177285709634     6.44560829588644
C   16   6     3.88048732735477    -3.58795445234514     4.61402886975252
C   17   6    -0.18412382258602    -1.30464291234259     5.76021113872346
C   18   6    -2.10044360464350    -0.26837831858460     7.71610340967100
C   19   6    -3.08956938670431     2.35282328359417     6.88693925039594
C   20   6    -4.37372924086464    -2.09766595989678     7.93610724222001
C   21   6    -0.83850430601230     0.06372213486173    10.33002307638377
H   22   1     0.38411922151109     1.74281358582432    10.27380136542181
H   23   1    -2.30980003007874     0.45460143924521    11.73986301809809
H   24   1     4.58527064644668    -5.38706904487420     5.36778158031719
H   25   1     5.54944938085014    -2.37631462192748     4.35398898413318
H   26   1     3.06633019150423    -3.94118377050688     2.75255466040884
H   27   1    -4.17727778763735     2.26573369139522     5.12914900961283
H   28   1    -1.52662344944051     3.68001877445626     6.59540397144508
H   29   1    -4.32916174397830     3.13643051467482     8.35225460090378
H   30   1    -5.32329548508442    -2.36691813602939     6.11583672749896
H   31   1    -5.77989366602257    -1.33896741843465     9.25748940450990
H   32   1    -3.79310905208926    -3.96389819310853     8.61386170102686
C   33   6    -1.01100794811226    -1.06331657314144     3.11929490449947
C   34   6     0.37686231036534    -0.33275864505552     1.09165013605873
H   35   1    -3.01671213906703    -1.40297922279997     2.77827895090944
C   36   6    -0.64382707979370    -0.11591880174385    -1.42063131251064
H   37   1     2.35569259782137     0.17174499283897     1.33641070251401
H   38   1    -2.63317482980319    -0.60229203511219    -1.66119700387645
C   39   6     3.64869579482306     0.58263290243353   -11.74621951745329
C   40   6     5.00865186237336    -1.29151691020822   -13.24458681490645
H   41   1     3.74083961582251     2.53414495508714   -12.38721761884598
O   42   8     6.22738846457655    -0.82464446464225   -15.14656876600025
H   43   1     4.86298794977594    -3.26455446446118   -12.51927050350916
[GTO]
1 0
 s    6 1.00
             3047.5249  0.0018347001629433
             457.36951    0.01403730124668
             103.94869   0.068842606114048
             29.210155    0.23218442062076
              9.286663    0.46794134155879
              3.163927    0.36231203217765
 s    3 1.00
             7.8682724   -0.11933240861517
             1.8812885   -0.16085421161283
             0.5442493     1.1434564825515
 s    1 1.00
             0.1687144                   1
 p    3 1.00
             7.8682724   0.068999095584993
             1.8812885    0.31642397975315
             0.5442493    0.74430825237435
 p    1 1.00
             0.1687144                   1
 d    1 1.00
                   0.8                   1

2 0
 s    3 1.00
             18.731137    0.03349459952309
             2.8253937    0.23472694665786
             0.6401217    0.81375731841339
 s    1 1.00
             0.1612778                   1

3 0
 s    6 1.00
             3047.5249  0.0018347001629433
             457.36951    0.01403730124668
             103.94869   0.068842606114048
             29.210155    0.23218442062076
              9.286663    0.46794134155879
              3.163927    0.36231203217765
 s    3 1.00
             7.8682724   -0.11933240861517
             1.8812885   -0.16085421161283
             0.5442493     1.1434564825515
 s    1 1.00
             0.1687144                   1
 p    3 1.00
             7.8682724   0.068999095584993
             1.8812885    0.31642397975315
             0.5442493    0.74430825237435
 p    1 1.00
             0.1687144                   1
 d    1 1.00
                   0.8                   1

4 0
 s    3 1.00
             18.731137    0.03349459952309
             2.8253937    0.23472694665786
             0.6401217    0.81375731841339
 s    1 1.00
             0.1612778                   1

5 0
 s    6 1.00
             3047.5249  0.0018347001629433
             457.36951    0.01403730124668
             103.94869   0.068842606114048
             29.210155    0.23218442062076
              9.286663    0.46794134155879
              3.163927    0.36231203217765
 s    3 1.00
             7.8682724   -0.11933240861517
             1.8812885   -0.16085421161283
             0.5442493     1.1434564825515
 s    1 1.00
             0.1687144                   1
 p    3 1.00
             7.8682724   0.068999095584993
             1.8812885    0.31642397975315
             0.5442493    0.74430825237435
 p    1 1.00
             0.1687144                   1
 d    1 1.00
                   0.8                   1

6 0
 s    3 1.00
             18.731137    0.03349459952309
             2.8253937    0.23472694665786
             0.6401217    0.81375731841339
 s    1 1.00
             0.1612778                   1

7 0
 s    6 1.00
             3047.5249  0.0018347001629433
             457.36951    0.01403730124668
             103.94869   0.068842606114048
             29.210155    0.23218442062076
              9.286663    0.46794134155879
              3.163927    0.36231203217765
 s    3 1.00
             7.8682724   -0.11933240861517
             1.8812885   -0.16085421161283
             0.5442493     1.1434564825515
 s    1 1.00
             0.1687144                   1
 p    3 1.00
             7.8682724   0.068999095584993
             1.8812885    0.31642397975315
             0.5442493    0.74430825237435
 p    1 1.00
             0.1687144                   1
 d    1 1.00
                   0.8                   1

8 0
 s    3 1.00
             18.731137    0.03349459952309
             2.8253937    0.23472694665786
             0.6401217    0.81375731841339
 s    1 1.00
             0.1612778                   1

9 0
 s    3 1.00
             18.731137    0.03349459952309
             2.8253937    0.23472694665786
             0.6401217    0.81375731841339
 s    1 1.00
             0.1612778                   1

10 0
 s    6 1.00
             3047.5249  0.0018347001629433
             457.36951    0.01403730124668
             103.94869   0.068842606114048
             29.210155    0.23218442062076
              9.286663    0.46794134155879
              3.163927    0.36231203217765
 s    3 1.00
             7.8682724   -0.11933240861517
             1.8812885   -0.16085421161283
             0.5442493     1.1434564825515
 s    1 1.00
             0.1687144                   1
 p    3 1.00
             7.8682724   0.068999095584993
             1.8812885    0.31642397975315
             0.5442493    0.74430825237435
 p    1 1.00
             0.1687144                   1
 d    1 1.00
                   0.8                   1

11 0
 s    3 1.00
             18.731137    0.03349459952309
             2.8253937    0.23472694665786
             0.6401217    0.81375731841339
 s    1 1.00
             0.1612778                   1

12 0
 s    6 1.00
             3047.5249  0.0018347001629433
             457.36951    0.01403730124668
             103.94869   0.068842606114048
             29.210155    0.23218442062076
              9.286663    0.46794134155879
              3.163927    0.36231203217765
 s    3 1.00
             7.8682724   -0.11933240861517
             1.8812885   -0.16085421161283
             0.5442493     1.1434564825515
 s    1 1.00
             0.1687144                   1
 p    3 1.00
             7.8682724   0.068999095584993
             1.8812885    0.31642397975315
             0.5442493    0.74430825237435
 p    1 1.00
             0.1687144                   1
 d    1 1.00
                   0.8                   1

13 0
 s    3 1.00
             18.731137    0.03349459952309
             2.8253937    0.23472694665786
             0.6401217    0.81375731841339
 s    1 1.00
             0.1612778                   1

14 0
 s    3 1.00
             18.731137    0.03349459952309
             2.8253937    0.23472694665786
             0.6401217    0.81375731841339
 s    1 1.00
             0.1612778                   1

15 0
 s    6 1.00
             3047.5249  0.0018347001629433
             457.36951    0.01403730124668
             103.94869   0.068842606114048
             29.210155    0.23218442062076
              9.286663    0.46794134155879
              3.163927    0.36231203217765
 s    3 1.00
             7.8682724   -0.11933240861517
             1.8812885   -0.16085421161283
             0.5442493     1.1434564825515
 s    1 1.00
             0.1687144                   1
 p    3 1.00
             7.8682724   0.068999095584993
             1.8812885    0.31642397975315
             0.5442493    0.74430825237435
 p    1 1.00
             0.1687144                   1
 d    1 1.00
                   0.8                   1

16 0
 s    6 1.00
             3047.5249  0.0018347001629433
             457.36951    0.01403730124668
             103.94869   0.068842606114048
             29.210155    0.23218442062076
              9.286663    0.46794134155879
              3.163927    0.36231203217765
 s    3 1.00
             7.8682724   -0.11933240861517
             1.8812885   -0.16085421161283
             0.5442493     1.1434564825515
 s    1 1.00
             0.1687144                   1
 p    3 1.00
             7.8682724   0.068999095584993
             1.8812885    0.31642397975315
             0.5442493    0.74430825237435
 p    1 1.00
             0.1687144                   1
 d    1 1.00
                   0.8                   1

17 0
 s    6 1.00
             3047.5249  0.0018347001629433
             457.36951    0.01403730124668
             103.94869   0.068842606114048
             29.210155    0.23218442062076
              9.286663    0.46794134155879
              3.163927    0.36231203217765
 s    3 1.00
             7.8682724   -0.11933240861517
             1.8812885   -0.16085421161283
             0.5442493     1.1434564825515
 s    1 1.00
             0.1687144                   1
 p    3 1.00
             7.8682724   0.068999095584993
             1.8812885    0.31642397975315
             0.5442493    0.74430825237435
 p    1 1.00
             0.1687144                   1
 d    1 1.00
                   0.8                   1

18 0
 s    6 1.00
             3047.5249  0.0018347001629433
             457.36951    0.01403730124668
             103.94869   0.068842606114048
             29.210155    0.23218442062076
              9.286663    0.46794134155879
              3.163927    0.36231203217765
 s    3 1.00
             7.8682724   -0.11933240861517
             1.8812885   -0.16085421161283
             0.5442493     1.1434564825515
 s    1 1.00
             0.1687144                   1
 p    3 1.00
             7.8682724   0.068999095584993
             1.8812885    0.31642397975315
             0.5442493    0.74430825237435
 p    1 1.00
             0.1687144                   1
 d    1 1.00
                   0.8                   1

19 0
 s    6 1.00
             3047.5249  0.0018347001629433
             457.36951    0.01403730124668
             103.94869   0.068842606114048
             29.210155    0.23218442062076
              9.286663    0.46794134155879
              3.163927    0.36231203217765
 s    3 1.00
             7.8682724   -0.11933240861517
             1.8812885   -0.16085421161283
             0.5442493     1.1434564825515
 s    1 1.00
             0.1687144                   1
 p    3 1.00
             7.8682724   0.068999095584993
             1.8812885    0.31642397975315
             0.5442493    0.74430825237435
 p    1 1.00
             0.1687144                   1
 d    1 1.00
                   0.8                   1

20 0
 s    6 1.00
             3047.5249  0.0018347001629433
             457.36951    0.01403730124668
             103.94869   0.068842606114048
             29.210155    0.23218442062076
              9.286663    0.46794134155879
              3.163927    0.36231203217765
 s    3 1.00
             7.8682724   -0.11933240861517
             1.8812885   -0.16085421161283
             0.5442493     1.1434564825515
 s    1 1.00
             0.1687144                   1
 p    3 1.00
             7.8682724   0.068999095584993
             1.8812885    0.31642397975315
             0.5442493    0.74430825237435
 p    1 1.00
             0.1687144                   1
 d    1 1.00
                   0.8                   1

21 0
 s    6 1.00
             3047.5249  0.0018347001629433
             457.36951    0.01403730124668
             103.94869   0.068842606114048
             29.210155    0.23218442062076
              9.286663    0.46794134155879
              3.163927    0.36231203217765
 s    3 1.00
             7.8682724   -0.11933240861517
             1.8812885   -0.16085421161283
             0.5442493     1.1434564825515
 s    1 1.00
             0.1687144                   1
 p    3 1.00
             7.8682724   0.068999095584993
             1.8812885    0.31642397975315
             0.5442493    0.74430825237435
 p    1 1.00
             0.1687144                   1
 d    1 1.00
                   0.8                   1

22 0
 s    3 1.00
             18.731137    0.03349459952309
             2.8253937    0.23472694665786
             0.6401217    0.81375731841339
 s    1 1.00
             0.1612778                   1

23 0
 s    3 1.00
             18.731137    0.03349459952309
             2.8253937    0.23472694665786
             0.6401217    0.81375731841339
 s    1 1.00
             0.1612778                   1

24 0
 s    3 1.00
             18.731137    0.03349459952309
             2.8253937    0.23472694665786
             0.6401217    0.81375731841339
 s    1 1.00
             0.1612778                   1

25 0
 s    3 1.00
             18.731137    0.03349459952309
             2.8253937    0.23472694665786
             0.6401217    0.81375731841339
 s    1 1.00
             0.1612778                   1

26 0
 s    3 1.00
             18.731137    0.03349459952309
             2.8253937    0.23472694665786
             0.6401217    0.81375731841339
 s    1 1.00
             0.1612778                   1

27 0
 s    3 1.00
             18.731137    0.03349459952309
             2.8253937    0.23472694665786
             0.6401217    0.81375731841339
 s    1 1.00
             0.1612778                   1

28 0
 s    3 1.00
             18.731137    0.03349459952309
             2.8253937    0.23472694665786
             0.6401217    0.81375731841339
 s    1 1.00
             0.1612778                   1

29 0
 s    3 1.00
             18.731137    0.03349459952309
             2.8253937    0.23472694665786
             0.6401217    0.81375731841339
 s    1 1.00
             0.1612778                   1

30 0
 s    3 1.00
             18.731137    0.03349459952309
             2.8253937    0.23472694665786
             0.6401217    0.81375731841339
 s    1 1.00
             0.1612778                   1

31 0
 s    3 1.00
             18.731137    0.03349459952309
             2.8253937    0.23472694665786
             0.6401217    0.81375731841339
 s    1 1.00
             0.1612778                   1

32 0
 s    3 1.00
             18.731137    0.03349459952309
             2.8253937    0.23472694665786
             0.6401217    0.81375731841339
 s    1 1.00
             0.1612778                   1

33 0
 s    6 1.00
             3047.5249  0.0018347001629433
             457.36951    0.01403730124668
             103.94869   0.068842606114048
             29.210155    0.23218442062076
              9.286663    0.46794134155879
              3.163927    0.36231203217765
 s    3 1.00
             7.8682724   -0.11933240861517
             1.8812885   -0.16085421161283
             0.5442493     1.1434564825515
 s    1 1.00
             0.1687144                   1
 p    3 1.00
             7.8682724   0.068999095584993
             1.8812885    0.31642397975315
             0.5442493    0.74430825237435
 p    1 1.00
             0.1687144                   1
 d    1 1.00
                   0.8                   1

34 0
 s    6 1.00
             3047.5249  0.0018347001629433
             457.36951    0.01403730124668
             103.94869   0.068842606114048
             29.210155    0.23218442062076
              9.286663    0.46794134155879
              3.163927    0.36231203217765
 s    3 1.00
             7.8682724   -0.11933240861517
             1.8812885   -0.16085421161283
             0.5442493     1.1434564825515
 s    1 1.00
             0.1687144                   1
 p    3 1.00
             7.8682724   0.068999095584993
             1.8812885    0.31642397975315
             0.5442493    0.74430825237435
 p    1 1.00
             0.1687144                   1
 d    1 1.00
                   0.8                   1

35 0
 s    3 1.00
             18.731137    0.03349459952309
             2.8253937    0.23472694665786
             0.6401217    0.81375731841339
 s    1 1.00
             0.1612778                   1

36 0
 s    6 1.00
             3047.5249  0.0018347001629433
             457.36951    0.01403730124668
             103.94869   0.068842606114048
             29.210155    0.23218442062076
              9.286663    0.46794134155879
              3.163927    0.36231203217765
 s    3 1.00
             7.8682724   -0.11933240861517
             1.8812885   -0.16085421161283
             0.5442493     1.1434564825515
 s    1 1.00
             0.1687144                   1
 p    3 1.00
             7.8682724   0.068999095584993
             1.8812885    0.31642397975315
             0.5442493    0.74430825237435
 p    1 1.00
             0.1687144                   1
 d    1 1.00
                   0.8                   1

37 0
 s    3 1.00
             18.731137    0.03349459952309
             2.8253937    0.23472694665786
             0.6401217    0.81375731841339
 s    1 1.00
             0.1612778                   1

38 0
 s    3 1.00
             18.731137    0.03349459952309
             2.8253937    0.23472694665786
             0.6401217    0.81375731841339
 s    1 1.00
             0.1612778                   1

39 0
 s    6 1.00
             3047.5249  0.0018347001629433
             457.36951    0.01403730124668
             103.94869   0.068842606114048
             29.210155    0.23218442062076
              9.286663    0.46794134155879
              3.163927    0.36231203217765
 s    3 1.00
             7.8682724   -0.11933240861517
             1.8812885   -0.16085421161283
             0.5442493     1.1434564825515
 s    1 1.00
             0.1687144                   1
 p    3 1.00
             7.8682724   0.068999095584993
             1.8812885    0.31642397975315
             0.5442493    0.74430825237435
 p    1 1.00
             0.1687144                   1
 d    1 1.00
                   0.8                   1

40 0
 s    6 1.00
             3047.5249  0.0018347001629433
             457.36951    0.01403730124668
             103.94869   0.068842606114048
             29.210155    0.23218442062076
              9.286663    0.46794134155879
              3.163927    0.36231203217765
 s    3 1.00
             7.8682724   -0.11933240861517
             1.8812885   -0.16085421161283
             0.5442493     1.1434564825515
 s    1 1.00
             0.1687144                   1
 p    3 1.00
             7.8682724   0.068999095584993
             1.8812885    0.31642397975315
             0.5442493    0.74430825237435
 p    1 1.00
             0.1687144                   1
 d    1 1.00
                   0.8                   1

41 0
 s    3 1.00
             18.731137    0.03349459952309
             2.8253937    0.23472694665786
             0.6401217    0.81375731841339
 s    1 1.00
             0.1612778                   1

42 0
 s    6 1.00
             5484.6717   0.001831099805527
             825.23495   0.013950098518422
             188.04696    0.06844509273075
               52.9645    0.23271427528445
              16.89757    0.47019295006289
             5.7996353    0.35852086192309
 s    3 1.00
             15.539616   -0.11077750382508
             3.5999336   -0.14802630511126
             1.0137618     1.1307670390447
 s    1 1.00
             0.2700058                   1
 p    3 1.00
             15.539616   0.070874299543311
             3.5999336    0.33975279781076
             1.0137618    0.72715859531445
 p    1 1.00
             0.2700058                   1
 d    1 1.00
                   0.8                   1

43 0
 s    3 1.00
             18.731137    0.03349459952309
             2.8253937    0.23472694665786
             0.6401217    0.81375731841339
 s    1 1.00
             0.1612778                   1

[5d]
[7f]
[9g]

[MO]
 Sym= A
 Ene=               0
 Spin= Alpha
 Occup=    1.00000
   1    9.5017962135431e-07
   2    9.7598474959713e-06
   3    1.2597618064004e-05
   4    2.6439497762891e-06
   5    3.0615981450784e-06
   6    -7.4053062316683e-06
   7    -2.3563865659139e-05
   8    -6.9269726323729e-05
   9    0.00021866591213422
  10    -1.5939054882064e-07
  11    -6.1834299298044e-06
  12    -8.4875965780341e-07
  13    -8.0755331372509e-06
  14    4.4867267396222e-06
  15    8.3466982936276e-06
  16    -6.9704315346186e-06
  17    -4.7297834477804e-06
  18    -9.6155680741574e-05
  19    -0.00023579451731886
  20    -3.275433833647e-05
  21    4.2109323332381e-06
  22    4.0734696018857e-05
  23    -0.0001024494060099
  24    6.4005834595301e-05
  25    0.00033316380744236
  26    -1.2071947805866e-05
  27    1.339153690725e-05
  28    -7.700332404163e-06
  29    -2.4040345344728e-05
  30    -5.6351431169466e-07
  31    6.333369429847e-06
  32    -1.9364375794907e-05
  33    -3.0019034052254e-05
  34    -0.00020221636503931
  35     0.002515964702548
  36    5.3886820823706e-05
  37    -1.0061363351749e-05
  38    -8.3031684907262e-05
  39    0.00035802028862029
  40    -0.0011038979701664
  41    -0.00025262119023092
  42    9.145019514248e-06
  43    -6.3917952214461e-05
  44    3.5179365284281e-05
  45    -1.2993729396903e-05
  46    -3.7390275492937e-05
  47    1.0716976940463e-05
  48    0.00016556269880923
  49    -4.0060549304629e-06
  50    -7.0406423872685e-05
  51    -0.0019738212492233
  52    -0.00011031711524208
  53    0.00012823149477523
  54    0.00012751836970537
  55    0.0011189479519913
  56    -0.0014496875786355
  57    -0.0012561914800386
  58    2.0863018818912e-05
  59    -2.0000997954454e-05
  60    -0.00011250836801615
  61    -2.0013747398263e-05
  62    7.0170701036623e-05
  63    -0.00016666191033679
  64    -3.5690342631615e-05
  65    1.2309660982728e-07
  66    1.6329826899394e-07
  67    2.4208895562198e-08
  68    3.3516224135067e-07
  69    -1.5967886469496e-06
  70    -1.3666495453952e-07
  71    1.9862769312343e-07
  72    -8.004248534694e-08
  73    -1.706339591501e-07
  74    -9.6973933665647e-07
  75    -5.2081306851919e-09
  76    3.1565802040547e-08
  77    6.9746400522934e-08
  78    -2.7545868838947e-08
  79    -4.0339994287969e-08
  80    6.1083835980186e-08
  81    -5.6312338517194e-08
  82    -1.2630318888353e-07
  83    -1.2359517710543e-08
  84    1.2035538106963e-07
  85    8.0253616957464e-06
  86    -3.7958884379386e-07
  87    -2.1811961196547e-08
  88    -5.2543052785334e-07
  89    -1.94599756665e-06
  90    2.7840624731861e-06
  91    -1.9870251908647e-06
  92    -1.0161368675021e-07
  93    1.6397451436746e-07
  94    -2.1125674741426e-07
  95    -2.6745922463262e-08
  96    9.532989981847e-08
  97    -3.8796755610072e-07
  98    -4.7910629348358e-07
  99    4.3007098588394e-09
 100    6.2348365723176e-07
 101    3.198916643438e-08
 102    4.8611292258792e-07
 103    -7.8491283791235e-06
 104    -1.5555940038178e-07
 105    5.3349862435925e-07
 106    3.8227501690087e-07
 107    1.1347499418094e-05
 108    -1.0603052841928e-05
 109    -1.830389716366e-05
 110    3.4439553854228e-07
 111    3.1730687064744e-07
 112    -1.3316900019847e-07
 113    -1.7600579088516e-07
 114    3.0606477262838e-07
 115    2.7580400223052e-07
 116    2.5561424883707e-06
 117    -2.1144358499257e-05
 118    3.9052331760479e-07
 119    -5.794315468861e-07
 120    -4.9861564162497e-07
 121    4.9673586613519e-06
 122    -7.2626353210996e-07
 123    -1.8546786815395e-06
 124    4.8577493457311e-08
 125    1.486406184122e-07
 126    7.0661420826786e-08
 127    -7.0858288387865e-08
 128    2.2150405425466e-07
 129    5.5382010714093e-07
 130    5.0381192866998e-06
 131    -3.0786734931212e-05
 132    -1.2834799352476e-07
 133    6.7683040158875e-08
 134    -1.9682673837363e-06
 135    1.4414353707098e-05
 136    3.6188359194091e-08
 137    4.8304368223947e-05
 138    -1.4601845939835e-06
 139    -9.4008309258656e-07
 140    -1.507271101458e-07
 141    -2.462855672727e-07
 142    -4.2142414804118e-08
 143    2.5701037315195e-07
 144    2.401750890151e-06
 145    -1.2114544404727e-05
 146    -1.2541087227142e-07
 147    -2.5228186307566e-07
 148    -2.518879629673e-07
 149    -7.2312359450123e-06
 150    3.4115729759112e-06
 151    2.115479050404e-06
 152    5.7956575845159e-07
 153    2.3051614560702e-07
 154    8.0943029404796e-08
 155    -4.1963848439248e-07
 156    4.5415081890383e-07
 157    -6.5253884415774e-08
 158    -5.3426772556688e-07
 159    3.837163197934e-08
 160    -4.0278286469997e-07
 161    3.7413246189816e-08
 162    7.5287927957292e-08
 163    3.8006943715802e-06
 164    -2.7335613455287e-07
 165    -5.0018506935503e-07
 166    -2.8011620939219e-07
 167    1.1514304546255e-07
 168    -1.3102440587135e-08
 169    6.0864160573058e-08
 170    -1.8254206286127e-07
 171    -1.4181282969928e-08
 172    2.4360595079361e-07
 173    7.679580690137e-07
 174    3.6119052209716e-07
 175    9.6174189529615e-08
 176    -4.4362793155793e-07
 177    1.3897154826664e-07
 178    -1.0352405686766e-06
 179    9.3758938820109e-07
 180    -7.7846825509964e-08
 181    -1.3231530072681e-07
 182    -2.510761884395e-08
 183    2.175817503864e-07
 184    -1.1061591541803e-07
 185    1.7184648647846e-07
 186    1.7766508236074e-06
 187    -1.2489350245613e-06
 188    1.2992556690801e-07
 189    -7.7390755568635e-08
 190    -6.8174787835812e-07
 191    -1.2585704645176e-06
 192    -3.7671523696835e-07
 193    3.2055084634688e-06
 194    -1.7527539929444e-07
 195    1.868333733015e-08
 196    -1.2301487903306e-07
 197    -5.2662620268474e-08
 198    5.1806121619124e-08
 199    4.264865864722e-07
 200    6.6470787561196e-07
 201    -2.9184604043541e-08
 202    -1.92257981875e-06
 203    9.5408949413097e-07
 204    1.0323311245587e-06
 205    1.6987746079461e-07
 206    1.4028200427528e-06
 207    -6.2085808983432e-07
 208    6.3188011898776e-06
 209    -6.6573353375156e-07
 210    2.5106572357358e-06
 211    -3.0891134387165e-07
 212    -1.6741280950585e-06
 213    1.305067927453e-07
 214    1.2646655640663e-06
 215    2.9203203837231e-07
 216    -4.7520103536228e-07
 217    -1.5756104055392e-07
 218    -4.4301680853947e-07
 219    -1.6775944134303e-07
 220    -6.3540522034886e-07
 221    4.4203029101466e-07
 222    4.782193969134e-06
 223    3.8562853490281e-06
 224    -3.2187261291092e-07
 225    5.8904603182696e-07
 226    -2.1453869117072e-06
 227    -6.3506254616763e-06
 228    -1.6172429529759e-05
 229    5.7408942479873e-05
 230    6.1872614582172e-07
 231    2.4674311895096e-06
 232    1.1484987205039e-06
 233    -1.0956429537856e-06
 234    -1.6215538555055e-06
 235    5.4566554687021e-07
 236    5.9804491823471e-06
 237    -8.3697249485542e-06
 238    4.9595888775751e-07
 239    -1.6386058366368e-06
 240    -2.5849929463403e-06
 241    1.1405743087293e-05
 242    4.0650873470626e-06
 243    4.971834055403e-05
 244    -6.7483739424597e-07
 245    -3.9366231356235e-06
 246    -1.0536705861645e-06
 247    -1.5213301913609e-06
 248    -7.1776923003147e-07
 249    2.5428765071381e-06
 250    -6.0588430989126e-06
 251    2.3362290172296e-06
 252    1.9260808574112e-05
 253    -0.00015937762302471
 254    -1.1868218502774e-06
 255    5.2279630502612e-06
 256    -4.2941093684068e-06
 257    -6.823247369897e-05
 258    -5.6149535557458e-05
 259    0.00014180360019229
 260    -1.5425162722969e-06
 261    7.1281256212715e-06
 262    3.0193106267157e-06
 263    -4.6522272780445e-06
 264    -3.0019833572011e-06
 265    2.5068582206953e-06
 266    -1.6281748923586e-05
 267    4.7762523936868e-06
 268    -2.2177476685147e-05
 269    3.157427019408e-05
 270    6.4465984303195e-05
 271    -0.0018428824723578
 272    -2.8397279360912e-05
 273    0.00010985698757044
 274    1.2986179457797e-05
 275    -0.001206761867695
 276    -0.00033010781242108
 277    0.0018495898308665
 278    -0.00011938780853705
 279    0.0001275135665593
 280    -9.5366863614706e-05