[Molden Format]
made by pyscf v[2.0.1]
[Atoms] (AU)
C   1   6     0.69100024066471     0.64692934207205    -3.48223131169301
H   2   1     2.68052439830868     1.13355088658700    -3.25784032593313
C   3   6    -0.36286361513219     0.85440132524594    -5.97030179418974
H   4   1    -2.35448549047279     0.36322488579172    -6.17995817793143
C   5   6     0.93697958957450     1.61209284601821    -8.05828437677121
H   6   1    -0.09693119212527     2.00604603919817    -9.79517014534402
C   7   6     3.63030097622708     1.92762357571405    -8.11066704391556
H   8   1     4.64038155806228     1.52704759336691    -6.35595956986227
H   9   1     1.55630230933075    -1.92953025305990    12.99630010416247
C   10   6     0.75233899775814    -2.21270439606481    11.10705728102219
H   11   1    -0.43433408177274    -3.90944857546550    11.22216085340412
C   12   6     2.86362581178706    -2.63237380607947     9.17926416456045
H   13   1     4.39038949912609    -1.24955421540245     9.49899813497433
H   14   1     3.74629220191363    -4.48798724300892     9.47414880959024
C   15   6     2.02478325613682    -2.42177285709634     6.44560829588644
C   16   6     3.88048732735477    -3.58795445234514     4.61402886975252
C   17   6    -0.18412382258602    -1.30464291234259     5.76021113872346
C   18   6    -2.10044360464350    -0.26837831858460     7.71610340967100
C   19   6    -3.08956938670431     2.35282328359417     6.88693925039594
C   20   6    -4.37372924086464    -2.09766595989678     7.93610724222001
C   21   6    -0.83850430601230     0.06372213486173    10.33002307638377
H   22   1     0.38411922151109     1.74281358582432    10.27380136542181
H   23   1    -2.30980003007874     0.45460143924521    11.73986301809809
H   24   1     4.58527064644668    -5.38706904487420     5.36778158031719
H   25   1     5.54944938085014    -2.37631462192748     4.35398898413318
H   26   1     3.06633019150423    -3.94118377050688     2.75255466040884
H   27   1    -4.17727778763735     2.26573369139522     5.12914900961283
H   28   1    -1.52662344944051     3.68001877445626     6.59540397144508
H   29   1    -4.32916174397830     3.13643051467482     8.35225460090378
H   30   1    -5.32329548508442    -2.36691813602939     6.11583672749896
H   31   1    -5.77989366602257    -1.33896741843465     9.25748940450990
H   32   1    -3.79310905208926    -3.96389819310853     8.61386170102686
C   33   6    -1.01100794811226    -1.06331657314144     3.11929490449947
C   34   6     0.37686231036534    -0.33275864505552     1.09165013605873
H   35   1    -3.01671213906703    -1.40297922279997     2.77827895090944
C   36   6    -0.64382707979370    -0.11591880174385    -1.42063131251064
H   37   1     2.35569259782137     0.17174499283897     1.33641070251401
H   38   1    -2.63317482980319    -0.60229203511219    -1.66119700387645
C   39   6     5.00345825531076     2.67452304879010   -10.14372233560053
C   40   6     7.74537676211387     2.93885238802377   -10.00575318331397
H   41   1     4.11504514624535     3.10282594680410   -11.94789724846226
O   42   8     9.09456961333047     3.59889471504076   -11.75642359916462
H   43   1     8.57474602054619     2.48152315519597    -8.12342071425648
[GTO]
1 0
 s    6 1.00
             3047.5249  0.0018347001629433
             457.36951    0.01403730124668
             103.94869   0.068842606114048
             29.210155    0.23218442062076
              9.286663    0.46794134155879
              3.163927    0.36231203217765
 s    3 1.00
             7.8682724   -0.11933240861517
             1.8812885   -0.16085421161283
             0.5442493     1.1434564825515
 s    1 1.00
             0.1687144                   1
 p    3 1.00
             7.8682724   0.068999095584993
             1.8812885    0.31642397975315
             0.5442493    0.74430825237435
 p    1 1.00
             0.1687144                   1
 d    1 1.00
                   0.8                   1

2 0
 s    3 1.00
             18.731137    0.03349459952309
             2.8253937    0.23472694665786
             0.6401217    0.81375731841339
 s    1 1.00
             0.1612778                   1

3 0
 s    6 1.00
             3047.5249  0.0018347001629433
             457.36951    0.01403730124668
             103.94869   0.068842606114048
             29.210155    0.23218442062076
              9.286663    0.46794134155879
              3.163927    0.36231203217765
 s    3 1.00
             7.8682724   -0.11933240861517
             1.8812885   -0.16085421161283
             0.5442493     1.1434564825515
 s    1 1.00
             0.1687144                   1
 p    3 1.00
             7.8682724   0.068999095584993
             1.8812885    0.31642397975315
             0.5442493    0.74430825237435
 p    1 1.00
             0.1687144                   1
 d    1 1.00
                   0.8                   1

4 0
 s    3 1.00
             18.731137    0.03349459952309
             2.8253937    0.23472694665786
             0.6401217    0.81375731841339
 s    1 1.00
             0.1612778                   1

5 0
 s    6 1.00
             3047.5249  0.0018347001629433
             457.36951    0.01403730124668
             103.94869   0.068842606114048
             29.210155    0.23218442062076
              9.286663    0.46794134155879
              3.163927    0.36231203217765
 s    3 1.00
             7.8682724   -0.11933240861517
             1.8812885   -0.16085421161283
             0.5442493     1.1434564825515
 s    1 1.00
             0.1687144                   1
 p    3 1.00
             7.8682724   0.068999095584993
             1.8812885    0.31642397975315
             0.5442493    0.74430825237435
 p    1 1.00
             0.1687144                   1
 d    1 1.00
                   0.8                   1

6 0
 s    3 1.00
             18.731137    0.03349459952309
             2.8253937    0.23472694665786
             0.6401217    0.81375731841339
 s    1 1.00
             0.1612778                   1

7 0
 s    6 1.00
             3047.5249  0.0018347001629433
             457.36951    0.01403730124668
             103.94869   0.068842606114048
             29.210155    0.23218442062076
              9.286663    0.46794134155879
              3.163927    0.36231203217765
 s    3 1.00
             7.8682724   -0.11933240861517
             1.8812885   -0.16085421161283
             0.5442493     1.1434564825515
 s    1 1.00
             0.1687144                   1
 p    3 1.00
             7.8682724   0.068999095584993
             1.8812885    0.31642397975315
             0.5442493    0.74430825237435
 p    1 1.00
             0.1687144                   1
 d    1 1.00
                   0.8                   1

8 0
 s    3 1.00
             18.731137    0.03349459952309
             2.8253937    0.23472694665786
             0.6401217    0.81375731841339
 s    1 1.00
             0.1612778                   1

9 0
 s    3 1.00
             18.731137    0.03349459952309
             2.8253937    0.23472694665786
             0.6401217    0.81375731841339
 s    1 1.00
             0.1612778                   1

10 0
 s    6 1.00
             3047.5249  0.0018347001629433
             457.36951    0.01403730124668
             103.94869   0.068842606114048
             29.210155    0.23218442062076
              9.286663    0.46794134155879
              3.163927    0.36231203217765
 s    3 1.00
             7.8682724   -0.11933240861517
             1.8812885   -0.16085421161283
             0.5442493     1.1434564825515
 s    1 1.00
             0.1687144                   1
 p    3 1.00
             7.8682724   0.068999095584993
             1.8812885    0.31642397975315
             0.5442493    0.74430825237435
 p    1 1.00
             0.1687144                   1
 d    1 1.00
                   0.8                   1

11 0
 s    3 1.00
             18.731137    0.03349459952309
             2.8253937    0.23472694665786
             0.6401217    0.81375731841339
 s    1 1.00
             0.1612778                   1

12 0
 s    6 1.00
             3047.5249  0.0018347001629433
             457.36951    0.01403730124668
             103.94869   0.068842606114048
             29.210155    0.23218442062076
              9.286663    0.46794134155879
              3.163927    0.36231203217765
 s    3 1.00
             7.8682724   -0.11933240861517
             1.8812885   -0.16085421161283
             0.5442493     1.1434564825515
 s    1 1.00
             0.1687144                   1
 p    3 1.00
             7.8682724   0.068999095584993
             1.8812885    0.31642397975315
             0.5442493    0.74430825237435
 p    1 1.00
             0.1687144                   1
 d    1 1.00
                   0.8                   1

13 0
 s    3 1.00
             18.731137    0.03349459952309
             2.8253937    0.23472694665786
             0.6401217    0.81375731841339
 s    1 1.00
             0.1612778                   1

14 0
 s    3 1.00
             18.731137    0.03349459952309
             2.8253937    0.23472694665786
             0.6401217    0.81375731841339
 s    1 1.00
             0.1612778                   1

15 0
 s    6 1.00
             3047.5249  0.0018347001629433
             457.36951    0.01403730124668
             103.94869   0.068842606114048
             29.210155    0.23218442062076
              9.286663    0.46794134155879
              3.163927    0.36231203217765
 s    3 1.00
             7.8682724   -0.11933240861517
             1.8812885   -0.16085421161283
             0.5442493     1.1434564825515
 s    1 1.00
             0.1687144                   1
 p    3 1.00
             7.8682724   0.068999095584993
             1.8812885    0.31642397975315
             0.5442493    0.74430825237435
 p    1 1.00
             0.1687144                   1
 d    1 1.00
                   0.8                   1

16 0
 s    6 1.00
             3047.5249  0.0018347001629433
             457.36951    0.01403730124668
             103.94869   0.068842606114048
             29.210155    0.23218442062076
              9.286663    0.46794134155879
              3.163927    0.36231203217765
 s    3 1.00
             7.8682724   -0.11933240861517
             1.8812885   -0.16085421161283
             0.5442493     1.1434564825515
 s    1 1.00
             0.1687144                   1
 p    3 1.00
             7.8682724   0.068999095584993
             1.8812885    0.31642397975315
             0.5442493    0.74430825237435
 p    1 1.00
             0.1687144                   1
 d    1 1.00
                   0.8                   1

17 0
 s    6 1.00
             3047.5249  0.0018347001629433
             457.36951    0.01403730124668
             103.94869   0.068842606114048
             29.210155    0.23218442062076
              9.286663    0.46794134155879
              3.163927    0.36231203217765
 s    3 1.00
             7.8682724   -0.11933240861517
             1.8812885   -0.16085421161283
             0.5442493     1.1434564825515
 s    1 1.00
             0.1687144                   1
 p    3 1.00
             7.8682724   0.068999095584993
             1.8812885    0.31642397975315
             0.5442493    0.74430825237435
 p    1 1.00
             0.1687144                   1
 d    1 1.00
                   0.8                   1

18 0
 s    6 1.00
             3047.5249  0.0018347001629433
             457.36951    0.01403730124668
             103.94869   0.068842606114048
             29.210155    0.23218442062076
              9.286663    0.46794134155879
              3.163927    0.36231203217765
 s    3 1.00
             7.8682724   -0.11933240861517
             1.8812885   -0.16085421161283
             0.5442493     1.1434564825515
 s    1 1.00
             0.1687144                   1
 p    3 1.00
             7.8682724   0.068999095584993
             1.8812885    0.31642397975315
             0.5442493    0.74430825237435
 p    1 1.00
             0.1687144                   1
 d    1 1.00
                   0.8                   1

19 0
 s    6 1.00
             3047.5249  0.0018347001629433
             457.36951    0.01403730124668
             103.94869   0.068842606114048
             29.210155    0.23218442062076
              9.286663    0.46794134155879
              3.163927    0.36231203217765
 s    3 1.00
             7.8682724   -0.11933240861517
             1.8812885   -0.16085421161283
             0.5442493     1.1434564825515
 s    1 1.00
             0.1687144                   1
 p    3 1.00
             7.8682724   0.068999095584993
             1.8812885    0.31642397975315
             0.5442493    0.74430825237435
 p    1 1.00
             0.1687144                   1
 d    1 1.00
                   0.8                   1

20 0
 s    6 1.00
             3047.5249  0.0018347001629433
             457.36951    0.01403730124668
             103.94869   0.068842606114048
             29.210155    0.23218442062076
              9.286663    0.46794134155879
              3.163927    0.36231203217765
 s    3 1.00
             7.8682724   -0.11933240861517
             1.8812885   -0.16085421161283
             0.5442493     1.1434564825515
 s    1 1.00
             0.1687144                   1
 p    3 1.00
             7.8682724   0.068999095584993
             1.8812885    0.31642397975315
             0.5442493    0.74430825237435
 p    1 1.00
             0.1687144                   1
 d    1 1.00
                   0.8                   1

21 0
 s    6 1.00
             3047.5249  0.0018347001629433
             457.36951    0.01403730124668
             103.94869   0.068842606114048
             29.210155    0.23218442062076
              9.286663    0.46794134155879
              3.163927    0.36231203217765
 s    3 1.00
             7.8682724   -0.11933240861517
             1.8812885   -0.16085421161283
             0.5442493     1.1434564825515
 s    1 1.00
             0.1687144                   1
 p    3 1.00
             7.8682724   0.068999095584993
             1.8812885    0.31642397975315
             0.5442493    0.74430825237435
 p    1 1.00
             0.1687144                   1
 d    1 1.00
                   0.8                   1

22 0
 s    3 1.00
             18.731137    0.03349459952309
             2.8253937    0.23472694665786
             0.6401217    0.81375731841339
 s    1 1.00
             0.1612778                   1

23 0
 s    3 1.00
             18.731137    0.03349459952309
             2.8253937    0.23472694665786
             0.6401217    0.81375731841339
 s    1 1.00
             0.1612778                   1

24 0
 s    3 1.00
             18.731137    0.03349459952309
             2.8253937    0.23472694665786
             0.6401217    0.81375731841339
 s    1 1.00
             0.1612778                   1

25 0
 s    3 1.00
             18.731137    0.03349459952309
             2.8253937    0.23472694665786
             0.6401217    0.81375731841339
 s    1 1.00
             0.1612778                   1

26 0
 s    3 1.00
             18.731137    0.03349459952309
             2.8253937    0.23472694665786
             0.6401217    0.81375731841339
 s    1 1.00
             0.1612778                   1

27 0
 s    3 1.00
             18.731137    0.03349459952309
             2.8253937    0.23472694665786
             0.6401217    0.81375731841339
 s    1 1.00
             0.1612778                   1

28 0
 s    3 1.00
             18.731137    0.03349459952309
             2.8253937    0.23472694665786
             0.6401217    0.81375731841339
 s    1 1.00
             0.1612778                   1

29 0
 s    3 1.00
             18.731137    0.03349459952309
             2.8253937    0.23472694665786
             0.6401217    0.81375731841339
 s    1 1.00
             0.1612778                   1

30 0
 s    3 1.00
             18.731137    0.03349459952309
             2.8253937    0.23472694665786
             0.6401217    0.81375731841339
 s    1 1.00
             0.1612778                   1

31 0
 s    3 1.00
             18.731137    0.03349459952309
             2.8253937    0.23472694665786
             0.6401217    0.81375731841339
 s    1 1.00
             0.1612778                   1

32 0
 s    3 1.00
             18.731137    0.03349459952309
             2.8253937    0.23472694665786
             0.6401217    0.81375731841339
 s    1 1.00
             0.1612778                   1

33 0
 s    6 1.00
             3047.5249  0.0018347001629433
             457.36951    0.01403730124668
             103.94869   0.068842606114048
             29.210155    0.23218442062076
              9.286663    0.46794134155879
              3.163927    0.36231203217765
 s    3 1.00
             7.8682724   -0.11933240861517
             1.8812885   -0.16085421161283
             0.5442493     1.1434564825515
 s    1 1.00
             0.1687144                   1
 p    3 1.00
             7.8682724   0.068999095584993
             1.8812885    0.31642397975315
             0.5442493    0.74430825237435
 p    1 1.00
             0.1687144                   1
 d    1 1.00
                   0.8                   1

34 0
 s    6 1.00
             3047.5249  0.0018347001629433
             457.36951    0.01403730124668
             103.94869   0.068842606114048
             29.210155    0.23218442062076
              9.286663    0.46794134155879
              3.163927    0.36231203217765
 s    3 1.00
             7.8682724   -0.11933240861517
             1.8812885   -0.16085421161283
             0.5442493     1.1434564825515
 s    1 1.00
             0.1687144                   1
 p    3 1.00
             7.8682724   0.068999095584993
             1.8812885    0.31642397975315
             0.5442493    0.74430825237435
 p    1 1.00
             0.1687144                   1
 d    1 1.00
                   0.8                   1

35 0
 s    3 1.00
             18.731137    0.03349459952309
             2.8253937    0.23472694665786
             0.6401217    0.81375731841339
 s    1 1.00
             0.1612778                   1

36 0
 s    6 1.00
             3047.5249  0.0018347001629433
             457.36951    0.01403730124668
             103.94869   0.068842606114048
             29.210155    0.23218442062076
              9.286663    0.46794134155879
              3.163927    0.36231203217765
 s    3 1.00
             7.8682724   -0.11933240861517
             1.8812885   -0.16085421161283
             0.5442493     1.1434564825515
 s    1 1.00
             0.1687144                   1
 p    3 1.00
             7.8682724   0.068999095584993
             1.8812885    0.31642397975315
             0.5442493    0.74430825237435
 p    1 1.00
             0.1687144                   1
 d    1 1.00
                   0.8                   1

37 0
 s    3 1.00
             18.731137    0.03349459952309
             2.8253937    0.23472694665786
             0.6401217    0.81375731841339
 s    1 1.00
             0.1612778                   1

38 0
 s    3 1.00
             18.731137    0.03349459952309
             2.8253937    0.23472694665786
             0.6401217    0.81375731841339
 s    1 1.00
             0.1612778                   1

39 0
 s    6 1.00
             3047.5249  0.0018347001629433
             457.36951    0.01403730124668
             103.94869   0.068842606114048
             29.210155    0.23218442062076
              9.286663    0.46794134155879
              3.163927    0.36231203217765
 s    3 1.00
             7.8682724   -0.11933240861517
             1.8812885   -0.16085421161283
             0.5442493     1.1434564825515
 s    1 1.00
             0.1687144                   1
 p    3 1.00
             7.8682724   0.068999095584993
             1.8812885    0.31642397975315
             0.5442493    0.74430825237435
 p    1 1.00
             0.1687144                   1
 d    1 1.00
                   0.8                   1

40 0
 s    6 1.00
             3047.5249  0.0018347001629433
             457.36951    0.01403730124668
             103.94869   0.068842606114048
             29.210155    0.23218442062076
              9.286663    0.46794134155879
              3.163927    0.36231203217765
 s    3 1.00
             7.8682724   -0.11933240861517
             1.8812885   -0.16085421161283
             0.5442493     1.1434564825515
 s    1 1.00
             0.1687144                   1
 p    3 1.00
             7.8682724   0.068999095584993
             1.8812885    0.31642397975315
             0.5442493    0.74430825237435
 p    1 1.00
             0.1687144                   1
 d    1 1.00
                   0.8                   1

41 0
 s    3 1.00
             18.731137    0.03349459952309
             2.8253937    0.23472694665786
             0.6401217    0.81375731841339
 s    1 1.00
             0.1612778                   1

42 0
 s    6 1.00
             5484.6717   0.001831099805527
             825.23495   0.013950098518422
             188.04696    0.06844509273075
               52.9645    0.23271427528445
              16.89757    0.47019295006289
             5.7996353    0.35852086192309
 s    3 1.00
             15.539616   -0.11077750382508
             3.5999336   -0.14802630511126
             1.0137618     1.1307670390447
 s    1 1.00
             0.2700058                   1
 p    3 1.00
             15.539616   0.070874299543311
             3.5999336    0.33975279781076
             1.0137618    0.72715859531445
 p    1 1.00
             0.2700058                   1
 d    1 1.00
                   0.8                   1

43 0
 s    3 1.00
             18.731137    0.03349459952309
             2.8253937    0.23472694665786
             0.6401217    0.81375731841339
 s    1 1.00
             0.1612778                   1

[5d]
[7f]
[9g]

[MO]
 Sym= A
 Ene=               0
 Spin= Alpha
 Occup=    1.00000
   1    -8.4911210170262e-06
   2    -6.2055158970272e-05
   3    0.00084060931559668
   4    -2.3889465334448e-05
   5    2.0651711920516e-06
   6    7.2202540791374e-06
   7    -4.1729635857742e-05
   8    0.00012697203327905
   9    -0.00094650468834188
  10    2.6181587085936e-05
  11    2.8772678945277e-05
  12    1.2780761520146e-06
  13    3.6926664000061e-06
  14    -2.8000043010214e-06
  15    -3.1240994905895e-05
  16    3.1353867077892e-05
  17    1.9750141574826e-05
  18    0.00011454608215575
  19    -0.0018301956879511
  20    -7.9105801428406e-06
  21    -9.2116277019879e-06
  22    4.5489412209156e-05
  23    -0.001166773724935
  24    -0.00017316385156132
  25    -0.00036621708689457
  26    -2.7978896754892e-05
  27    1.4738937952728e-05
  28    9.5161181908911e-06
  29    -1.7416229351505e-05
  30    -1.539021768592e-05
  31    -4.8913771125973e-05
  32    -0.00027065929753784
  33    -4.0735341578192e-05
  34    -0.0002583714691371
  35    0.0035111076787312
  36    5.3581101393333e-05
  37    2.0074448131411e-05
  38    -4.5094932916633e-05
  39    0.0016437830738897
  40    -9.0738723986331e-05
  41     0.001056498141771
  42    -1.0136688243702e-05
  43    -1.9605677185923e-05
  44    -2.4887658405767e-05
  45    9.402908883729e-05
  46    2.4467728573606e-05
  47    4.2812171264078e-05
  48    0.00036653121882915
  49    8.9428044909235e-08
  50    -4.7474867839533e-05
  51    -0.002446611983227
  52    -0.00021272921259691
  53    -2.2054342352804e-05
  54    1.3213774333913e-05
  55    0.0028084046542864
  56    0.00030976034369205
  57    -7.9040460378113e-05
  58    0.00013089142273474
  59    -2.4939209094291e-05
  60    -5.4021192060215e-05
  61    -6.6682317388356e-05
  62    -4.1732187537522e-06
  63    -0.00014202485192394
  64    -0.00017285168065576
  65    -2.3254281114643e-07
  66    1.015337499886e-06
  67    -7.6701220390547e-08
  68    -7.3660061417477e-07
  69    -3.8065452526502e-07
  70    4.928284793154e-07
  71    -6.9341805098795e-07
  72    7.741550747469e-08
  73    1.7598314898819e-06
  74    1.6033235600734e-06
  75    -9.1412196295377e-07
  76    2.1637882562721e-07
  77    1.1613543637842e-07
  78    6.0716109843156e-08
  79    1.0857430320629e-07
  80    1.1252112396499e-07
  81    1.9545839630685e-07
  82    1.1094424273598e-06
  83    1.8925898365473e-07
  84    1.6307606531803e-06
  85    -5.5644384683255e-07
  86    -6.0165546995721e-08
  87    5.0234171710607e-07
  88    1.4818945105896e-07
  89    2.2153280380213e-06
  90    -7.4871675785761e-06
  91    -2.1561301993913e-06
  92    -8.0601136265589e-08
  93    -1.9702264029846e-07
  94    5.4952592146363e-07
  95    -2.9008158980412e-07
  96    3.2696088150889e-08
  97    9.4054298088454e-07
  98    1.3498129347567e-06
  99    -6.4653210738707e-07
 100    -1.826338882406e-06
 101    -4.454542733757e-07
 102    -2.2482333909353e-06
 103    5.5258648310645e-05
 104    -1.2707176290709e-06
 105    -1.1871362364763e-07
 106    -8.3273061716753e-07
 107    -1.5708761384448e-05
 108    1.9022268247621e-05
 109    -1.9212230232416e-05
 110    3.5678879401643e-07
 111    9.647108915671e-07
 112    -4.132715126629e-07
 113    -1.0615928857896e-07
 114    -8.5087250204232e-07
 115    1.7095717516341e-07
 116    1.5307525207506e-06
 117    -6.950464782939e-06
 118    2.4468102374261e-08
 119       1.063888249e-06
 120    -8.4710054809942e-07
 121    4.9936732257474e-06
 122    -1.0524827775376e-05
 123    4.1469612580786e-06
 124    4.6027620679054e-07
 125    -1.5955110773826e-07
 126    -7.3106782665834e-07
 127    -2.7619317632339e-07
 128    4.3488899109576e-08
 129    5.403181931382e-07
 130    2.5124164736518e-06
 131    -6.4481666679655e-06
 132    3.1336159741188e-06
 133    -4.3703315725736e-07
 134    -1.4231988947859e-06
 135    -6.908675881266e-05
 136    9.601962685883e-06
 137     2.19803630511e-05
 138    -9.0692684804967e-07
 139    1.1695166997134e-07
 140    1.8412578800007e-06
 141    -8.4171413792639e-08
 142    1.6820073341587e-06
 143    2.6031819871692e-07
 144    1.0467098440103e-06
 145    -3.9325465392915e-05
 146    3.9965556658916e-07
 147    -1.3406950791575e-07
 148    3.424158360352e-06
 149    -1.9078396453078e-05
 150    2.452083761115e-05
 151    -1.4228262355725e-05
 152    -3.5792237310189e-07
 153    2.6339950611586e-08
 154    -1.3184609335474e-06
 155    -3.4338747554237e-07
 156    -2.2264172342519e-07
 157    4.7730330840493e-07
 158    4.2237599183245e-06
 159    -2.2423769014673e-05
 160    5.8499429450541e-07
 161    3.1586002886358e-07
 162    -7.1246351196721e-07
 163    -5.7060466234724e-06
 164    9.0144400254643e-06
 165    2.8929595520069e-06
 166    5.4749010745833e-07
 167    -6.603323365874e-08
 168    9.0628468198003e-09
 169    5.3459417090062e-07
 170    2.4326857835361e-07
 171    -5.1348555907649e-09
 172    -4.4682066210104e-07
 173    2.3545520650141e-07
 174    -7.7296972735046e-07
 175    -1.0248430717318e-07
 176    1.4291910506028e-06
 177    1.1055807851238e-05
 178    3.3714303507074e-07
 179    2.4834908716595e-06
 180    -1.3885291609056e-07
 181    1.0520055895064e-06
 182    -9.9712001258014e-08
 183    6.8060962398832e-07
 184    7.969874252982e-07
 185    -4.5411918568435e-07
 186    -3.5254063047769e-06
 187    2.4038464552589e-05
 188    -8.3216536449088e-07
 189    -2.1306750972501e-07
 190    -7.0384466454408e-07
 191    -2.1909947408483e-06
 192    -5.8080148699796e-06
 193    -1.0869392215259e-05
 194    5.2769093514763e-07
 195    6.5331210834105e-07
 196    8.5899773798275e-07
 197    -3.9510036929488e-07
 198    3.6148759679926e-07
 199    -1.2227312073007e-06
 200    7.6190927228177e-07
 201    -3.8277891962967e-07
 202    -1.0281261740839e-07
 203    -8.6450386581686e-07
 204    -4.5544538843186e-06
 205    1.7792978709187e-06
 206    6.3055731322197e-08
 207    1.7512492834601e-06
 208    6.213531483476e-08
 209    1.7422990443971e-06
 210    1.7329686854081e-06
 211    1.1734564099151e-06
 212    2.3609739799088e-06
 213    4.5738152610327e-07
 214    -3.0288641820107e-06
 215    -2.5452702011453e-06
 216    1.3509687529857e-05
 217    8.5707852744438e-07
 218    2.2263222056231e-06
 219    1.6166004072697e-07
 220    -2.6515558521313e-06
 221    -3.2463434358436e-06
 222    -2.1468828957706e-05
 223    0.00027304065611306
 224    2.8915750204806e-06
 225    2.1688469808887e-06
 226    -3.1982999583072e-06
 227    7.3321954325476e-05
 228    3.9023638370122e-05
 229    -0.00015394178507774
 230    5.3332606244466e-06
 231    -5.5203621298713e-06
 232    -5.1191545857751e-06
 233    2.4780609387218e-06
 234    2.4277312777048e-06
 235    3.3781135346794e-06
 236    1.6166479915687e-05
 237    -0.00046293784270588
 238    -5.637165826301e-06
 239    -5.2392900629535e-06
 240    1.5875147057461e-05
 241    0.00017676297360251
 242    5.0403962854762e-05
 243    -3.2824608931855e-05
 244    -8.9906878152552e-06
 245    5.3154009176386e-06
 246    5.1739552512877e-06
 247    8.5609446926901e-08
 248    -4.1759450617929e-07
 249    -3.2205712746715e-06
 250    -1.1166531891508e-05
 251    -3.0618643688515e-06
 252    -1.9351058875454e-05
 253    0.00046637849912199
 254    -8.4297265675371e-06
 255    -8.4521641906904e-07
 256    -1.6913237811251e-05
 257    0.00027923361496044
 258    6.5253776049767e-05
 259    0.00014554219743889
 260    4.4372239245176e-06
 261    -1.2488952049407e-06
 262    -4.4448089399942e-06
 263    2.7860204400208e-06
 264    5.1221211653589e-06
 265    -1.2330393926081e-05
 266    -5.8288480520316e-06
 267    1.6204345735607e-05
 268    8.6431377930252e-05
 269    3.3449661228915e-05
 270    7.8272142709286e-05
 271    -0.0020940391801663
 272    -8.1382585873797e-05
 273    8.2454620046563e-06
 274    -6.2136961810097e-05
 275    -0.0015749458290458
 276    -0.00059043009572374
 277    0.0014585174837907
 278    9.4613943030246e-05
 279    0.00019765452833946
 280    5.4464726172812e-07