[Molden Format]
made by pyscf v[2.0.1]
[Atoms] (AU)
C   1   6     0.69100024066471     0.64692934207205    -3.48223131169301
H   2   1     2.68052439830868     1.13355088658700    -3.25784032593313
C   3   6    -0.36286361513219     0.85440132524594    -5.97030179418974
H   4   1    -2.35448549047279     0.36322488579172    -6.17995817793143
C   5   6     0.93697958957450     1.61209284601821    -8.05828437677121
H   6   1     1.79023114573091     3.48620134168797    -8.08322278856913
C   7   6     1.25568723688000     0.06665493916240   -10.26426053014808
H   8   1     0.39118722523993    -1.80671768770582   -10.21099750517578
H   9   1     1.55630230933075    -1.92953025305990    12.99630010416247
C   10   6     0.75233899775814    -2.21270439606481    11.10705728102219
H   11   1    -0.43433408177274    -3.90944857546550    11.22216085340412
C   12   6     2.86362581178706    -2.63237380607947     9.17926416456045
H   13   1     4.39038949912609    -1.24955421540245     9.49899813497433
H   14   1     3.74629220191363    -4.48798724300892     9.47414880959024
C   15   6     2.02478325613682    -2.42177285709634     6.44560829588644
C   16   6     3.88048732735477    -3.58795445234514     4.61402886975252
C   17   6    -0.18412382258602    -1.30464291234259     5.76021113872346
C   18   6    -2.10044360464350    -0.26837831858460     7.71610340967100
C   19   6    -3.08956938670431     2.35282328359417     6.88693925039594
C   20   6    -4.37372924086464    -2.09766595989678     7.93610724222001
C   21   6    -0.83850430601230     0.06372213486173    10.33002307638377
H   22   1     0.38411922151109     1.74281358582432    10.27380136542181
H   23   1    -2.30980003007874     0.45460143924521    11.73986301809809
H   24   1     4.58527064644668    -5.38706904487420     5.36778158031719
H   25   1     5.54944938085014    -2.37631462192748     4.35398898413318
H   26   1     3.06633019150423    -3.94118377050688     2.75255466040884
H   27   1    -4.17727778763735     2.26573369139522     5.12914900961283
H   28   1    -1.52662344944051     3.68001877445626     6.59540397144508
H   29   1    -4.32916174397830     3.13643051467482     8.35225460090378
H   30   1    -5.32329548508442    -2.36691813602939     6.11583672749896
H   31   1    -5.77989366602257    -1.33896741843465     9.25748940450990
H   32   1    -3.79310905208926    -3.96389819310853     8.61386170102686
C   33   6    -1.01100794811226    -1.06331657314144     3.11929490449947
C   34   6     0.37686231036534    -0.33275864505552     1.09165013605873
H   35   1    -3.01671213906703    -1.40297922279997     2.77827895090944
C   36   6    -0.64382707979370    -0.11591880174385    -1.42063131251064
H   37   1     2.35569259782137     0.17174499283897     1.33641070251401
H   38   1    -2.63317482980319    -0.60229203511219    -1.66119700387645
C   39   6     2.53016326718275     0.74184279311179   -12.38477126217512
C   40   6     2.74761784180424    -0.97075180884473   -14.53576076061004
H   41   1     3.43489191747297     2.57981441042514   -12.56110828288274
O   42   8     3.86136937293188    -0.48701494751058   -16.49697984673750
H   43   1     1.79359090776017    -2.83108880557309   -14.27278208139205
[GTO]
1 0
 s    6 1.00
             3047.5249  0.0018347001629433
             457.36951    0.01403730124668
             103.94869   0.068842606114048
             29.210155    0.23218442062076
              9.286663    0.46794134155879
              3.163927    0.36231203217765
 s    3 1.00
             7.8682724   -0.11933240861517
             1.8812885   -0.16085421161283
             0.5442493     1.1434564825515
 s    1 1.00
             0.1687144                   1
 p    3 1.00
             7.8682724   0.068999095584993
             1.8812885    0.31642397975315
             0.5442493    0.74430825237435
 p    1 1.00
             0.1687144                   1
 d    1 1.00
                   0.8                   1

2 0
 s    3 1.00
             18.731137    0.03349459952309
             2.8253937    0.23472694665786
             0.6401217    0.81375731841339
 s    1 1.00
             0.1612778                   1

3 0
 s    6 1.00
             3047.5249  0.0018347001629433
             457.36951    0.01403730124668
             103.94869   0.068842606114048
             29.210155    0.23218442062076
              9.286663    0.46794134155879
              3.163927    0.36231203217765
 s    3 1.00
             7.8682724   -0.11933240861517
             1.8812885   -0.16085421161283
             0.5442493     1.1434564825515
 s    1 1.00
             0.1687144                   1
 p    3 1.00
             7.8682724   0.068999095584993
             1.8812885    0.31642397975315
             0.5442493    0.74430825237435
 p    1 1.00
             0.1687144                   1
 d    1 1.00
                   0.8                   1

4 0
 s    3 1.00
             18.731137    0.03349459952309
             2.8253937    0.23472694665786
             0.6401217    0.81375731841339
 s    1 1.00
             0.1612778                   1

5 0
 s    6 1.00
             3047.5249  0.0018347001629433
             457.36951    0.01403730124668
             103.94869   0.068842606114048
             29.210155    0.23218442062076
              9.286663    0.46794134155879
              3.163927    0.36231203217765
 s    3 1.00
             7.8682724   -0.11933240861517
             1.8812885   -0.16085421161283
             0.5442493     1.1434564825515
 s    1 1.00
             0.1687144                   1
 p    3 1.00
             7.8682724   0.068999095584993
             1.8812885    0.31642397975315
             0.5442493    0.74430825237435
 p    1 1.00
             0.1687144                   1
 d    1 1.00
                   0.8                   1

6 0
 s    3 1.00
             18.731137    0.03349459952309
             2.8253937    0.23472694665786
             0.6401217    0.81375731841339
 s    1 1.00
             0.1612778                   1

7 0
 s    6 1.00
             3047.5249  0.0018347001629433
             457.36951    0.01403730124668
             103.94869   0.068842606114048
             29.210155    0.23218442062076
              9.286663    0.46794134155879
              3.163927    0.36231203217765
 s    3 1.00
             7.8682724   -0.11933240861517
             1.8812885   -0.16085421161283
             0.5442493     1.1434564825515
 s    1 1.00
             0.1687144                   1
 p    3 1.00
             7.8682724   0.068999095584993
             1.8812885    0.31642397975315
             0.5442493    0.74430825237435
 p    1 1.00
             0.1687144                   1
 d    1 1.00
                   0.8                   1

8 0
 s    3 1.00
             18.731137    0.03349459952309
             2.8253937    0.23472694665786
             0.6401217    0.81375731841339
 s    1 1.00
             0.1612778                   1

9 0
 s    3 1.00
             18.731137    0.03349459952309
             2.8253937    0.23472694665786
             0.6401217    0.81375731841339
 s    1 1.00
             0.1612778                   1

10 0
 s    6 1.00
             3047.5249  0.0018347001629433
             457.36951    0.01403730124668
             103.94869   0.068842606114048
             29.210155    0.23218442062076
              9.286663    0.46794134155879
              3.163927    0.36231203217765
 s    3 1.00
             7.8682724   -0.11933240861517
             1.8812885   -0.16085421161283
             0.5442493     1.1434564825515
 s    1 1.00
             0.1687144                   1
 p    3 1.00
             7.8682724   0.068999095584993
             1.8812885    0.31642397975315
             0.5442493    0.74430825237435
 p    1 1.00
             0.1687144                   1
 d    1 1.00
                   0.8                   1

11 0
 s    3 1.00
             18.731137    0.03349459952309
             2.8253937    0.23472694665786
             0.6401217    0.81375731841339
 s    1 1.00
             0.1612778                   1

12 0
 s    6 1.00
             3047.5249  0.0018347001629433
             457.36951    0.01403730124668
             103.94869   0.068842606114048
             29.210155    0.23218442062076
              9.286663    0.46794134155879
              3.163927    0.36231203217765
 s    3 1.00
             7.8682724   -0.11933240861517
             1.8812885   -0.16085421161283
             0.5442493     1.1434564825515
 s    1 1.00
             0.1687144                   1
 p    3 1.00
             7.8682724   0.068999095584993
             1.8812885    0.31642397975315
             0.5442493    0.74430825237435
 p    1 1.00
             0.1687144                   1
 d    1 1.00
                   0.8                   1

13 0
 s    3 1.00
             18.731137    0.03349459952309
             2.8253937    0.23472694665786
             0.6401217    0.81375731841339
 s    1 1.00
             0.1612778                   1

14 0
 s    3 1.00
             18.731137    0.03349459952309
             2.8253937    0.23472694665786
             0.6401217    0.81375731841339
 s    1 1.00
             0.1612778                   1

15 0
 s    6 1.00
             3047.5249  0.0018347001629433
             457.36951    0.01403730124668
             103.94869   0.068842606114048
             29.210155    0.23218442062076
              9.286663    0.46794134155879
              3.163927    0.36231203217765
 s    3 1.00
             7.8682724   -0.11933240861517
             1.8812885   -0.16085421161283
             0.5442493     1.1434564825515
 s    1 1.00
             0.1687144                   1
 p    3 1.00
             7.8682724   0.068999095584993
             1.8812885    0.31642397975315
             0.5442493    0.74430825237435
 p    1 1.00
             0.1687144                   1
 d    1 1.00
                   0.8                   1

16 0
 s    6 1.00
             3047.5249  0.0018347001629433
             457.36951    0.01403730124668
             103.94869   0.068842606114048
             29.210155    0.23218442062076
              9.286663    0.46794134155879
              3.163927    0.36231203217765
 s    3 1.00
             7.8682724   -0.11933240861517
             1.8812885   -0.16085421161283
             0.5442493     1.1434564825515
 s    1 1.00
             0.1687144                   1
 p    3 1.00
             7.8682724   0.068999095584993
             1.8812885    0.31642397975315
             0.5442493    0.74430825237435
 p    1 1.00
             0.1687144                   1
 d    1 1.00
                   0.8                   1

17 0
 s    6 1.00
             3047.5249  0.0018347001629433
             457.36951    0.01403730124668
             103.94869   0.068842606114048
             29.210155    0.23218442062076
              9.286663    0.46794134155879
              3.163927    0.36231203217765
 s    3 1.00
             7.8682724   -0.11933240861517
             1.8812885   -0.16085421161283
             0.5442493     1.1434564825515
 s    1 1.00
             0.1687144                   1
 p    3 1.00
             7.8682724   0.068999095584993
             1.8812885    0.31642397975315
             0.5442493    0.74430825237435
 p    1 1.00
             0.1687144                   1
 d    1 1.00
                   0.8                   1

18 0
 s    6 1.00
             3047.5249  0.0018347001629433
             457.36951    0.01403730124668
             103.94869   0.068842606114048
             29.210155    0.23218442062076
              9.286663    0.46794134155879
              3.163927    0.36231203217765
 s    3 1.00
             7.8682724   -0.11933240861517
             1.8812885   -0.16085421161283
             0.5442493     1.1434564825515
 s    1 1.00
             0.1687144                   1
 p    3 1.00
             7.8682724   0.068999095584993
             1.8812885    0.31642397975315
             0.5442493    0.74430825237435
 p    1 1.00
             0.1687144                   1
 d    1 1.00
                   0.8                   1

19 0
 s    6 1.00
             3047.5249  0.0018347001629433
             457.36951    0.01403730124668
             103.94869   0.068842606114048
             29.210155    0.23218442062076
              9.286663    0.46794134155879
              3.163927    0.36231203217765
 s    3 1.00
             7.8682724   -0.11933240861517
             1.8812885   -0.16085421161283
             0.5442493     1.1434564825515
 s    1 1.00
             0.1687144                   1
 p    3 1.00
             7.8682724   0.068999095584993
             1.8812885    0.31642397975315
             0.5442493    0.74430825237435
 p    1 1.00
             0.1687144                   1
 d    1 1.00
                   0.8                   1

20 0
 s    6 1.00
             3047.5249  0.0018347001629433
             457.36951    0.01403730124668
             103.94869   0.068842606114048
             29.210155    0.23218442062076
              9.286663    0.46794134155879
              3.163927    0.36231203217765
 s    3 1.00
             7.8682724   -0.11933240861517
             1.8812885   -0.16085421161283
             0.5442493     1.1434564825515
 s    1 1.00
             0.1687144                   1
 p    3 1.00
             7.8682724   0.068999095584993
             1.8812885    0.31642397975315
             0.5442493    0.74430825237435
 p    1 1.00
             0.1687144                   1
 d    1 1.00
                   0.8                   1

21 0
 s    6 1.00
             3047.5249  0.0018347001629433
             457.36951    0.01403730124668
             103.94869   0.068842606114048
             29.210155    0.23218442062076
              9.286663    0.46794134155879
              3.163927    0.36231203217765
 s    3 1.00
             7.8682724   -0.11933240861517
             1.8812885   -0.16085421161283
             0.5442493     1.1434564825515
 s    1 1.00
             0.1687144                   1
 p    3 1.00
             7.8682724   0.068999095584993
             1.8812885    0.31642397975315
             0.5442493    0.74430825237435
 p    1 1.00
             0.1687144                   1
 d    1 1.00
                   0.8                   1

22 0
 s    3 1.00
             18.731137    0.03349459952309
             2.8253937    0.23472694665786
             0.6401217    0.81375731841339
 s    1 1.00
             0.1612778                   1

23 0
 s    3 1.00
             18.731137    0.03349459952309
             2.8253937    0.23472694665786
             0.6401217    0.81375731841339
 s    1 1.00
             0.1612778                   1

24 0
 s    3 1.00
             18.731137    0.03349459952309
             2.8253937    0.23472694665786
             0.6401217    0.81375731841339
 s    1 1.00
             0.1612778                   1

25 0
 s    3 1.00
             18.731137    0.03349459952309
             2.8253937    0.23472694665786
             0.6401217    0.81375731841339
 s    1 1.00
             0.1612778                   1

26 0
 s    3 1.00
             18.731137    0.03349459952309
             2.8253937    0.23472694665786
             0.6401217    0.81375731841339
 s    1 1.00
             0.1612778                   1

27 0
 s    3 1.00
             18.731137    0.03349459952309
             2.8253937    0.23472694665786
             0.6401217    0.81375731841339
 s    1 1.00
             0.1612778                   1

28 0
 s    3 1.00
             18.731137    0.03349459952309
             2.8253937    0.23472694665786
             0.6401217    0.81375731841339
 s    1 1.00
             0.1612778                   1

29 0
 s    3 1.00
             18.731137    0.03349459952309
             2.8253937    0.23472694665786
             0.6401217    0.81375731841339
 s    1 1.00
             0.1612778                   1

30 0
 s    3 1.00
             18.731137    0.03349459952309
             2.8253937    0.23472694665786
             0.6401217    0.81375731841339
 s    1 1.00
             0.1612778                   1

31 0
 s    3 1.00
             18.731137    0.03349459952309
             2.8253937    0.23472694665786
             0.6401217    0.81375731841339
 s    1 1.00
             0.1612778                   1

32 0
 s    3 1.00
             18.731137    0.03349459952309
             2.8253937    0.23472694665786
             0.6401217    0.81375731841339
 s    1 1.00
             0.1612778                   1

33 0
 s    6 1.00
             3047.5249  0.0018347001629433
             457.36951    0.01403730124668
             103.94869   0.068842606114048
             29.210155    0.23218442062076
              9.286663    0.46794134155879
              3.163927    0.36231203217765
 s    3 1.00
             7.8682724   -0.11933240861517
             1.8812885   -0.16085421161283
             0.5442493     1.1434564825515
 s    1 1.00
             0.1687144                   1
 p    3 1.00
             7.8682724   0.068999095584993
             1.8812885    0.31642397975315
             0.5442493    0.74430825237435
 p    1 1.00
             0.1687144                   1
 d    1 1.00
                   0.8                   1

34 0
 s    6 1.00
             3047.5249  0.0018347001629433
             457.36951    0.01403730124668
             103.94869   0.068842606114048
             29.210155    0.23218442062076
              9.286663    0.46794134155879
              3.163927    0.36231203217765
 s    3 1.00
             7.8682724   -0.11933240861517
             1.8812885   -0.16085421161283
             0.5442493     1.1434564825515
 s    1 1.00
             0.1687144                   1
 p    3 1.00
             7.8682724   0.068999095584993
             1.8812885    0.31642397975315
             0.5442493    0.74430825237435
 p    1 1.00
             0.1687144                   1
 d    1 1.00
                   0.8                   1

35 0
 s    3 1.00
             18.731137    0.03349459952309
             2.8253937    0.23472694665786
             0.6401217    0.81375731841339
 s    1 1.00
             0.1612778                   1

36 0
 s    6 1.00
             3047.5249  0.0018347001629433
             457.36951    0.01403730124668
             103.94869   0.068842606114048
             29.210155    0.23218442062076
              9.286663    0.46794134155879
              3.163927    0.36231203217765
 s    3 1.00
             7.8682724   -0.11933240861517
             1.8812885   -0.16085421161283
             0.5442493     1.1434564825515
 s    1 1.00
             0.1687144                   1
 p    3 1.00
             7.8682724   0.068999095584993
             1.8812885    0.31642397975315
             0.5442493    0.74430825237435
 p    1 1.00
             0.1687144                   1
 d    1 1.00
                   0.8                   1

37 0
 s    3 1.00
             18.731137    0.03349459952309
             2.8253937    0.23472694665786
             0.6401217    0.81375731841339
 s    1 1.00
             0.1612778                   1

38 0
 s    3 1.00
             18.731137    0.03349459952309
             2.8253937    0.23472694665786
             0.6401217    0.81375731841339
 s    1 1.00
             0.1612778                   1

39 0
 s    6 1.00
             3047.5249  0.0018347001629433
             457.36951    0.01403730124668
             103.94869   0.068842606114048
             29.210155    0.23218442062076
              9.286663    0.46794134155879
              3.163927    0.36231203217765
 s    3 1.00
             7.8682724   -0.11933240861517
             1.8812885   -0.16085421161283
             0.5442493     1.1434564825515
 s    1 1.00
             0.1687144                   1
 p    3 1.00
             7.8682724   0.068999095584993
             1.8812885    0.31642397975315
             0.5442493    0.74430825237435
 p    1 1.00
             0.1687144                   1
 d    1 1.00
                   0.8                   1

40 0
 s    6 1.00
             3047.5249  0.0018347001629433
             457.36951    0.01403730124668
             103.94869   0.068842606114048
             29.210155    0.23218442062076
              9.286663    0.46794134155879
              3.163927    0.36231203217765
 s    3 1.00
             7.8682724   -0.11933240861517
             1.8812885   -0.16085421161283
             0.5442493     1.1434564825515
 s    1 1.00
             0.1687144                   1
 p    3 1.00
             7.8682724   0.068999095584993
             1.8812885    0.31642397975315
             0.5442493    0.74430825237435
 p    1 1.00
             0.1687144                   1
 d    1 1.00
                   0.8                   1

41 0
 s    3 1.00
             18.731137    0.03349459952309
             2.8253937    0.23472694665786
             0.6401217    0.81375731841339
 s    1 1.00
             0.1612778                   1

42 0
 s    6 1.00
             5484.6717   0.001831099805527
             825.23495   0.013950098518422
             188.04696    0.06844509273075
               52.9645    0.23271427528445
              16.89757    0.47019295006289
             5.7996353    0.35852086192309
 s    3 1.00
             15.539616   -0.11077750382508
             3.5999336   -0.14802630511126
             1.0137618     1.1307670390447
 s    1 1.00
             0.2700058                   1
 p    3 1.00
             15.539616   0.070874299543311
             3.5999336    0.33975279781076
             1.0137618    0.72715859531445
 p    1 1.00
             0.2700058                   1
 d    1 1.00
                   0.8                   1

43 0
 s    3 1.00
             18.731137    0.03349459952309
             2.8253937    0.23472694665786
             0.6401217    0.81375731841339
 s    1 1.00
             0.1612778                   1

[5d]
[7f]
[9g]

[MO]
 Sym= A
 Ene=               0
 Spin= Alpha
 Occup=    1.00000
   1    3.970877867833e-07
   2    8.5351492765609e-06
   3    -8.1885496774606e-05
   4    2.0860805226411e-06
   5    -1.4059600096445e-05
   6    -4.0339230745251e-06
   7    4.687277324767e-05
   8    4.3154893512504e-05
   9    4.1881555152737e-05
  10    2.8265022198994e-06
  11    -2.1256362960971e-06
  12    -1.9748316637756e-06
  13    -5.3109888150407e-06
  14    2.966847162298e-06
  15    -2.004228535206e-07
  16    -1.7375805429346e-05
  17    -1.1757142106865e-06
  18    -6.0018044477206e-05
  19    -0.00044007620451022
  20    -2.1913151952018e-05
  21    8.7062256266172e-06
  22    3.9831939886256e-05
  23    -0.00010784935719993
  24    -8.5007022839323e-07
  25    0.00040009437934073
  26    -1.6872045637306e-05
  27    1.1816144246239e-05
  28    3.7977448054456e-06
  29    -2.2301277299355e-05
  30    1.4445277397335e-05
  31    3.2267297373992e-06
  32    1.3047767896188e-06
  33    -2.9328748999623e-05
  34    -0.00018744619213563
  35    0.0025788924278521
  36    3.716474588497e-05
  37    -9.3886413573007e-06
  38    -8.3378121476206e-05
  39    -0.00023725381589527
  40    -0.0010224289966796
  41    -0.00054506770855526
  42    4.8290812978779e-05
  43    -3.6332881353352e-05
  44    5.549364734015e-05
  45    -2.2978288812879e-05
  46    6.9466379185203e-06
  47    1.0797751241283e-05
  48    0.00016951509156821
  49    -3.9266047623557e-06
  50    -7.0295150405659e-05
  51    -0.0019937110283698
  52    -2.6843509571589e-05
  53    0.00011674813022218
  54    0.00017285114113806
  55    0.00020775539891618
  56    -0.0013290951368052
  57    -0.0017398664521764
  58    -2.3796491844185e-05
  59    -4.9266098605621e-05
  60    -0.00010532911437542
  61    5.9495439177968e-06
  62    6.8343717876615e-05
  63    -0.00016784356592742
  64    -3.7519711460134e-05
  65    9.9372771823519e-08
  66    3.5739389503583e-07
  67    5.6600502132657e-09
  68    8.7215134730186e-08
  69    -1.4528839267254e-06
  70    -2.5418977276721e-08
  71    3.4254385071759e-08
  72    3.3282164519568e-08
  73    1.9944054222192e-07
  74    -6.2397883760491e-07
  75    -4.2056000157651e-07
  76    4.4551320346087e-08
  77    6.0075765171723e-08
  78    -9.1171882791107e-09
  79    -2.8073480272899e-08
  80    4.609763197774e-08
  81    -1.8305666964836e-09
  82    1.8311624437681e-08
  83    1.2607348688105e-08
  84    1.6837778187768e-07
  85    3.134473016082e-06
  86    -1.2710444803164e-07
  87    -8.2141887444171e-08
  88    -2.3164867839554e-07
  89    -8.4686181665125e-07
  90    1.1520569123255e-06
  91    -7.3257220437357e-07
  92    -7.1486188422751e-08
  93    5.4949678384773e-08
  94    -2.6787625116427e-08
  95    -3.0153976453954e-08
  96    4.9589611105027e-08
  97    -1.0060543954614e-07
  98    -3.4735658015203e-07
  99    3.6573104245365e-08
 100    3.4451809542238e-07
 101    5.5787567068412e-09
 102    4.2631630608051e-07
 103    -6.1267915381829e-07
 104    -4.6872673659052e-08
 105    3.6302630804283e-07
 106    -9.8334725763191e-08
 107    4.0564516151906e-06
 108    -2.7303144781035e-06
 109    -8.7041509374909e-06
 110    2.7602072753409e-07
 111    2.8868105468034e-07
 112    -1.3392751370538e-07
 113    -3.421353089995e-07
 114    1.4168713664937e-08
 115    2.3082312592725e-07
 116    2.315527997366e-06
 117    -1.445773016455e-05
 118    1.9800002803909e-07
 119    -3.4104447564921e-07
 120    -4.2997398809601e-07
 121    2.6317229037375e-06
 122    -1.5250089168196e-07
 123    2.0449279556842e-06
 124    5.2178390780394e-08
 125    -6.5115540815854e-08
 126    4.8810007253741e-08
 127    4.1511909066163e-08
 128    6.4127751974551e-08
 129    3.7375953913916e-07
 130    3.7472041935268e-06
 131    -8.761566066324e-06
 132    4.9663919473832e-07
 133    6.8091925281393e-07
 134    -1.8650999767398e-06
 135    -4.2890890728125e-07
 136    -2.6771337913111e-06
 137    2.1058808586548e-05
 138    -7.3022579598632e-07
 139    -3.2294191873359e-07
 140    1.4812665563314e-07
 141    -1.7103219394923e-07
 142    9.4284017351831e-08
 143    4.6586355939113e-08
 144    3.3335617090468e-07
 145    -5.5458578949793e-06
 146    -2.054998956966e-07
 147    -5.4423142296494e-07
 148    4.4544608281218e-07
 149    -3.2985185078806e-06
 150    7.6070179234692e-06
 151    -2.7516021555514e-06
 152    3.2655978180678e-07
 153    9.3838164476108e-08
 154    -1.9927521881563e-07
 155    -2.6968590908922e-07
 156    5.4920412205967e-08
 157    4.7791106177213e-08
 158    3.2717006082975e-07
 159    -5.1584231812531e-06
 160    -2.9264628779106e-07
 161    2.2846164952863e-07
 162    -1.9167013336806e-07
 163    6.0036450237954e-07
 164    1.8819401164426e-06
 165    4.968324844916e-09
 166    3.2031609611285e-08
 167    -7.1743315157075e-08
 168    3.3004175242839e-08
 169    1.0342089140638e-07
 170    3.765621810088e-08
 171    -1.0302954910872e-08
 172    1.4438014346762e-07
 173    1.6828791984906e-06
 174    2.6438454846266e-07
 175    6.870707454951e-09
 176    -1.4400817005169e-07
 177    1.5545411413769e-06
 178    2.0414349202058e-07
 179    1.652458416353e-06
 180    -1.1610051780226e-07
 181    7.979550755762e-08
 182    5.0095868409036e-08
 183    2.2456094625431e-07
 184    5.4452836718163e-08
 185    4.0306035206595e-08
 186    4.9442134367385e-07
 187    1.6423687427857e-06
 188    -2.5359081962138e-09
 189    -5.225914526976e-08
 190    -3.6578526690812e-07
 191    -1.1544473275176e-06
 192    -1.7889345604594e-06
 193    1.157817154862e-06
 194    -1.2804467398465e-07
 195    1.006978106667e-07
 196    1.6479584389727e-07
 197    -4.8405401989408e-08
 198    6.2954734876907e-08
 199    1.4606422523391e-07
 200    8.6761637239338e-07
 201    -9.4158714980845e-08
 202    -1.0806316605911e-06
 203    6.5587205989613e-07
 204    5.4318271929845e-07
 205    4.218449493005e-07
 206    9.1860469786796e-07
 207    -1.0440296012167e-06
 208    9.0949338914704e-06
 209    -6.3750127603587e-08
 210    1.5059323872626e-06
 211    1.5351561238164e-07
 212    -6.5876374342841e-07
 213    1.144225303109e-07
 214    4.1934454155627e-07
 215    -8.3192599361566e-08
 216    1.8101674505951e-06
 217    -8.1234916873365e-08
 218    -4.252991843254e-07
 219    2.4211977812654e-08
 220    -6.9000893178605e-07
 221    -6.100124214015e-08
 222    1.1790115661063e-06
 223    2.155859960085e-05
 224    1.0086335517418e-06
 225    -4.4088983738483e-07
 226    -1.03142142383e-06
 227    -6.1156495328432e-06
 228    -3.5473506428331e-06
 229    9.142950621101e-07
 230    1.0355663045995e-06
 231    3.091160433982e-07
 232    2.4625668091532e-07
 233    -2.5672558722405e-07
 234    -9.4688183365093e-07
 235    1.4739413269785e-06
 236    1.0751710859052e-05
 237    -0.00010072928397177
 238    1.6075609500224e-07
 239    -1.9471024356897e-06
 240    3.8929986543581e-07
 241    3.2198524757867e-05
 242    1.2583704367001e-05
 243    5.8820232876346e-05
 244    -3.7480812816434e-06
 245    -2.4484884322308e-06
 246    -9.1596484255645e-07
 247    -1.0614614304318e-06
 248    -1.8021415997899e-06
 249    -3.3452137243694e-07
 250    -7.5133377311499e-06
 251    2.3480422952695e-07
 252    4.3649094609157e-06
 253    6.9480863608758e-05
 254    -3.5192766267081e-06
 255    8.6109498432114e-06
 256    -7.0141866239051e-06
 257    2.8527925553769e-05
 258    -4.7234252012123e-05
 259    9.0298279228969e-05
 260    2.6441803172666e-06
 261    3.4621191602223e-06
 262    2.6630957526547e-06
 263    -9.7055749813769e-07
 264    -4.0716984449747e-06
 265    1.6003314289254e-06
 266    -1.1850795762985e-05
 267    6.3933864949861e-06
 268    -8.5217821517146e-06
 269    3.113241384517e-05
 270    6.0982918998287e-05
 271    -0.0018151727615337
 272    2.4750689971663e-05
 273    0.00010241573366176
 274    4.3741699984561e-05
 275    -0.0010582733756319
 276    -0.00035724659708755
 277    0.0019643593497593
 278    -0.00018494266091617
 279    8.7174912341289e-05
 280    -4.696436535889e-05