[Molden Format]
made by pyscf v[2.0.1]
[Atoms] (AU)
C   1   6     0.69100024066471     0.64692934207205    -3.48223131169301
H   2   1     2.68052439830868     1.13355088658700    -3.25784032593313
C   3   6    -0.36286361513219     0.85440132524594    -5.97030179418974
H   4   1    -2.35448549047279     0.36322488579172    -6.17995817793143
C   5   6     0.93697958957450     1.61209284601821    -8.05828437677121
H   6   1     1.09182490265505     3.62435627880799    -8.46787148771875
C   7   6     2.13423629966321    -0.10744231105711    -9.78050935942977
H   8   1     1.96390963868834    -2.11762116447114    -9.34474333768613
H   9   1     1.55630230933075    -1.92953025305990    12.99630010416247
C   10   6     0.75233899775814    -2.21270439606481    11.10705728102219
H   11   1    -0.43433408177274    -3.90944857546550    11.22216085340412
C   12   6     2.86362581178706    -2.63237380607947     9.17926416456045
H   13   1     4.39038949912609    -1.24955421540245     9.49899813497433
H   14   1     3.74629220191363    -4.48798724300892     9.47414880959024
C   15   6     2.02478325613682    -2.42177285709634     6.44560829588644
C   16   6     3.88048732735477    -3.58795445234514     4.61402886975252
C   17   6    -0.18412382258602    -1.30464291234259     5.76021113872346
C   18   6    -2.10044360464350    -0.26837831858460     7.71610340967100
C   19   6    -3.08956938670431     2.35282328359417     6.88693925039594
C   20   6    -4.37372924086464    -2.09766595989678     7.93610724222001
C   21   6    -0.83850430601230     0.06372213486173    10.33002307638377
H   22   1     0.38411922151109     1.74281358582432    10.27380136542181
H   23   1    -2.30980003007874     0.45460143924521    11.73986301809809
H   24   1     4.58527064644668    -5.38706904487420     5.36778158031719
H   25   1     5.54944938085014    -2.37631462192748     4.35398898413318
H   26   1     3.06633019150423    -3.94118377050688     2.75255466040884
H   27   1    -4.17727778763735     2.26573369139522     5.12914900961283
H   28   1    -1.52662344944051     3.68001877445626     6.59540397144508
H   29   1    -4.32916174397830     3.13643051467482     8.35225460090378
H   30   1    -5.32329548508442    -2.36691813602939     6.11583672749896
H   31   1    -5.77989366602257    -1.33896741843465     9.25748940450990
H   32   1    -3.79310905208926    -3.96389819310853     8.61386170102686
C   33   6    -1.01100794811226    -1.06331657314144     3.11929490449947
C   34   6     0.37686231036534    -0.33275864505552     1.09165013605873
H   35   1    -3.01671213906703    -1.40297922279997     2.77827895090944
C   36   6    -0.64382707979370    -0.11591880174385    -1.42063131251064
H   37   1     2.35569259782137     0.17174499283897     1.33641070251401
H   38   1    -2.63317482980319    -0.60229203511219    -1.66119700387645
C   39   6     3.44427310754987     0.55955226130243   -11.88185544133447
C   40   6     4.59546774580895    -1.33837842065929   -13.51881378425706
H   41   1     3.68484150802705     2.52824088205540   -12.42422090941845
O   42   8     5.79494197127018    -0.87330187518197   -15.43343894779829
H   43   1     4.30216020100717    -3.32855150553013   -12.89162904717628
[GTO]
1 0
 s    6 1.00
             3047.5249  0.0018347001629433
             457.36951    0.01403730124668
             103.94869   0.068842606114048
             29.210155    0.23218442062076
              9.286663    0.46794134155879
              3.163927    0.36231203217765
 s    3 1.00
             7.8682724   -0.11933240861517
             1.8812885   -0.16085421161283
             0.5442493     1.1434564825515
 s    1 1.00
             0.1687144                   1
 p    3 1.00
             7.8682724   0.068999095584993
             1.8812885    0.31642397975315
             0.5442493    0.74430825237435
 p    1 1.00
             0.1687144                   1
 d    1 1.00
                   0.8                   1

2 0
 s    3 1.00
             18.731137    0.03349459952309
             2.8253937    0.23472694665786
             0.6401217    0.81375731841339
 s    1 1.00
             0.1612778                   1

3 0
 s    6 1.00
             3047.5249  0.0018347001629433
             457.36951    0.01403730124668
             103.94869   0.068842606114048
             29.210155    0.23218442062076
              9.286663    0.46794134155879
              3.163927    0.36231203217765
 s    3 1.00
             7.8682724   -0.11933240861517
             1.8812885   -0.16085421161283
             0.5442493     1.1434564825515
 s    1 1.00
             0.1687144                   1
 p    3 1.00
             7.8682724   0.068999095584993
             1.8812885    0.31642397975315
             0.5442493    0.74430825237435
 p    1 1.00
             0.1687144                   1
 d    1 1.00
                   0.8                   1

4 0
 s    3 1.00
             18.731137    0.03349459952309
             2.8253937    0.23472694665786
             0.6401217    0.81375731841339
 s    1 1.00
             0.1612778                   1

5 0
 s    6 1.00
             3047.5249  0.0018347001629433
             457.36951    0.01403730124668
             103.94869   0.068842606114048
             29.210155    0.23218442062076
              9.286663    0.46794134155879
              3.163927    0.36231203217765
 s    3 1.00
             7.8682724   -0.11933240861517
             1.8812885   -0.16085421161283
             0.5442493     1.1434564825515
 s    1 1.00
             0.1687144                   1
 p    3 1.00
             7.8682724   0.068999095584993
             1.8812885    0.31642397975315
             0.5442493    0.74430825237435
 p    1 1.00
             0.1687144                   1
 d    1 1.00
                   0.8                   1

6 0
 s    3 1.00
             18.731137    0.03349459952309
             2.8253937    0.23472694665786
             0.6401217    0.81375731841339
 s    1 1.00
             0.1612778                   1

7 0
 s    6 1.00
             3047.5249  0.0018347001629433
             457.36951    0.01403730124668
             103.94869   0.068842606114048
             29.210155    0.23218442062076
              9.286663    0.46794134155879
              3.163927    0.36231203217765
 s    3 1.00
             7.8682724   -0.11933240861517
             1.8812885   -0.16085421161283
             0.5442493     1.1434564825515
 s    1 1.00
             0.1687144                   1
 p    3 1.00
             7.8682724   0.068999095584993
             1.8812885    0.31642397975315
             0.5442493    0.74430825237435
 p    1 1.00
             0.1687144                   1
 d    1 1.00
                   0.8                   1

8 0
 s    3 1.00
             18.731137    0.03349459952309
             2.8253937    0.23472694665786
             0.6401217    0.81375731841339
 s    1 1.00
             0.1612778                   1

9 0
 s    3 1.00
             18.731137    0.03349459952309
             2.8253937    0.23472694665786
             0.6401217    0.81375731841339
 s    1 1.00
             0.1612778                   1

10 0
 s    6 1.00
             3047.5249  0.0018347001629433
             457.36951    0.01403730124668
             103.94869   0.068842606114048
             29.210155    0.23218442062076
              9.286663    0.46794134155879
              3.163927    0.36231203217765
 s    3 1.00
             7.8682724   -0.11933240861517
             1.8812885   -0.16085421161283
             0.5442493     1.1434564825515
 s    1 1.00
             0.1687144                   1
 p    3 1.00
             7.8682724   0.068999095584993
             1.8812885    0.31642397975315
             0.5442493    0.74430825237435
 p    1 1.00
             0.1687144                   1
 d    1 1.00
                   0.8                   1

11 0
 s    3 1.00
             18.731137    0.03349459952309
             2.8253937    0.23472694665786
             0.6401217    0.81375731841339
 s    1 1.00
             0.1612778                   1

12 0
 s    6 1.00
             3047.5249  0.0018347001629433
             457.36951    0.01403730124668
             103.94869   0.068842606114048
             29.210155    0.23218442062076
              9.286663    0.46794134155879
              3.163927    0.36231203217765
 s    3 1.00
             7.8682724   -0.11933240861517
             1.8812885   -0.16085421161283
             0.5442493     1.1434564825515
 s    1 1.00
             0.1687144                   1
 p    3 1.00
             7.8682724   0.068999095584993
             1.8812885    0.31642397975315
             0.5442493    0.74430825237435
 p    1 1.00
             0.1687144                   1
 d    1 1.00
                   0.8                   1

13 0
 s    3 1.00
             18.731137    0.03349459952309
             2.8253937    0.23472694665786
             0.6401217    0.81375731841339
 s    1 1.00
             0.1612778                   1

14 0
 s    3 1.00
             18.731137    0.03349459952309
             2.8253937    0.23472694665786
             0.6401217    0.81375731841339
 s    1 1.00
             0.1612778                   1

15 0
 s    6 1.00
             3047.5249  0.0018347001629433
             457.36951    0.01403730124668
             103.94869   0.068842606114048
             29.210155    0.23218442062076
              9.286663    0.46794134155879
              3.163927    0.36231203217765
 s    3 1.00
             7.8682724   -0.11933240861517
             1.8812885   -0.16085421161283
             0.5442493     1.1434564825515
 s    1 1.00
             0.1687144                   1
 p    3 1.00
             7.8682724   0.068999095584993
             1.8812885    0.31642397975315
             0.5442493    0.74430825237435
 p    1 1.00
             0.1687144                   1
 d    1 1.00
                   0.8                   1

16 0
 s    6 1.00
             3047.5249  0.0018347001629433
             457.36951    0.01403730124668
             103.94869   0.068842606114048
             29.210155    0.23218442062076
              9.286663    0.46794134155879
              3.163927    0.36231203217765
 s    3 1.00
             7.8682724   -0.11933240861517
             1.8812885   -0.16085421161283
             0.5442493     1.1434564825515
 s    1 1.00
             0.1687144                   1
 p    3 1.00
             7.8682724   0.068999095584993
             1.8812885    0.31642397975315
             0.5442493    0.74430825237435
 p    1 1.00
             0.1687144                   1
 d    1 1.00
                   0.8                   1

17 0
 s    6 1.00
             3047.5249  0.0018347001629433
             457.36951    0.01403730124668
             103.94869   0.068842606114048
             29.210155    0.23218442062076
              9.286663    0.46794134155879
              3.163927    0.36231203217765
 s    3 1.00
             7.8682724   -0.11933240861517
             1.8812885   -0.16085421161283
             0.5442493     1.1434564825515
 s    1 1.00
             0.1687144                   1
 p    3 1.00
             7.8682724   0.068999095584993
             1.8812885    0.31642397975315
             0.5442493    0.74430825237435
 p    1 1.00
             0.1687144                   1
 d    1 1.00
                   0.8                   1

18 0
 s    6 1.00
             3047.5249  0.0018347001629433
             457.36951    0.01403730124668
             103.94869   0.068842606114048
             29.210155    0.23218442062076
              9.286663    0.46794134155879
              3.163927    0.36231203217765
 s    3 1.00
             7.8682724   -0.11933240861517
             1.8812885   -0.16085421161283
             0.5442493     1.1434564825515
 s    1 1.00
             0.1687144                   1
 p    3 1.00
             7.8682724   0.068999095584993
             1.8812885    0.31642397975315
             0.5442493    0.74430825237435
 p    1 1.00
             0.1687144                   1
 d    1 1.00
                   0.8                   1

19 0
 s    6 1.00
             3047.5249  0.0018347001629433
             457.36951    0.01403730124668
             103.94869   0.068842606114048
             29.210155    0.23218442062076
              9.286663    0.46794134155879
              3.163927    0.36231203217765
 s    3 1.00
             7.8682724   -0.11933240861517
             1.8812885   -0.16085421161283
             0.5442493     1.1434564825515
 s    1 1.00
             0.1687144                   1
 p    3 1.00
             7.8682724   0.068999095584993
             1.8812885    0.31642397975315
             0.5442493    0.74430825237435
 p    1 1.00
             0.1687144                   1
 d    1 1.00
                   0.8                   1

20 0
 s    6 1.00
             3047.5249  0.0018347001629433
             457.36951    0.01403730124668
             103.94869   0.068842606114048
             29.210155    0.23218442062076
              9.286663    0.46794134155879
              3.163927    0.36231203217765
 s    3 1.00
             7.8682724   -0.11933240861517
             1.8812885   -0.16085421161283
             0.5442493     1.1434564825515
 s    1 1.00
             0.1687144                   1
 p    3 1.00
             7.8682724   0.068999095584993
             1.8812885    0.31642397975315
             0.5442493    0.74430825237435
 p    1 1.00
             0.1687144                   1
 d    1 1.00
                   0.8                   1

21 0
 s    6 1.00
             3047.5249  0.0018347001629433
             457.36951    0.01403730124668
             103.94869   0.068842606114048
             29.210155    0.23218442062076
              9.286663    0.46794134155879
              3.163927    0.36231203217765
 s    3 1.00
             7.8682724   -0.11933240861517
             1.8812885   -0.16085421161283
             0.5442493     1.1434564825515
 s    1 1.00
             0.1687144                   1
 p    3 1.00
             7.8682724   0.068999095584993
             1.8812885    0.31642397975315
             0.5442493    0.74430825237435
 p    1 1.00
             0.1687144                   1
 d    1 1.00
                   0.8                   1

22 0
 s    3 1.00
             18.731137    0.03349459952309
             2.8253937    0.23472694665786
             0.6401217    0.81375731841339
 s    1 1.00
             0.1612778                   1

23 0
 s    3 1.00
             18.731137    0.03349459952309
             2.8253937    0.23472694665786
             0.6401217    0.81375731841339
 s    1 1.00
             0.1612778                   1

24 0
 s    3 1.00
             18.731137    0.03349459952309
             2.8253937    0.23472694665786
             0.6401217    0.81375731841339
 s    1 1.00
             0.1612778                   1

25 0
 s    3 1.00
             18.731137    0.03349459952309
             2.8253937    0.23472694665786
             0.6401217    0.81375731841339
 s    1 1.00
             0.1612778                   1

26 0
 s    3 1.00
             18.731137    0.03349459952309
             2.8253937    0.23472694665786
             0.6401217    0.81375731841339
 s    1 1.00
             0.1612778                   1

27 0
 s    3 1.00
             18.731137    0.03349459952309
             2.8253937    0.23472694665786
             0.6401217    0.81375731841339
 s    1 1.00
             0.1612778                   1

28 0
 s    3 1.00
             18.731137    0.03349459952309
             2.8253937    0.23472694665786
             0.6401217    0.81375731841339
 s    1 1.00
             0.1612778                   1

29 0
 s    3 1.00
             18.731137    0.03349459952309
             2.8253937    0.23472694665786
             0.6401217    0.81375731841339
 s    1 1.00
             0.1612778                   1

30 0
 s    3 1.00
             18.731137    0.03349459952309
             2.8253937    0.23472694665786
             0.6401217    0.81375731841339
 s    1 1.00
             0.1612778                   1

31 0
 s    3 1.00
             18.731137    0.03349459952309
             2.8253937    0.23472694665786
             0.6401217    0.81375731841339
 s    1 1.00
             0.1612778                   1

32 0
 s    3 1.00
             18.731137    0.03349459952309
             2.8253937    0.23472694665786
             0.6401217    0.81375731841339
 s    1 1.00
             0.1612778                   1

33 0
 s    6 1.00
             3047.5249  0.0018347001629433
             457.36951    0.01403730124668
             103.94869   0.068842606114048
             29.210155    0.23218442062076
              9.286663    0.46794134155879
              3.163927    0.36231203217765
 s    3 1.00
             7.8682724   -0.11933240861517
             1.8812885   -0.16085421161283
             0.5442493     1.1434564825515
 s    1 1.00
             0.1687144                   1
 p    3 1.00
             7.8682724   0.068999095584993
             1.8812885    0.31642397975315
             0.5442493    0.74430825237435
 p    1 1.00
             0.1687144                   1
 d    1 1.00
                   0.8                   1

34 0
 s    6 1.00
             3047.5249  0.0018347001629433
             457.36951    0.01403730124668
             103.94869   0.068842606114048
             29.210155    0.23218442062076
              9.286663    0.46794134155879
              3.163927    0.36231203217765
 s    3 1.00
             7.8682724   -0.11933240861517
             1.8812885   -0.16085421161283
             0.5442493     1.1434564825515
 s    1 1.00
             0.1687144                   1
 p    3 1.00
             7.8682724   0.068999095584993
             1.8812885    0.31642397975315
             0.5442493    0.74430825237435
 p    1 1.00
             0.1687144                   1
 d    1 1.00
                   0.8                   1

35 0
 s    3 1.00
             18.731137    0.03349459952309
             2.8253937    0.23472694665786
             0.6401217    0.81375731841339
 s    1 1.00
             0.1612778                   1

36 0
 s    6 1.00
             3047.5249  0.0018347001629433
             457.36951    0.01403730124668
             103.94869   0.068842606114048
             29.210155    0.23218442062076
              9.286663    0.46794134155879
              3.163927    0.36231203217765
 s    3 1.00
             7.8682724   -0.11933240861517
             1.8812885   -0.16085421161283
             0.5442493     1.1434564825515
 s    1 1.00
             0.1687144                   1
 p    3 1.00
             7.8682724   0.068999095584993
             1.8812885    0.31642397975315
             0.5442493    0.74430825237435
 p    1 1.00
             0.1687144                   1
 d    1 1.00
                   0.8                   1

37 0
 s    3 1.00
             18.731137    0.03349459952309
             2.8253937    0.23472694665786
             0.6401217    0.81375731841339
 s    1 1.00
             0.1612778                   1

38 0
 s    3 1.00
             18.731137    0.03349459952309
             2.8253937    0.23472694665786
             0.6401217    0.81375731841339
 s    1 1.00
             0.1612778                   1

39 0
 s    6 1.00
             3047.5249  0.0018347001629433
             457.36951    0.01403730124668
             103.94869   0.068842606114048
             29.210155    0.23218442062076
              9.286663    0.46794134155879
              3.163927    0.36231203217765
 s    3 1.00
             7.8682724   -0.11933240861517
             1.8812885   -0.16085421161283
             0.5442493     1.1434564825515
 s    1 1.00
             0.1687144                   1
 p    3 1.00
             7.8682724   0.068999095584993
             1.8812885    0.31642397975315
             0.5442493    0.74430825237435
 p    1 1.00
             0.1687144                   1
 d    1 1.00
                   0.8                   1

40 0
 s    6 1.00
             3047.5249  0.0018347001629433
             457.36951    0.01403730124668
             103.94869   0.068842606114048
             29.210155    0.23218442062076
              9.286663    0.46794134155879
              3.163927    0.36231203217765
 s    3 1.00
             7.8682724   -0.11933240861517
             1.8812885   -0.16085421161283
             0.5442493     1.1434564825515
 s    1 1.00
             0.1687144                   1
 p    3 1.00
             7.8682724   0.068999095584993
             1.8812885    0.31642397975315
             0.5442493    0.74430825237435
 p    1 1.00
             0.1687144                   1
 d    1 1.00
                   0.8                   1

41 0
 s    3 1.00
             18.731137    0.03349459952309
             2.8253937    0.23472694665786
             0.6401217    0.81375731841339
 s    1 1.00
             0.1612778                   1

42 0
 s    6 1.00
             5484.6717   0.001831099805527
             825.23495   0.013950098518422
             188.04696    0.06844509273075
               52.9645    0.23271427528445
              16.89757    0.47019295006289
             5.7996353    0.35852086192309
 s    3 1.00
             15.539616   -0.11077750382508
             3.5999336   -0.14802630511126
             1.0137618     1.1307670390447
 s    1 1.00
             0.2700058                   1
 p    3 1.00
             15.539616   0.070874299543311
             3.5999336    0.33975279781076
             1.0137618    0.72715859531445
 p    1 1.00
             0.2700058                   1
 d    1 1.00
                   0.8                   1

43 0
 s    3 1.00
             18.731137    0.03349459952309
             2.8253937    0.23472694665786
             0.6401217    0.81375731841339
 s    1 1.00
             0.1612778                   1

[5d]
[7f]
[9g]

[MO]
 Sym= A
 Ene=               0
 Spin= Alpha
 Occup=    1.00000
   1    1.1201326730824e-06
   2    1.189809777539e-05
   3    -1.7692328975307e-05
   4    3.2316097090532e-06
   5    -4.0950939815927e-07
   6    -7.8789570148395e-06
   7    -1.2268893684567e-05
   8    -5.2034960522041e-05
   9    0.00021833873237312
  10    -2.003318235311e-07
  11    -6.5686290882571e-06
  12    -1.4342086620977e-06
  13    -8.046957626425e-06
  14    4.398603584856e-06
  15    8.3158776428292e-06
  16    -1.0044423724767e-05
  17    -4.7821876286537e-06
  18    -9.6350043607824e-05
  19    -0.00023314715095947
  20    -3.1532672373307e-05
  21    5.6384752135571e-06
  22    4.116670082612e-05
  23    -8.7293106512253e-05
  24    5.4367818142743e-05
  25    0.00035665966009347
  26    -1.2342817265035e-05
  27    1.3031534199609e-05
  28    -5.8098111714616e-06
  29    -2.4477411061953e-05
  30    2.498253320791e-06
  31    6.1996747753521e-06
  32    -1.5372222301703e-05
  33    -2.9943815219525e-05
  34    -0.00020126500648249
  35    0.0025202069104621
  36    5.0898970902517e-05
  37    -1.0662753084549e-05
  38    -8.4649967053211e-05
  39    0.00024847052324119
  40    -0.001111288685528
  41    -0.000317281042786
  42    1.5676687583357e-05
  43    -6.1438218316836e-05
  44    4.146329051316e-05
  45    -1.8555568609299e-05
  46    -2.9458040779019e-05
  47    1.0162007871354e-05
  48    0.00016440431641961
  49    -4.0553579510609e-06
  50    -7.0464969992864e-05
  51    -0.0019693896849954
  52    -9.5005030925135e-05
  53    0.00012993629598136
  54    0.00013783005322423
  55    0.00095244256105717
  56    -0.001466424567124
  57    -0.0013630789793145
  58    1.1804808684944e-05
  59    -2.4681523912858e-05
  60    -0.00011324510988926
  61    -1.468049349921e-05
  62    7.0885962958314e-05
  63    -0.00016657175777453
  64    -3.5628612192009e-05
  65    1.3012835866405e-07
  66    1.6840883963035e-07
  67    2.4352431614728e-08
  68    3.3242638923698e-07
  69    -1.6529899363683e-06
  70    -1.4013422120658e-07
  71    1.9700900830148e-07
  72    -6.6566769415971e-08
  73    -1.5514643674167e-07
  74    -9.6896501838545e-07
  75    -4.2426932841223e-08
  76    2.8727167655418e-08
  77    6.8580080203963e-08
  78    -2.9236692029877e-08
  79    -4.3663210870377e-08
  80    5.7757131998628e-08
  81    -5.0767030579436e-08
  82    -1.235570814492e-07
  83    -1.5849990826456e-08
  84     7.67173434837e-08
  85    7.5118893626342e-06
  86    -3.4909642244114e-07
  87    -4.7958492961565e-08
  88    -5.0340491017224e-07
  89    -1.9446760153562e-06
  90    2.8162871101629e-06
  91    -1.7683033255309e-06
  92    -9.6135665290494e-08
  93    1.6022794739614e-07
  94    -2.0456785491195e-07
  95    -1.837229305304e-08
  96    8.8392702949063e-08
  97    -3.8516724951982e-07
  98    -5.1256858431612e-07
  99    2.9497852923868e-08
 100    6.536050948617e-07
 101    4.8864463475412e-08
 102    5.8098428630136e-07
 103    -9.084892999094e-06
 104    -8.3355374754139e-08
 105    5.3608295282156e-07
 106    3.493507440968e-07
 107    1.1203984504734e-05
 108    -1.0219234657713e-05
 109    -1.6634325233034e-05
 110    3.2737236833582e-07
 111    2.8985284583759e-07
 112    -1.2632233499092e-07
 113    -2.1809002064183e-07
 114    2.9920571483896e-07
 115    2.7208283679151e-07
 116    2.5362376568446e-06
 117    -2.0489484986675e-05
 118    3.7659107594384e-07
 119    -6.0199883211812e-07
 120    -4.6619161815399e-07
 121    4.5330559214254e-06
 122    -2.7415008645097e-07
 123    -1.3853105850973e-06
 124    3.3339544280289e-08
 125    1.1977201019587e-07
 126    9.2242465887532e-08
 127    -4.1642188616945e-08
 128    1.9604651026991e-07
 129    5.2823561392234e-07
 130    4.9164061854409e-06
 131    -2.8010418211154e-05
 132    -1.4044807900249e-07
 133    2.1228053884435e-07
 134    -1.9577630324161e-06
 135    1.4920976393794e-05
 136    -1.087477257757e-06
 137    4.4820505987707e-05
 138    -1.3801566164027e-06
 139    -8.6025928311065e-07
 140    -1.5998045224602e-07
 141    -2.303857647908e-07
 142    -6.7357399589322e-08
 143    2.1365720106844e-07
 144    2.0446246528469e-06
 145    -9.8357964271817e-06
 146    -1.4801364864606e-07
 147    -3.1718182761391e-07
 148    -2.4588651370261e-07
 149    -6.1578076093666e-06
 150    3.6571052704578e-06
 151    1.4976502515096e-06
 152    5.791979285183e-07
 153    2.0324002986811e-07
 154    7.3568146640152e-08
 155    -4.0045441781586e-07
 156    4.0398336546057e-07
 157    -5.9497035724513e-08
 158    -4.9992435651065e-07
 159    -3.9803303138352e-07
 160    -4.1476128085154e-07
 161    6.7504397440015e-08
 162    3.6094793535213e-08
 163    3.4879362341465e-06
 164    -8.2852934402939e-08
 165    -4.7307934125941e-07
 166    -2.4646988660463e-07
 167    7.9849932390957e-08
 168    -6.5165907089305e-09
 169    6.0220861089428e-08
 170    -1.5712137578388e-07
 171    -1.5979406699911e-08
 172    2.2661325572986e-07
 173    9.9675187246722e-07
 174    3.7096412521433e-07
 175    8.5375780220355e-08
 176    -4.4179166044472e-07
 177    1.3572348338647e-07
 178    -8.7026272844436e-07
 179    1.0322222134018e-06
 180    -8.3682559236653e-08
 181    -1.2892709412701e-07
 182    -6.3193195566573e-09
 183    2.0986646960727e-07
 184    -1.0648583835081e-07
 185    1.7030014311342e-07
 186    1.7326225556403e-06
 187    -1.5033254574212e-06
 188    1.3959367466183e-07
 189    -7.2127986672646e-08
 190    -6.2896053757847e-07
 191    -1.2848359286419e-06
 192    -4.8575331328632e-07
 193    3.3173803656156e-06
 194    -1.9472808608724e-07
 195    1.5673643506681e-08
 196    -9.8733019176876e-08
 197    -3.9343465497027e-08
 198    4.6439873496759e-08
 199    4.3538387870477e-07
 200    7.2195889346678e-07
 201    -3.3505804846373e-08
 202    -1.861641320728e-06
 203    9.6936921026902e-07
 204    1.1716772510964e-06
 205    1.5685080011749e-07
 206    1.3341419989324e-06
 207    -7.7455684257113e-07
 208    7.0452958928522e-06
 209    -6.1753348099389e-07
 210    2.376583211908e-06
 211    -2.6194925212061e-07
 212    -1.611546140843e-06
 213    1.1689772920509e-07
 214    1.2290380789488e-06
 215    3.0110207547107e-07
 216    -4.49205580938e-07
 217    -1.749379864596e-07
 218    -4.9111709429542e-07
 219    -1.4841747467545e-07
 220    -6.1361192121972e-07
 221    4.5340861735019e-07
 222    4.8658378546627e-06
 223     2.13956869427e-07
 224    -1.5955662016516e-07
 225    2.8028864267402e-07
 226    -1.9796728780605e-06
 227    -8.4181154252102e-06
 228    -1.548138492758e-05
 229    5.4236408802554e-05
 230    5.7718497363131e-07
 231    2.3267107410831e-06
 232    1.182328346715e-06
 233    -1.0454858500631e-06
 234    -1.6285709357378e-06
 235    6.1595444248667e-07
 236    6.4526429372618e-06
 237    -1.1164970279193e-05
 238    5.9833532412709e-07
 239    -1.5907576340842e-06
 240    -2.5590995726429e-06
 241    1.0370779619296e-05
 242    4.5834933534175e-06
 243    5.3062938982736e-05
 244    -9.6933332788082e-07
 245    -3.9266249115462e-06
 246    -1.2853756673211e-06
 247    -1.4669554650385e-06
 248    -9.5688117597425e-07
 249    2.2338862843243e-06
 250    -6.2336780144595e-06
 251    2.1636874715078e-06
 252    1.8026319292085e-05
 253    -0.000139229398751
 254    -1.4830598066818e-06
 255    6.2055406053365e-06
 256    -4.3301747624104e-06
 257    -6.1247978969712e-05
 258    -5.945914410534e-05
 259    0.00013333021528195
 260    -1.0407230164801e-06
 261    6.7745508557812e-06
 262    3.3157140960747e-06
 263    -4.1781207625649e-06
 264    -3.556080683956e-06
 265    2.7430268156605e-06
 266    -1.5850882842509e-05
 267    4.7037438893188e-06
 268    -2.2487315364137e-05
 269    3.1570052495431e-05
 270    6.4336823929943e-05
 271    -0.001843554036349
 272    -1.9265086305073e-05
 273    0.00011096078966249
 274    1.9028007206857e-05
 275    -0.0011770355064942
 276    -0.0003269630743554
 277    0.0018702634967707
 278    -0.00013414765746612
 279    0.00011943289074719