[Molden Format]
made by pyscf v[2.0.1]
[Atoms] (AU)
C   1   6     0.69100024066471     0.64692934207205    -3.48223131169301
H   2   1     2.68052439830868     1.13355088658700    -3.25784032593313
C   3   6    -0.36286361513219     0.85440132524594    -5.97030179418974
H   4   1    -2.35448549047279     0.36322488579172    -6.17995817793143
C   5   6     0.93697958957450     1.61209284601821    -8.05828437677121
H   6   1     2.28684852848462     3.15852966115860    -7.89296704602693
C   7   6     0.63106041134958     0.47904579632082   -10.50346361691732
H   8   1    -0.72718870892227    -1.06897620367389   -10.63951300078030
H   9   1     1.55630230933075    -1.92953025305990    12.99630010416247
C   10   6     0.75233899775814    -2.21270439606481    11.10705728102219
H   11   1    -0.43433408177274    -3.90944857546550    11.22216085340412
C   12   6     2.86362581178706    -2.63237380607947     9.17926416456045
H   13   1     4.39038949912609    -1.24955421540245     9.49899813497433
H   14   1     3.74629220191363    -4.48798724300892     9.47414880959024
C   15   6     2.02478325613682    -2.42177285709634     6.44560829588644
C   16   6     3.88048732735477    -3.58795445234514     4.61402886975252
C   17   6    -0.18412382258602    -1.30464291234259     5.76021113872346
C   18   6    -2.10044360464350    -0.26837831858460     7.71610340967100
C   19   6    -3.08956938670431     2.35282328359417     6.88693925039594
C   20   6    -4.37372924086464    -2.09766595989678     7.93610724222001
C   21   6    -0.83850430601230     0.06372213486173    10.33002307638377
H   22   1     0.38411922151109     1.74281358582432    10.27380136542181
H   23   1    -2.30980003007874     0.45460143924521    11.73986301809809
H   24   1     4.58527064644668    -5.38706904487420     5.36778158031719
H   25   1     5.54944938085014    -2.37631462192748     4.35398898413318
H   26   1     3.06633019150423    -3.94118377050688     2.75255466040884
H   27   1    -4.17727778763735     2.26573369139522     5.12914900961283
H   28   1    -1.52662344944051     3.68001877445626     6.59540397144508
H   29   1    -4.32916174397830     3.13643051467482     8.35225460090378
H   30   1    -5.32329548508442    -2.36691813602939     6.11583672749896
H   31   1    -5.77989366602257    -1.33896741843465     9.25748940450990
H   32   1    -3.79310905208926    -3.96389819310853     8.61386170102686
C   33   6    -1.01100794811226    -1.06331657314144     3.11929490449947
C   34   6     0.37686231036534    -0.33275864505552     1.09165013605873
H   35   1    -3.01671213906703    -1.40297922279997     2.77827895090944
C   36   6    -0.64382707979370    -0.11591880174385    -1.42063131251064
H   37   1     2.35569259782137     0.17174499283897     1.33641070251401
H   38   1    -2.63317482980319    -0.60229203511219    -1.66119700387645
C   39   6     1.88057107480096     1.17167710004378   -12.63318625924474
C   40   6     1.43424299107759    -0.10242214041261   -15.03828188134704
H   41   1     3.25774949416826     2.69847908646217   -12.62832443574420
O   42   8     2.48751113017790     0.42264932688836   -17.02215443525925
H   43   1     0.01015752982003    -1.65333508727432   -14.95564685399208
[GTO]
1 0
 s    6 1.00
             3047.5249  0.0018347001629433
             457.36951    0.01403730124668
             103.94869   0.068842606114048
             29.210155    0.23218442062076
              9.286663    0.46794134155879
              3.163927    0.36231203217765
 s    3 1.00
             7.8682724   -0.11933240861517
             1.8812885   -0.16085421161283
             0.5442493     1.1434564825515
 s    1 1.00
             0.1687144                   1
 p    3 1.00
             7.8682724   0.068999095584993
             1.8812885    0.31642397975315
             0.5442493    0.74430825237435
 p    1 1.00
             0.1687144                   1
 d    1 1.00
                   0.8                   1

2 0
 s    3 1.00
             18.731137    0.03349459952309
             2.8253937    0.23472694665786
             0.6401217    0.81375731841339
 s    1 1.00
             0.1612778                   1

3 0
 s    6 1.00
             3047.5249  0.0018347001629433
             457.36951    0.01403730124668
             103.94869   0.068842606114048
             29.210155    0.23218442062076
              9.286663    0.46794134155879
              3.163927    0.36231203217765
 s    3 1.00
             7.8682724   -0.11933240861517
             1.8812885   -0.16085421161283
             0.5442493     1.1434564825515
 s    1 1.00
             0.1687144                   1
 p    3 1.00
             7.8682724   0.068999095584993
             1.8812885    0.31642397975315
             0.5442493    0.74430825237435
 p    1 1.00
             0.1687144                   1
 d    1 1.00
                   0.8                   1

4 0
 s    3 1.00
             18.731137    0.03349459952309
             2.8253937    0.23472694665786
             0.6401217    0.81375731841339
 s    1 1.00
             0.1612778                   1

5 0
 s    6 1.00
             3047.5249  0.0018347001629433
             457.36951    0.01403730124668
             103.94869   0.068842606114048
             29.210155    0.23218442062076
              9.286663    0.46794134155879
              3.163927    0.36231203217765
 s    3 1.00
             7.8682724   -0.11933240861517
             1.8812885   -0.16085421161283
             0.5442493     1.1434564825515
 s    1 1.00
             0.1687144                   1
 p    3 1.00
             7.8682724   0.068999095584993
             1.8812885    0.31642397975315
             0.5442493    0.74430825237435
 p    1 1.00
             0.1687144                   1
 d    1 1.00
                   0.8                   1

6 0
 s    3 1.00
             18.731137    0.03349459952309
             2.8253937    0.23472694665786
             0.6401217    0.81375731841339
 s    1 1.00
             0.1612778                   1

7 0
 s    6 1.00
             3047.5249  0.0018347001629433
             457.36951    0.01403730124668
             103.94869   0.068842606114048
             29.210155    0.23218442062076
              9.286663    0.46794134155879
              3.163927    0.36231203217765
 s    3 1.00
             7.8682724   -0.11933240861517
             1.8812885   -0.16085421161283
             0.5442493     1.1434564825515
 s    1 1.00
             0.1687144                   1
 p    3 1.00
             7.8682724   0.068999095584993
             1.8812885    0.31642397975315
             0.5442493    0.74430825237435
 p    1 1.00
             0.1687144                   1
 d    1 1.00
                   0.8                   1

8 0
 s    3 1.00
             18.731137    0.03349459952309
             2.8253937    0.23472694665786
             0.6401217    0.81375731841339
 s    1 1.00
             0.1612778                   1

9 0
 s    3 1.00
             18.731137    0.03349459952309
             2.8253937    0.23472694665786
             0.6401217    0.81375731841339
 s    1 1.00
             0.1612778                   1

10 0
 s    6 1.00
             3047.5249  0.0018347001629433
             457.36951    0.01403730124668
             103.94869   0.068842606114048
             29.210155    0.23218442062076
              9.286663    0.46794134155879
              3.163927    0.36231203217765
 s    3 1.00
             7.8682724   -0.11933240861517
             1.8812885   -0.16085421161283
             0.5442493     1.1434564825515
 s    1 1.00
             0.1687144                   1
 p    3 1.00
             7.8682724   0.068999095584993
             1.8812885    0.31642397975315
             0.5442493    0.74430825237435
 p    1 1.00
             0.1687144                   1
 d    1 1.00
                   0.8                   1

11 0
 s    3 1.00
             18.731137    0.03349459952309
             2.8253937    0.23472694665786
             0.6401217    0.81375731841339
 s    1 1.00
             0.1612778                   1

12 0
 s    6 1.00
             3047.5249  0.0018347001629433
             457.36951    0.01403730124668
             103.94869   0.068842606114048
             29.210155    0.23218442062076
              9.286663    0.46794134155879
              3.163927    0.36231203217765
 s    3 1.00
             7.8682724   -0.11933240861517
             1.8812885   -0.16085421161283
             0.5442493     1.1434564825515
 s    1 1.00
             0.1687144                   1
 p    3 1.00
             7.8682724   0.068999095584993
             1.8812885    0.31642397975315
             0.5442493    0.74430825237435
 p    1 1.00
             0.1687144                   1
 d    1 1.00
                   0.8                   1

13 0
 s    3 1.00
             18.731137    0.03349459952309
             2.8253937    0.23472694665786
             0.6401217    0.81375731841339
 s    1 1.00
             0.1612778                   1

14 0
 s    3 1.00
             18.731137    0.03349459952309
             2.8253937    0.23472694665786
             0.6401217    0.81375731841339
 s    1 1.00
             0.1612778                   1

15 0
 s    6 1.00
             3047.5249  0.0018347001629433
             457.36951    0.01403730124668
             103.94869   0.068842606114048
             29.210155    0.23218442062076
              9.286663    0.46794134155879
              3.163927    0.36231203217765
 s    3 1.00
             7.8682724   -0.11933240861517
             1.8812885   -0.16085421161283
             0.5442493     1.1434564825515
 s    1 1.00
             0.1687144                   1
 p    3 1.00
             7.8682724   0.068999095584993
             1.8812885    0.31642397975315
             0.5442493    0.74430825237435
 p    1 1.00
             0.1687144                   1
 d    1 1.00
                   0.8                   1

16 0
 s    6 1.00
             3047.5249  0.0018347001629433
             457.36951    0.01403730124668
             103.94869   0.068842606114048
             29.210155    0.23218442062076
              9.286663    0.46794134155879
              3.163927    0.36231203217765
 s    3 1.00
             7.8682724   -0.11933240861517
             1.8812885   -0.16085421161283
             0.5442493     1.1434564825515
 s    1 1.00
             0.1687144                   1
 p    3 1.00
             7.8682724   0.068999095584993
             1.8812885    0.31642397975315
             0.5442493    0.74430825237435
 p    1 1.00
             0.1687144                   1
 d    1 1.00
                   0.8                   1

17 0
 s    6 1.00
             3047.5249  0.0018347001629433
             457.36951    0.01403730124668
             103.94869   0.068842606114048
             29.210155    0.23218442062076
              9.286663    0.46794134155879
              3.163927    0.36231203217765
 s    3 1.00
             7.8682724   -0.11933240861517
             1.8812885   -0.16085421161283
             0.5442493     1.1434564825515
 s    1 1.00
             0.1687144                   1
 p    3 1.00
             7.8682724   0.068999095584993
             1.8812885    0.31642397975315
             0.5442493    0.74430825237435
 p    1 1.00
             0.1687144                   1
 d    1 1.00
                   0.8                   1

18 0
 s    6 1.00
             3047.5249  0.0018347001629433
             457.36951    0.01403730124668
             103.94869   0.068842606114048
             29.210155    0.23218442062076
              9.286663    0.46794134155879
              3.163927    0.36231203217765
 s    3 1.00
             7.8682724   -0.11933240861517
             1.8812885   -0.16085421161283
             0.5442493     1.1434564825515
 s    1 1.00
             0.1687144                   1
 p    3 1.00
             7.8682724   0.068999095584993
             1.8812885    0.31642397975315
             0.5442493    0.74430825237435
 p    1 1.00
             0.1687144                   1
 d    1 1.00
                   0.8                   1

19 0
 s    6 1.00
             3047.5249  0.0018347001629433
             457.36951    0.01403730124668
             103.94869   0.068842606114048
             29.210155    0.23218442062076
              9.286663    0.46794134155879
              3.163927    0.36231203217765
 s    3 1.00
             7.8682724   -0.11933240861517
             1.8812885   -0.16085421161283
             0.5442493     1.1434564825515
 s    1 1.00
             0.1687144                   1
 p    3 1.00
             7.8682724   0.068999095584993
             1.8812885    0.31642397975315
             0.5442493    0.74430825237435
 p    1 1.00
             0.1687144                   1
 d    1 1.00
                   0.8                   1

20 0
 s    6 1.00
             3047.5249  0.0018347001629433
             457.36951    0.01403730124668
             103.94869   0.068842606114048
             29.210155    0.23218442062076
              9.286663    0.46794134155879
              3.163927    0.36231203217765
 s    3 1.00
             7.8682724   -0.11933240861517
             1.8812885   -0.16085421161283
             0.5442493     1.1434564825515
 s    1 1.00
             0.1687144                   1
 p    3 1.00
             7.8682724   0.068999095584993
             1.8812885    0.31642397975315
             0.5442493    0.74430825237435
 p    1 1.00
             0.1687144                   1
 d    1 1.00
                   0.8                   1

21 0
 s    6 1.00
             3047.5249  0.0018347001629433
             457.36951    0.01403730124668
             103.94869   0.068842606114048
             29.210155    0.23218442062076
              9.286663    0.46794134155879
              3.163927    0.36231203217765
 s    3 1.00
             7.8682724   -0.11933240861517
             1.8812885   -0.16085421161283
             0.5442493     1.1434564825515
 s    1 1.00
             0.1687144                   1
 p    3 1.00
             7.8682724   0.068999095584993
             1.8812885    0.31642397975315
             0.5442493    0.74430825237435
 p    1 1.00
             0.1687144                   1
 d    1 1.00
                   0.8                   1

22 0
 s    3 1.00
             18.731137    0.03349459952309
             2.8253937    0.23472694665786
             0.6401217    0.81375731841339
 s    1 1.00
             0.1612778                   1

23 0
 s    3 1.00
             18.731137    0.03349459952309
             2.8253937    0.23472694665786
             0.6401217    0.81375731841339
 s    1 1.00
             0.1612778                   1

24 0
 s    3 1.00
             18.731137    0.03349459952309
             2.8253937    0.23472694665786
             0.6401217    0.81375731841339
 s    1 1.00
             0.1612778                   1

25 0
 s    3 1.00
             18.731137    0.03349459952309
             2.8253937    0.23472694665786
             0.6401217    0.81375731841339
 s    1 1.00
             0.1612778                   1

26 0
 s    3 1.00
             18.731137    0.03349459952309
             2.8253937    0.23472694665786
             0.6401217    0.81375731841339
 s    1 1.00
             0.1612778                   1

27 0
 s    3 1.00
             18.731137    0.03349459952309
             2.8253937    0.23472694665786
             0.6401217    0.81375731841339
 s    1 1.00
             0.1612778                   1

28 0
 s    3 1.00
             18.731137    0.03349459952309
             2.8253937    0.23472694665786
             0.6401217    0.81375731841339
 s    1 1.00
             0.1612778                   1

29 0
 s    3 1.00
             18.731137    0.03349459952309
             2.8253937    0.23472694665786
             0.6401217    0.81375731841339
 s    1 1.00
             0.1612778                   1

30 0
 s    3 1.00
             18.731137    0.03349459952309
             2.8253937    0.23472694665786
             0.6401217    0.81375731841339
 s    1 1.00
             0.1612778                   1

31 0
 s    3 1.00
             18.731137    0.03349459952309
             2.8253937    0.23472694665786
             0.6401217    0.81375731841339
 s    1 1.00
             0.1612778                   1

32 0
 s    3 1.00
             18.731137    0.03349459952309
             2.8253937    0.23472694665786
             0.6401217    0.81375731841339
 s    1 1.00
             0.1612778                   1

33 0
 s    6 1.00
             3047.5249  0.0018347001629433
             457.36951    0.01403730124668
             103.94869   0.068842606114048
             29.210155    0.23218442062076
              9.286663    0.46794134155879
              3.163927    0.36231203217765
 s    3 1.00
             7.8682724   -0.11933240861517
             1.8812885   -0.16085421161283
             0.5442493     1.1434564825515
 s    1 1.00
             0.1687144                   1
 p    3 1.00
             7.8682724   0.068999095584993
             1.8812885    0.31642397975315
             0.5442493    0.74430825237435
 p    1 1.00
             0.1687144                   1
 d    1 1.00
                   0.8                   1

34 0
 s    6 1.00
             3047.5249  0.0018347001629433
             457.36951    0.01403730124668
             103.94869   0.068842606114048
             29.210155    0.23218442062076
              9.286663    0.46794134155879
              3.163927    0.36231203217765
 s    3 1.00
             7.8682724   -0.11933240861517
             1.8812885   -0.16085421161283
             0.5442493     1.1434564825515
 s    1 1.00
             0.1687144                   1
 p    3 1.00
             7.8682724   0.068999095584993
             1.8812885    0.31642397975315
             0.5442493    0.74430825237435
 p    1 1.00
             0.1687144                   1
 d    1 1.00
                   0.8                   1

35 0
 s    3 1.00
             18.731137    0.03349459952309
             2.8253937    0.23472694665786
             0.6401217    0.81375731841339
 s    1 1.00
             0.1612778                   1

36 0
 s    6 1.00
             3047.5249  0.0018347001629433
             457.36951    0.01403730124668
             103.94869   0.068842606114048
             29.210155    0.23218442062076
              9.286663    0.46794134155879
              3.163927    0.36231203217765
 s    3 1.00
             7.8682724   -0.11933240861517
             1.8812885   -0.16085421161283
             0.5442493     1.1434564825515
 s    1 1.00
             0.1687144                   1
 p    3 1.00
             7.8682724   0.068999095584993
             1.8812885    0.31642397975315
             0.5442493    0.74430825237435
 p    1 1.00
             0.1687144                   1
 d    1 1.00
                   0.8                   1

37 0
 s    3 1.00
             18.731137    0.03349459952309
             2.8253937    0.23472694665786
             0.6401217    0.81375731841339
 s    1 1.00
             0.1612778                   1

38 0
 s    3 1.00
             18.731137    0.03349459952309
             2.8253937    0.23472694665786
             0.6401217    0.81375731841339
 s    1 1.00
             0.1612778                   1

39 0
 s    6 1.00
             3047.5249  0.0018347001629433
             457.36951    0.01403730124668
             103.94869   0.068842606114048
             29.210155    0.23218442062076
              9.286663    0.46794134155879
              3.163927    0.36231203217765
 s    3 1.00
             7.8682724   -0.11933240861517
             1.8812885   -0.16085421161283
             0.5442493     1.1434564825515
 s    1 1.00
             0.1687144                   1
 p    3 1.00
             7.8682724   0.068999095584993
             1.8812885    0.31642397975315
             0.5442493    0.74430825237435
 p    1 1.00
             0.1687144                   1
 d    1 1.00
                   0.8                   1

40 0
 s    6 1.00
             3047.5249  0.0018347001629433
             457.36951    0.01403730124668
             103.94869   0.068842606114048
             29.210155    0.23218442062076
              9.286663    0.46794134155879
              3.163927    0.36231203217765
 s    3 1.00
             7.8682724   -0.11933240861517
             1.8812885   -0.16085421161283
             0.5442493     1.1434564825515
 s    1 1.00
             0.1687144                   1
 p    3 1.00
             7.8682724   0.068999095584993
             1.8812885    0.31642397975315
             0.5442493    0.74430825237435
 p    1 1.00
             0.1687144                   1
 d    1 1.00
                   0.8                   1

41 0
 s    3 1.00
             18.731137    0.03349459952309
             2.8253937    0.23472694665786
             0.6401217    0.81375731841339
 s    1 1.00
             0.1612778                   1

42 0
 s    6 1.00
             5484.6717   0.001831099805527
             825.23495   0.013950098518422
             188.04696    0.06844509273075
               52.9645    0.23271427528445
              16.89757    0.47019295006289
             5.7996353    0.35852086192309
 s    3 1.00
             15.539616   -0.11077750382508
             3.5999336   -0.14802630511126
             1.0137618     1.1307670390447
 s    1 1.00
             0.2700058                   1
 p    3 1.00
             15.539616   0.070874299543311
             3.5999336    0.33975279781076
             1.0137618    0.72715859531445
 p    1 1.00
             0.2700058                   1
 d    1 1.00
                   0.8                   1

43 0
 s    3 1.00
             18.731137    0.03349459952309
             2.8253937    0.23472694665786
             0.6401217    0.81375731841339
 s    1 1.00
             0.1612778                   1

[5d]
[7f]
[9g]

[MO]
 Sym= A
 Ene=               0
 Spin= Alpha
 Occup=    1.00000
   1    -1.3146473710027e-06
   2    -6.2383706158574e-06
   3    -8.0142979206631e-05
   4    -2.3568601686921e-06
   5    -1.945024930363e-05
   6    5.4583075383631e-06
   7    9.6885201252073e-05
   8    0.00011483515599438
   9    -0.00021259890701483
  10    7.0224896445304e-06
  11    6.8351275928044e-06
  12    -7.2554549028279e-07
  13    -1.5044068972617e-06
  14    1.3335595378316e-06
  15    -1.3121207727467e-05
  16    -1.8787836902518e-05
  17    4.0881838191107e-06
  18    -1.1236416155166e-05
  19    -0.00076920316927598
  20    -1.4694014392069e-05
  21    7.2687671161524e-06
  22    3.7885130232183e-05
  23    -0.00017167965673218
  24    -4.83053855802e-05
  25    0.00040722654990244
  26    -2.3744852113511e-05
  27    1.0913973686234e-05
  28    9.7892015323727e-06
  29    -1.6458694110491e-05
  30    1.8056563091011e-05
  31    2.0971093819339e-06
  32    2.4404044101321e-05
  33    -3.0774573557322e-05
  34    -0.00019012759362306
  35    0.0027727897326155
  36    2.9623518454185e-05
  37    -3.7283696113697e-06
  38    -7.5924683713925e-05
  39    -0.00061796563153587
  40    -0.00086095503758053
  41    -0.00069155152649435
  42    7.3876219093332e-05
  43    -7.882269560559e-06
  44    4.7804841618753e-05
  45    -9.1090294423991e-06
  46    2.5375786507117e-05
  47    1.6886479130273e-05
  48    0.0001813714320012
  49    -2.4507107419051e-06
  50    -6.2119239278147e-05
  51    -0.0021072566817841
  52    1.9309338444825e-05
  53    8.740905112273e-05
  54    0.0001888158396971
  55    -0.00031760996656546
  56    -0.0010275958400479
  57    -0.0019969667007796
  58    -4.6776637680142e-05
  59    -7.1606761780908e-05
  60    -8.9527420491058e-05
  61    2.0229779339119e-05
  62    6.1564532564193e-05
  63    -0.00016700316839716
  64    -4.4242803064431e-05
  65    2.7123950815069e-08
  66    6.439910838892e-07
  67    -2.5937180871862e-08
  68    -2.8360061252367e-07
  69    -9.1228859147113e-07
  70    1.7649559870546e-07
  71    -2.0916152900146e-07
  72    1.2958664256523e-07
  73    6.6318614115493e-07
  74    -1.6319173430473e-07
  75    -8.8537319459683e-07
  76    8.1431215781186e-08
  77    5.0913568129136e-08
  78    2.9868861537947e-08
  79    9.9732430335074e-09
  80    4.2548967340984e-08
  81    4.0319856848647e-08
  82    1.9686302886592e-07
  83    7.0765059238826e-08
  84    5.140794234015e-07
  85    -1.269984257115e-06
  86    6.4522995244868e-08
  87    -4.1408924295218e-08
  88    7.8579550557669e-08
  89    8.2520095479344e-07
  90    -1.4718118903451e-06
  91    -1.1851079691715e-07
  92    -5.9598909973087e-08
  93    -9.4216764067999e-08
  94    2.1669384276982e-07
  95    -8.7498654938845e-08
  96    1.9632103130439e-08
  97    2.8871912061143e-07
  98    -3.4891396662511e-08
  99    -4.2553920878167e-08
 100    -2.015897554566e-07
 101    -1.3390022611641e-07
 102    -2.9282899099148e-07
 103    1.8414399577731e-05
 104    -2.182372133682e-07
 105    2.1489912336435e-07
 106    -6.4688432787654e-07
 107    -6.3172968791874e-06
 108    7.275114579647e-06
 109    -4.1931414654282e-06
 110    2.9088282732954e-07
 111    4.1243212570526e-07
 112    -1.8647481259656e-07
 113    -3.5217064609731e-07
 114    -3.9721182799431e-07
 115    2.0128672295988e-07
 116    2.1712605870245e-06
 117    -8.6266040833201e-06
 118    -1.1460605791765e-08
 119    1.7619527523535e-07
 120    -5.3193591049824e-07
 121    1.8035667476677e-06
 122    -2.1567812790007e-06
 123    5.5005401166793e-06
 124    1.4694383715488e-07
 125    -2.1257400018063e-07
 126    -1.1150250533405e-07
 127    2.4760365775379e-08
 128    -3.2669944273096e-08
 129    2.5547320329717e-07
 130    2.6008826877822e-06
 131    8.885812413469e-06
 132    1.5728202316084e-06
 133    8.3336212877676e-07
 134    -1.8572796914439e-06
 135    -2.6838365155097e-05
 136    -1.0361524142588e-07
 137    -6.4815114127301e-08
 138    -6.5623882105698e-08
 139    1.3912419747324e-07
 140    6.891128511879e-07
 141    -1.594758407137e-07
 142    4.5591026854995e-07
 143    -2.0007986632929e-08
 144    -6.8618372260355e-07
 145    -9.2466445303806e-06
 146    -2.0781746142374e-07
 147    -6.4276260615936e-07
 148    1.4643782503529e-06
 149    -3.5633179356341e-06
 150    1.2878576553311e-05
 151    -6.3328051464766e-06
 152    -6.1680576053013e-08
 153    5.9659565575728e-08
 154    -5.9659578414392e-07
 155    -1.5519176747429e-07
 156    -2.6196923403584e-07
 157    1.8479039887491e-07
 158    1.4431589776439e-06
 159    -1.0591281189379e-05
 160    -6.7602941513333e-08
 161    3.4972868779782e-07
 162    -3.751571085202e-07
 163    -2.4608743388445e-06
 164    4.0551663832149e-06
 165    5.2566693476524e-07
 166    3.0878049178859e-07
 167    -1.4733646200474e-07
 168    7.099237932395e-08
 169    1.6611164015047e-07
 170    2.3333548166548e-07
 171    7.0360651129816e-09
 172    1.1804453394107e-07
 173    1.8896889223948e-06
 174    9.3477738943497e-08
 175     -6.4280935693e-08
 176    2.8607755084125e-07
 177    3.6998303029358e-06
 178    1.1972381393383e-06
 179    2.2449472006662e-06
 180    -1.4464360017194e-07
 181    3.8291012960265e-07
 182    5.2151492390288e-08
 183    2.8462473736363e-07
 184    2.8280869273793e-07
 185    -1.4940343532985e-07
 186    -1.2097203348252e-06
 187    7.4707335364597e-06
 188    -2.6357644673422e-07
 189    -4.1993997100168e-08
 190    -1.8093005928348e-07
 191    -7.8455579248568e-07
 192    -3.3717701132539e-06
 193    -2.5585699853958e-06
 194    5.5542703039535e-08
 195    2.425724359913e-07
 196    4.6968887863967e-07
 197    -1.231421481832e-07
 198    1.1230635545827e-07
 199    -3.3866349318237e-07
 200    8.6195833246177e-07
 201    -1.5886945930549e-07
 202    -1.4085210010153e-07
 203    1.3659282458628e-07
 204    -1.0965975134894e-06
 205    8.938780123526e-07
 206    5.4991007039582e-07
 207    -7.9676733719774e-07
 208    9.4184293967977e-06
 209    5.655749539163e-07
 210    7.3952751174102e-07
 211    5.827672647511e-07
 212    5.1977478041307e-07
 213    1.727038991101e-07
 214    -6.3116734072438e-07
 215    -6.9569935810286e-07
 216    5.124223325889e-06
 217    1.2706513191397e-07
 218    -1.9804318412772e-07
 219    2.1212880721945e-07
 220    -8.9117577380809e-07
 221    -8.8331300281806e-07
 222    -4.6779839687712e-06
 223    6.8338305271281e-05
 224    2.1603465857151e-06
 225    -4.3180076575076e-07
 226    -2.8578308408175e-07
 227    5.4772035292894e-06
 228     1.13733058603e-05
 229    -6.7261882802514e-05
 230    1.9103015724856e-06
 231    -2.149845891172e-06
 232    -1.3355924630918e-06
 233    7.1012736408828e-07
 234    5.9932704694195e-08
 235    2.580036992992e-06
 236    1.6008019638004e-05
 237    -0.00022957868542286
 238    -8.7038710854444e-07
 239    -2.6658897014992e-06
 240    4.6819348341312e-06
 241    7.0587728722191e-05
 242    2.1645266716151e-05
 243    5.7283116832811e-05
 244    -6.9402947214117e-06
 245    -4.0608603655288e-07
 246    6.4845003762245e-07
 247    -7.9782102899683e-07
 248    -2.0911315786716e-06
 249    -3.0057907262449e-06
 250    -8.843746130364e-06
 251    -2.0230915638963e-06
 252    -1.1196974918505e-05
 253    0.0003082198663815
 254    -5.3424274161256e-06
 255    8.4777827160997e-06
 256    -1.1505756907144e-05
 257    0.00013542278553541
 258    -1.4007304528988e-05
 259    6.2925076295211e-05
 260    6.4443844793425e-06
 261    4.2630471556591e-08
 262    2.3924314035574e-07
 263    1.632113918832e-06
 264    -2.3810284013608e-06
 265    -1.0154387990658e-06
 266    -7.5812527428408e-06
 267    9.5838692919624e-06
 268    1.2185673067234e-05
 269    3.0828799114316e-05
 270    5.9263289868616e-05
 271    -0.0018079821345415
 272    5.6211953257646e-05
 273    8.0321574717175e-05
 274    5.5365532740648e-05
 275    -0.00096452110918561
 276    -0.00040296174865605
 277     0.002029553334354
 278    -0.00020681307689637
 279    6.6259276960973e-05
 280    -1.0148537698653e-05