[Molden Format]
made by pyscf v[2.0.1]
[Atoms] (AU)
C   1   6     0.69100024066471     0.64692934207205    -3.48223131169301
H   2   1     2.68052439830868     1.13355088658700    -3.25784032593313
C   3   6    -0.36286361513219     0.85440132524594    -5.97030179418974
H   4   1    -2.35448549047279     0.36322488579172    -6.17995817793143
C   5   6     0.93697958957450     1.61209284601821    -8.05828437677121
H   6   1     0.91018176739439     3.60165715372829    -8.58918788754706
C   7   6     2.36275315943078    -0.07897264779665    -9.62791837868890
H   8   1     2.37293254336653    -2.06644965927173    -9.07154285055885
H   9   1     1.55630230933075    -1.92953025305990    12.99630010416247
C   10   6     0.75233899775814    -2.21270439606481    11.10705728102219
H   11   1    -0.43433408177274    -3.90944857546550    11.22216085340412
C   12   6     2.86362581178706    -2.63237380607947     9.17926416456045
H   13   1     4.39038949912609    -1.24955421540245     9.49899813497433
H   14   1     3.74629220191363    -4.48798724300892     9.47414880959024
C   15   6     2.02478325613682    -2.42177285709634     6.44560829588644
C   16   6     3.88048732735477    -3.58795445234514     4.61402886975252
C   17   6    -0.18412382258602    -1.30464291234259     5.76021113872346
C   18   6    -2.10044360464350    -0.26837831858460     7.71610340967100
C   19   6    -3.08956938670431     2.35282328359417     6.88693925039594
C   20   6    -4.37372924086464    -2.09766595989678     7.93610724222001
C   21   6    -0.83850430601230     0.06372213486173    10.33002307638377
H   22   1     0.38411922151109     1.74281358582432    10.27380136542181
H   23   1    -2.30980003007874     0.45460143924521    11.73986301809809
H   24   1     4.58527064644668    -5.38706904487420     5.36778158031719
H   25   1     5.54944938085014    -2.37631462192748     4.35398898413318
H   26   1     3.06633019150423    -3.94118377050688     2.75255466040884
H   27   1    -4.17727778763735     2.26573369139522     5.12914900961283
H   28   1    -1.52662344944051     3.68001877445626     6.59540397144508
H   29   1    -4.32916174397830     3.13643051467482     8.35225460090378
H   30   1    -5.32329548508442    -2.36691813602939     6.11583672749896
H   31   1    -5.77989366602257    -1.33896741843465     9.25748940450990
H   32   1    -3.79310905208926    -3.96389819310853     8.61386170102686
C   33   6    -1.01100794811226    -1.06331657314144     3.11929490449947
C   34   6     0.37686231036534    -0.33275864505552     1.09165013605873
H   35   1    -3.01671213906703    -1.40297922279997     2.77827895090944
C   36   6    -0.64382707979370    -0.11591880174385    -1.42063131251064
H   37   1     2.35569259782137     0.17174499283897     1.33641070251401
H   38   1    -2.63317482980319    -0.60229203511219    -1.66119700387645
C   39   6     3.68212070775393     0.58885978377309   -11.72315169981470
C   40   6     5.07620914500435    -1.27889558400184   -13.19794995736473
H   41   1     3.74999971153331     2.53578027550937   -12.38092170581109
O   42   8     6.29809885748056    -0.81150016580158   -15.09777920785750
H   43   1     4.95468191731404    -3.24735743289555   -12.45594726186437
[GTO]
1 0
 s    6 1.00
             3047.5249  0.0018347001629433
             457.36951    0.01403730124668
             103.94869   0.068842606114048
             29.210155    0.23218442062076
              9.286663    0.46794134155879
              3.163927    0.36231203217765
 s    3 1.00
             7.8682724   -0.11933240861517
             1.8812885   -0.16085421161283
             0.5442493     1.1434564825515
 s    1 1.00
             0.1687144                   1
 p    3 1.00
             7.8682724   0.068999095584993
             1.8812885    0.31642397975315
             0.5442493    0.74430825237435
 p    1 1.00
             0.1687144                   1
 d    1 1.00
                   0.8                   1

2 0
 s    3 1.00
             18.731137    0.03349459952309
             2.8253937    0.23472694665786
             0.6401217    0.81375731841339
 s    1 1.00
             0.1612778                   1

3 0
 s    6 1.00
             3047.5249  0.0018347001629433
             457.36951    0.01403730124668
             103.94869   0.068842606114048
             29.210155    0.23218442062076
              9.286663    0.46794134155879
              3.163927    0.36231203217765
 s    3 1.00
             7.8682724   -0.11933240861517
             1.8812885   -0.16085421161283
             0.5442493     1.1434564825515
 s    1 1.00
             0.1687144                   1
 p    3 1.00
             7.8682724   0.068999095584993
             1.8812885    0.31642397975315
             0.5442493    0.74430825237435
 p    1 1.00
             0.1687144                   1
 d    1 1.00
                   0.8                   1

4 0
 s    3 1.00
             18.731137    0.03349459952309
             2.8253937    0.23472694665786
             0.6401217    0.81375731841339
 s    1 1.00
             0.1612778                   1

5 0
 s    6 1.00
             3047.5249  0.0018347001629433
             457.36951    0.01403730124668
             103.94869   0.068842606114048
             29.210155    0.23218442062076
              9.286663    0.46794134155879
              3.163927    0.36231203217765
 s    3 1.00
             7.8682724   -0.11933240861517
             1.8812885   -0.16085421161283
             0.5442493     1.1434564825515
 s    1 1.00
             0.1687144                   1
 p    3 1.00
             7.8682724   0.068999095584993
             1.8812885    0.31642397975315
             0.5442493    0.74430825237435
 p    1 1.00
             0.1687144                   1
 d    1 1.00
                   0.8                   1

6 0
 s    3 1.00
             18.731137    0.03349459952309
             2.8253937    0.23472694665786
             0.6401217    0.81375731841339
 s    1 1.00
             0.1612778                   1

7 0
 s    6 1.00
             3047.5249  0.0018347001629433
             457.36951    0.01403730124668
             103.94869   0.068842606114048
             29.210155    0.23218442062076
              9.286663    0.46794134155879
              3.163927    0.36231203217765
 s    3 1.00
             7.8682724   -0.11933240861517
             1.8812885   -0.16085421161283
             0.5442493     1.1434564825515
 s    1 1.00
             0.1687144                   1
 p    3 1.00
             7.8682724   0.068999095584993
             1.8812885    0.31642397975315
             0.5442493    0.74430825237435
 p    1 1.00
             0.1687144                   1
 d    1 1.00
                   0.8                   1

8 0
 s    3 1.00
             18.731137    0.03349459952309
             2.8253937    0.23472694665786
             0.6401217    0.81375731841339
 s    1 1.00
             0.1612778                   1

9 0
 s    3 1.00
             18.731137    0.03349459952309
             2.8253937    0.23472694665786
             0.6401217    0.81375731841339
 s    1 1.00
             0.1612778                   1

10 0
 s    6 1.00
             3047.5249  0.0018347001629433
             457.36951    0.01403730124668
             103.94869   0.068842606114048
             29.210155    0.23218442062076
              9.286663    0.46794134155879
              3.163927    0.36231203217765
 s    3 1.00
             7.8682724   -0.11933240861517
             1.8812885   -0.16085421161283
             0.5442493     1.1434564825515
 s    1 1.00
             0.1687144                   1
 p    3 1.00
             7.8682724   0.068999095584993
             1.8812885    0.31642397975315
             0.5442493    0.74430825237435
 p    1 1.00
             0.1687144                   1
 d    1 1.00
                   0.8                   1

11 0
 s    3 1.00
             18.731137    0.03349459952309
             2.8253937    0.23472694665786
             0.6401217    0.81375731841339
 s    1 1.00
             0.1612778                   1

12 0
 s    6 1.00
             3047.5249  0.0018347001629433
             457.36951    0.01403730124668
             103.94869   0.068842606114048
             29.210155    0.23218442062076
              9.286663    0.46794134155879
              3.163927    0.36231203217765
 s    3 1.00
             7.8682724   -0.11933240861517
             1.8812885   -0.16085421161283
             0.5442493     1.1434564825515
 s    1 1.00
             0.1687144                   1
 p    3 1.00
             7.8682724   0.068999095584993
             1.8812885    0.31642397975315
             0.5442493    0.74430825237435
 p    1 1.00
             0.1687144                   1
 d    1 1.00
                   0.8                   1

13 0
 s    3 1.00
             18.731137    0.03349459952309
             2.8253937    0.23472694665786
             0.6401217    0.81375731841339
 s    1 1.00
             0.1612778                   1

14 0
 s    3 1.00
             18.731137    0.03349459952309
             2.8253937    0.23472694665786
             0.6401217    0.81375731841339
 s    1 1.00
             0.1612778                   1

15 0
 s    6 1.00
             3047.5249  0.0018347001629433
             457.36951    0.01403730124668
             103.94869   0.068842606114048
             29.210155    0.23218442062076
              9.286663    0.46794134155879
              3.163927    0.36231203217765
 s    3 1.00
             7.8682724   -0.11933240861517
             1.8812885   -0.16085421161283
             0.5442493     1.1434564825515
 s    1 1.00
             0.1687144                   1
 p    3 1.00
             7.8682724   0.068999095584993
             1.8812885    0.31642397975315
             0.5442493    0.74430825237435
 p    1 1.00
             0.1687144                   1
 d    1 1.00
                   0.8                   1

16 0
 s    6 1.00
             3047.5249  0.0018347001629433
             457.36951    0.01403730124668
             103.94869   0.068842606114048
             29.210155    0.23218442062076
              9.286663    0.46794134155879
              3.163927    0.36231203217765
 s    3 1.00
             7.8682724   -0.11933240861517
             1.8812885   -0.16085421161283
             0.5442493     1.1434564825515
 s    1 1.00
             0.1687144                   1
 p    3 1.00
             7.8682724   0.068999095584993
             1.8812885    0.31642397975315
             0.5442493    0.74430825237435
 p    1 1.00
             0.1687144                   1
 d    1 1.00
                   0.8                   1

17 0
 s    6 1.00
             3047.5249  0.0018347001629433
             457.36951    0.01403730124668
             103.94869   0.068842606114048
             29.210155    0.23218442062076
              9.286663    0.46794134155879
              3.163927    0.36231203217765
 s    3 1.00
             7.8682724   -0.11933240861517
             1.8812885   -0.16085421161283
             0.5442493     1.1434564825515
 s    1 1.00
             0.1687144                   1
 p    3 1.00
             7.8682724   0.068999095584993
             1.8812885    0.31642397975315
             0.5442493    0.74430825237435
 p    1 1.00
             0.1687144                   1
 d    1 1.00
                   0.8                   1

18 0
 s    6 1.00
             3047.5249  0.0018347001629433
             457.36951    0.01403730124668
             103.94869   0.068842606114048
             29.210155    0.23218442062076
              9.286663    0.46794134155879
              3.163927    0.36231203217765
 s    3 1.00
             7.8682724   -0.11933240861517
             1.8812885   -0.16085421161283
             0.5442493     1.1434564825515
 s    1 1.00
             0.1687144                   1
 p    3 1.00
             7.8682724   0.068999095584993
             1.8812885    0.31642397975315
             0.5442493    0.74430825237435
 p    1 1.00
             0.1687144                   1
 d    1 1.00
                   0.8                   1

19 0
 s    6 1.00
             3047.5249  0.0018347001629433
             457.36951    0.01403730124668
             103.94869   0.068842606114048
             29.210155    0.23218442062076
              9.286663    0.46794134155879
              3.163927    0.36231203217765
 s    3 1.00
             7.8682724   -0.11933240861517
             1.8812885   -0.16085421161283
             0.5442493     1.1434564825515
 s    1 1.00
             0.1687144                   1
 p    3 1.00
             7.8682724   0.068999095584993
             1.8812885    0.31642397975315
             0.5442493    0.74430825237435
 p    1 1.00
             0.1687144                   1
 d    1 1.00
                   0.8                   1

20 0
 s    6 1.00
             3047.5249  0.0018347001629433
             457.36951    0.01403730124668
             103.94869   0.068842606114048
             29.210155    0.23218442062076
              9.286663    0.46794134155879
              3.163927    0.36231203217765
 s    3 1.00
             7.8682724   -0.11933240861517
             1.8812885   -0.16085421161283
             0.5442493     1.1434564825515
 s    1 1.00
             0.1687144                   1
 p    3 1.00
             7.8682724   0.068999095584993
             1.8812885    0.31642397975315
             0.5442493    0.74430825237435
 p    1 1.00
             0.1687144                   1
 d    1 1.00
                   0.8                   1

21 0
 s    6 1.00
             3047.5249  0.0018347001629433
             457.36951    0.01403730124668
             103.94869   0.068842606114048
             29.210155    0.23218442062076
              9.286663    0.46794134155879
              3.163927    0.36231203217765
 s    3 1.00
             7.8682724   -0.11933240861517
             1.8812885   -0.16085421161283
             0.5442493     1.1434564825515
 s    1 1.00
             0.1687144                   1
 p    3 1.00
             7.8682724   0.068999095584993
             1.8812885    0.31642397975315
             0.5442493    0.74430825237435
 p    1 1.00
             0.1687144                   1
 d    1 1.00
                   0.8                   1

22 0
 s    3 1.00
             18.731137    0.03349459952309
             2.8253937    0.23472694665786
             0.6401217    0.81375731841339
 s    1 1.00
             0.1612778                   1

23 0
 s    3 1.00
             18.731137    0.03349459952309
             2.8253937    0.23472694665786
             0.6401217    0.81375731841339
 s    1 1.00
             0.1612778                   1

24 0
 s    3 1.00
             18.731137    0.03349459952309
             2.8253937    0.23472694665786
             0.6401217    0.81375731841339
 s    1 1.00
             0.1612778                   1

25 0
 s    3 1.00
             18.731137    0.03349459952309
             2.8253937    0.23472694665786
             0.6401217    0.81375731841339
 s    1 1.00
             0.1612778                   1

26 0
 s    3 1.00
             18.731137    0.03349459952309
             2.8253937    0.23472694665786
             0.6401217    0.81375731841339
 s    1 1.00
             0.1612778                   1

27 0
 s    3 1.00
             18.731137    0.03349459952309
             2.8253937    0.23472694665786
             0.6401217    0.81375731841339
 s    1 1.00
             0.1612778                   1

28 0
 s    3 1.00
             18.731137    0.03349459952309
             2.8253937    0.23472694665786
             0.6401217    0.81375731841339
 s    1 1.00
             0.1612778                   1

29 0
 s    3 1.00
             18.731137    0.03349459952309
             2.8253937    0.23472694665786
             0.6401217    0.81375731841339
 s    1 1.00
             0.1612778                   1

30 0
 s    3 1.00
             18.731137    0.03349459952309
             2.8253937    0.23472694665786
             0.6401217    0.81375731841339
 s    1 1.00
             0.1612778                   1

31 0
 s    3 1.00
             18.731137    0.03349459952309
             2.8253937    0.23472694665786
             0.6401217    0.81375731841339
 s    1 1.00
             0.1612778                   1

32 0
 s    3 1.00
             18.731137    0.03349459952309
             2.8253937    0.23472694665786
             0.6401217    0.81375731841339
 s    1 1.00
             0.1612778                   1

33 0
 s    6 1.00
             3047.5249  0.0018347001629433
             457.36951    0.01403730124668
             103.94869   0.068842606114048
             29.210155    0.23218442062076
              9.286663    0.46794134155879
              3.163927    0.36231203217765
 s    3 1.00
             7.8682724   -0.11933240861517
             1.8812885   -0.16085421161283
             0.5442493     1.1434564825515
 s    1 1.00
             0.1687144                   1
 p    3 1.00
             7.8682724   0.068999095584993
             1.8812885    0.31642397975315
             0.5442493    0.74430825237435
 p    1 1.00
             0.1687144                   1
 d    1 1.00
                   0.8                   1

34 0
 s    6 1.00
             3047.5249  0.0018347001629433
             457.36951    0.01403730124668
             103.94869   0.068842606114048
             29.210155    0.23218442062076
              9.286663    0.46794134155879
              3.163927    0.36231203217765
 s    3 1.00
             7.8682724   -0.11933240861517
             1.8812885   -0.16085421161283
             0.5442493     1.1434564825515
 s    1 1.00
             0.1687144                   1
 p    3 1.00
             7.8682724   0.068999095584993
             1.8812885    0.31642397975315
             0.5442493    0.74430825237435
 p    1 1.00
             0.1687144                   1
 d    1 1.00
                   0.8                   1

35 0
 s    3 1.00
             18.731137    0.03349459952309
             2.8253937    0.23472694665786
             0.6401217    0.81375731841339
 s    1 1.00
             0.1612778                   1

36 0
 s    6 1.00
             3047.5249  0.0018347001629433
             457.36951    0.01403730124668
             103.94869   0.068842606114048
             29.210155    0.23218442062076
              9.286663    0.46794134155879
              3.163927    0.36231203217765
 s    3 1.00
             7.8682724   -0.11933240861517
             1.8812885   -0.16085421161283
             0.5442493     1.1434564825515
 s    1 1.00
             0.1687144                   1
 p    3 1.00
             7.8682724   0.068999095584993
             1.8812885    0.31642397975315
             0.5442493    0.74430825237435
 p    1 1.00
             0.1687144                   1
 d    1 1.00
                   0.8                   1

37 0
 s    3 1.00
             18.731137    0.03349459952309
             2.8253937    0.23472694665786
             0.6401217    0.81375731841339
 s    1 1.00
             0.1612778                   1

38 0
 s    3 1.00
             18.731137    0.03349459952309
             2.8253937    0.23472694665786
             0.6401217    0.81375731841339
 s    1 1.00
             0.1612778                   1

39 0
 s    6 1.00
             3047.5249  0.0018347001629433
             457.36951    0.01403730124668
             103.94869   0.068842606114048
             29.210155    0.23218442062076
              9.286663    0.46794134155879
              3.163927    0.36231203217765
 s    3 1.00
             7.8682724   -0.11933240861517
             1.8812885   -0.16085421161283
             0.5442493     1.1434564825515
 s    1 1.00
             0.1687144                   1
 p    3 1.00
             7.8682724   0.068999095584993
             1.8812885    0.31642397975315
             0.5442493    0.74430825237435
 p    1 1.00
             0.1687144                   1
 d    1 1.00
                   0.8                   1

40 0
 s    6 1.00
             3047.5249  0.0018347001629433
             457.36951    0.01403730124668
             103.94869   0.068842606114048
             29.210155    0.23218442062076
              9.286663    0.46794134155879
              3.163927    0.36231203217765
 s    3 1.00
             7.8682724   -0.11933240861517
             1.8812885   -0.16085421161283
             0.5442493     1.1434564825515
 s    1 1.00
             0.1687144                   1
 p    3 1.00
             7.8682724   0.068999095584993
             1.8812885    0.31642397975315
             0.5442493    0.74430825237435
 p    1 1.00
             0.1687144                   1
 d    1 1.00
                   0.8                   1

41 0
 s    3 1.00
             18.731137    0.03349459952309
             2.8253937    0.23472694665786
             0.6401217    0.81375731841339
 s    1 1.00
             0.1612778                   1

42 0
 s    6 1.00
             5484.6717   0.001831099805527
             825.23495   0.013950098518422
             188.04696    0.06844509273075
               52.9645    0.23271427528445
              16.89757    0.47019295006289
             5.7996353    0.35852086192309
 s    3 1.00
             15.539616   -0.11077750382508
             3.5999336   -0.14802630511126
             1.0137618     1.1307670390447
 s    1 1.00
             0.2700058                   1
 p    3 1.00
             15.539616   0.070874299543311
             3.5999336    0.33975279781076
             1.0137618    0.72715859531445
 p    1 1.00
             0.2700058                   1
 d    1 1.00
                   0.8                   1

43 0
 s    3 1.00
             18.731137    0.03349459952309
             2.8253937    0.23472694665786
             0.6401217    0.81375731841339
 s    1 1.00
             0.1612778                   1

[5d]
[7f]
[9g]

[MO]
 Sym= A
 Ene=               0
 Spin= Alpha
 Occup=    1.00000
   1    9.0877537814102e-07
   2    9.2975356507985e-06
   3    1.8302025132825e-05
   4    2.5127996472829e-06
   5    3.6258056772283e-06
   6    -7.2822842852889e-06
   7    -2.5301327719584e-05
   8    -7.179591965446e-05
   9    0.00021697933139391
  10    -1.1354147142997e-07
  11    -6.0704542419045e-06
  12    -7.3012602379495e-07
  13    -8.0527394195522e-06
  14    4.4906347524193e-06
  15    8.282427015775e-06
  16    -6.4447876684867e-06
  17    -4.6817513100248e-06
  18    -9.5722996447123e-05
  19    -0.00023834976542752
  20    -3.2890686114438e-05
  21    3.9483271715498e-06
  22    4.0624512753326e-05
  23    -0.000105909843307
  24    6.5364296204831e-05
  25    0.00032861369472047
  26    -1.2063239420721e-05
  27    1.3450159191041e-05
  28    -7.9944730852084e-06
  29    -2.3921896496586e-05
  30    -1.0827641301933e-06
  31    6.3135359813833e-06
  32    -2.0094751130548e-05
  33    -3.0015123436611e-05
  34    -0.00020217141466308
  35    0.0025149996380513
  36    5.4407015167123e-05
  37    -9.9340074311647e-06
  38    -8.2660838519933e-05
  39    0.00037592642210034
  40    -0.0011012620207928
  41    -0.00024127277079785
  42    8.118491926982e-06
  43    -6.4185234562949e-05
  44    3.4055628883459e-05
  45    -1.1906394824496e-05
  46    -3.8600225124354e-05
  47    1.0825237340657e-05
  48    0.00016578512633132
  49    -3.9956540370453e-06
  50    -7.037666267709e-05
  51    -0.0019747118769856
  52    -0.00011279795541948
  53    0.00012776163384452
  54    0.00012570353797537
  55    0.0011458292445339
  56    -0.0014449808786883
  57    -0.0012372594562094
  58    2.2382785829555e-05
  59    -1.9284112111372e-05
  60    -0.00011228692226577
  61    -2.0905872826188e-05
  62    6.9964255366754e-05
  63    -0.00016667108720665
  64    -3.5830597635005e-05
  65     1.21173720927e-07
  66    1.6332658739006e-07
  67    2.3978005036669e-08
  68    3.3389133131415e-07
  69    -1.5847795612183e-06
  70    -1.347058304558e-07
  71    1.9715065798364e-07
  72    -8.2117924552474e-08
  73    -1.6907558088976e-07
  74    -9.6600560260459e-07
  75    2.6729641224201e-11
  76    3.2270371804473e-08
  77    6.9910002544477e-08
  78    -2.7034607773597e-08
  79    -3.9508314889306e-08
  80    6.1670028832955e-08
  81    -5.6777595422969e-08
  82    -1.2494961333706e-07
  83    -1.1556354885819e-08
  84    1.2979677019916e-07
  85    8.0927224001091e-06
  86    -3.8424426597563e-07
  87    -1.7111758075375e-08
  88    -5.2776539923236e-07
  89    -1.9372564425858e-06
  90    2.7603142439858e-06
  91    -2.0235887933043e-06
  92    -1.0222774225643e-07
  93    1.6358603059501e-07
  94    -2.1102593735654e-07
  95    -2.8670481533996e-08
  96    9.6219859012903e-08
  97    -3.8716269673351e-07
  98    -4.7283996335465e-07
  99    -3.1960111330759e-10
 100    6.1462036055789e-07
 101    2.8596302379612e-08
 102    4.6366659832676e-07
 103    -7.524303966341e-06
 104    -1.6574972335078e-07
 105    5.3579908042766e-07
 106    3.8560841231871e-07
 107    1.1308706850355e-05
 108    -1.060119150038e-05
 109    -1.8569072985466e-05
 110    3.468158608577e-07
 111    3.2291761369061e-07
 112    -1.3494405090892e-07
 113    -1.6875763177929e-07
 114    3.0495050743504e-07
 115    2.7631904497339e-07
 116    2.5558883345266e-06
 117    -2.121764191457e-05
 118    3.9241455031723e-07
 119    -5.7377611944853e-07
 120    -5.0321109992984e-07
 121    5.0361878470326e-06
 122    -8.1117183660786e-07
 123    -1.9138304689108e-06
 124    5.1725660287722e-08
 125    1.5290829837816e-07
 126    6.6189766469243e-08
 127    -7.6197707667754e-08
 128    2.2505129437753e-07
 129    5.5765468311237e-07
 130    5.0520411932952e-06
 131    -3.1180881692325e-05
 132    -1.2031154620901e-07
 133    4.4398156142656e-08
 134    -1.9689122214776e-06
 135    1.4168900036625e-05
 136    2.4601365910016e-07
 137    4.8789638060125e-05
 138    -1.4705536261209e-06
 139    -9.5102589742176e-07
 140    -1.4545491969176e-07
 141    -2.4869216166092e-07
 142    -3.4913582752372e-08
 143    2.638231351852e-07
 144    2.456807424391e-06
 145    -1.2528725776108e-05
 146    -1.2043634749125e-07
 147    -2.4154102648774e-07
 148    -2.4703091297345e-07
 149    -7.4214380344666e-06
 150    3.400610250648e-06
 151    2.1921874640445e-06
 152    5.7726562273759e-07
 153    2.344992030051e-07
 154    7.9846561326607e-08
 155    -4.2218820648833e-07
 156    4.6094829750715e-07
 157    -6.5453169996907e-08
 158    -5.3279842109006e-07
 159    7.7703631739121e-08
 160    -3.9940223463452e-07
 161    3.3156126878813e-08
 162    8.046057954252e-08
 163    3.8364241933545e-06
 164    -2.9159225256937e-07
 165    -5.0041725311693e-07
 166    -2.8414734681922e-07
 167    1.2076429504848e-07
 168    -1.4190840128811e-08
 169    6.1503455547738e-08
 170    -1.8584708604447e-07
 171    -1.3789329320052e-08
 172    2.4589800675643e-07
 173    7.281632107329e-07
 174    3.579573906602e-07
 175    9.7525666926814e-08
 176    -4.4082179431697e-07
 177    1.5393731286888e-07
 178    -1.0589971260244e-06
 179    9.2486200510551e-07
 180    -7.7012888996306e-08
 181    -1.3086956240346e-07
 182    -2.820455156188e-08
 183    2.1933248917262e-07
 184    -1.099441281942e-07
 185    1.7097545721278e-07
 186    1.7735095125898e-06
 187    -1.1645805048033e-06
 188    1.2671440435278e-07
 189    -7.8274483313599e-08
 190    -6.8954309237598e-07
 191    -1.2538779204654e-06
 192    -3.6818593489788e-07
 193    3.1619642281599e-06
 194    -1.7070897475042e-07
 195    2.015441153603e-08
 196    -1.2532688412215e-07
 197    -5.5388507239633e-08
 198    5.307092647948e-08
 199    4.2183380159209e-07
 200    6.5514822416196e-07
 201    -2.8810841672465e-08
 202    -1.927590930057e-06
 203    9.4942366445651e-07
 204    1.0033752480134e-06
 205    1.730252713203e-07
 206    1.4070368724186e-06
 207    -5.9256856410793e-07
 208    6.1961195166042e-06
 209    -6.7000076673476e-07
 210    2.5311324067517e-06
 211    -3.1408009341335e-07
 212    -1.6783323856905e-06
 213    1.3319699017784e-07
 214    1.2639787764921e-06
 215    2.8645688715952e-07
 216    -4.5878292442606e-07
 217    -1.5307729397567e-07
 218    -4.3202459635422e-07
 219    -1.701063097114e-07
 220    -6.4102011369052e-07
 221    4.344722024465e-07
 222    4.7276260950901e-06
 223    4.8298765002025e-06
 224    -3.4169017230493e-07
 225    6.3456211960038e-07
 226    -2.1720206410984e-06
 227    -5.8901691077044e-06
 228    -1.6204851757016e-05
 229    5.7541214851943e-05
 230    6.3184113394101e-07
 231    2.4757456249246e-06
 232    1.1326614307786e-06
 233    -1.0969704869696e-06
 234    -1.6153136803124e-06
 235    5.3930840946448e-07
 236    5.9232739133904e-06
 237    -8.6425586867006e-06
 238    4.7196465619734e-07
 239    -1.6555732287192e-06
 240    -2.5619483894891e-06
 241    1.1819105617671e-05
 242    4.0482017039918e-06
 243    4.9054589103602e-05
 244    -6.4204615083138e-07
 245    -3.9223100091442e-06
 246    -1.0065434205474e-06
 247    -1.5282442203365e-06
 248    -6.7826722936678e-07
 249    2.5816571790083e-06
 250    -6.0312832090103e-06
 251    2.3532656889899e-06
 252    1.9383586781486e-05
 253    -0.00016150501300061
 254    -1.1513814397531e-06
 255    5.0716763698868e-06
 256    -4.3058447000578e-06
 257    -6.8802254312039e-05
 258    -5.5363393318157e-05
 259    0.00014308596712592
 260    -1.6096798663153e-06
 261    7.1688918525459e-06
 262    2.9569643576405e-06
 263    -4.7182123678156e-06
 264    -2.8905899168085e-06
 265    2.4466371564667e-06
 266    -1.6324911436623e-05
 267    4.8049733479781e-06
 268    -2.1977367365017e-05
 269    3.1565520634042e-05
 270    6.4409796798374e-05
 271    -0.0018425796818708
 272    -3.0005390026027e-05
 273    0.00010955952136005
 274    1.1939124706207e-05
 275    -0.0012119475317911
 276    -0.00033084191067569
 277    0.0018464940806048
 278    -0.00011679019449528
 279    0.00012893200187703