[Molden Format]
made by pyscf v[2.0.1]
[Atoms] (AU)
C   1   6     0.69100024066471     0.64692934207205    -3.48223131169301
H   2   1     2.68052439830868     1.13355088658700    -3.25784032593313
C   3   6    -0.36286361513219     0.85440132524594    -5.97030179418974
H   4   1    -2.35448549047279     0.36322488579172    -6.17995817793143
C   5   6     0.93697958957450     1.61209284601821    -8.05828437677121
H   6   1    -0.04002876534153     1.70579051152009    -9.86870372539436
C   7   6     3.55882871340184     2.30532870411993    -8.01809862923490
H   8   1     4.51217335653741     2.20318273111775    -6.19041637810672
H   9   1     1.55630230933075    -1.92953025305990    12.99630010416247
C   10   6     0.75233899775814    -2.21270439606481    11.10705728102219
H   11   1    -0.43433408177274    -3.90944857546550    11.22216085340412
C   12   6     2.86362581178706    -2.63237380607947     9.17926416456045
H   13   1     4.39038949912609    -1.24955421540245     9.49899813497433
H   14   1     3.74629220191363    -4.48798724300892     9.47414880959024
C   15   6     2.02478325613682    -2.42177285709634     6.44560829588644
C   16   6     3.88048732735477    -3.58795445234514     4.61402886975252
C   17   6    -0.18412382258602    -1.30464291234259     5.76021113872346
C   18   6    -2.10044360464350    -0.26837831858460     7.71610340967100
C   19   6    -3.08956938670431     2.35282328359417     6.88693925039594
C   20   6    -4.37372924086464    -2.09766595989678     7.93610724222001
C   21   6    -0.83850430601230     0.06372213486173    10.33002307638377
H   22   1     0.38411922151109     1.74281358582432    10.27380136542181
H   23   1    -2.30980003007874     0.45460143924521    11.73986301809809
H   24   1     4.58527064644668    -5.38706904487420     5.36778158031719
H   25   1     5.54944938085014    -2.37631462192748     4.35398898413318
H   26   1     3.06633019150423    -3.94118377050688     2.75255466040884
H   27   1    -4.17727778763735     2.26573369139522     5.12914900961283
H   28   1    -1.52662344944051     3.68001877445626     6.59540397144508
H   29   1    -4.32916174397830     3.13643051467482     8.35225460090378
H   30   1    -5.32329548508442    -2.36691813602939     6.11583672749896
H   31   1    -5.77989366602257    -1.33896741843465     9.25748940450990
H   32   1    -3.79310905208926    -3.96389819310853     8.61386170102686
C   33   6    -1.01100794811226    -1.06331657314144     3.11929490449947
C   34   6     0.37686231036534    -0.33275864505552     1.09165013605873
H   35   1    -3.01671213906703    -1.40297922279997     2.77827895090944
C   36   6    -0.64382707979370    -0.11591880174385    -1.42063131251064
H   37   1     2.35569259782137     0.17174499283897     1.33641070251401
H   38   1    -2.63317482980319    -0.60229203511219    -1.66119700387645
C   39   6     4.92949292707610     3.06752929189425   -10.04715344157890
C   40   6     7.59555456141448     3.73329481661799    -9.81073387339210
H   41   1     4.09542353861424     3.21030697797155   -11.92110945203513
O   42   8     8.93835728030826     4.43020973545744   -11.55200196938216
H   43   1     8.37079058468688     3.56000927179912    -7.85902689076443
[GTO]
1 0
 s    6 1.00
             3047.5249  0.0018347001629433
             457.36951    0.01403730124668
             103.94869   0.068842606114048
             29.210155    0.23218442062076
              9.286663    0.46794134155879
              3.163927    0.36231203217765
 s    3 1.00
             7.8682724   -0.11933240861517
             1.8812885   -0.16085421161283
             0.5442493     1.1434564825515
 s    1 1.00
             0.1687144                   1
 p    3 1.00
             7.8682724   0.068999095584993
             1.8812885    0.31642397975315
             0.5442493    0.74430825237435
 p    1 1.00
             0.1687144                   1
 d    1 1.00
                   0.8                   1

2 0
 s    3 1.00
             18.731137    0.03349459952309
             2.8253937    0.23472694665786
             0.6401217    0.81375731841339
 s    1 1.00
             0.1612778                   1

3 0
 s    6 1.00
             3047.5249  0.0018347001629433
             457.36951    0.01403730124668
             103.94869   0.068842606114048
             29.210155    0.23218442062076
              9.286663    0.46794134155879
              3.163927    0.36231203217765
 s    3 1.00
             7.8682724   -0.11933240861517
             1.8812885   -0.16085421161283
             0.5442493     1.1434564825515
 s    1 1.00
             0.1687144                   1
 p    3 1.00
             7.8682724   0.068999095584993
             1.8812885    0.31642397975315
             0.5442493    0.74430825237435
 p    1 1.00
             0.1687144                   1
 d    1 1.00
                   0.8                   1

4 0
 s    3 1.00
             18.731137    0.03349459952309
             2.8253937    0.23472694665786
             0.6401217    0.81375731841339
 s    1 1.00
             0.1612778                   1

5 0
 s    6 1.00
             3047.5249  0.0018347001629433
             457.36951    0.01403730124668
             103.94869   0.068842606114048
             29.210155    0.23218442062076
              9.286663    0.46794134155879
              3.163927    0.36231203217765
 s    3 1.00
             7.8682724   -0.11933240861517
             1.8812885   -0.16085421161283
             0.5442493     1.1434564825515
 s    1 1.00
             0.1687144                   1
 p    3 1.00
             7.8682724   0.068999095584993
             1.8812885    0.31642397975315
             0.5442493    0.74430825237435
 p    1 1.00
             0.1687144                   1
 d    1 1.00
                   0.8                   1

6 0
 s    3 1.00
             18.731137    0.03349459952309
             2.8253937    0.23472694665786
             0.6401217    0.81375731841339
 s    1 1.00
             0.1612778                   1

7 0
 s    6 1.00
             3047.5249  0.0018347001629433
             457.36951    0.01403730124668
             103.94869   0.068842606114048
             29.210155    0.23218442062076
              9.286663    0.46794134155879
              3.163927    0.36231203217765
 s    3 1.00
             7.8682724   -0.11933240861517
             1.8812885   -0.16085421161283
             0.5442493     1.1434564825515
 s    1 1.00
             0.1687144                   1
 p    3 1.00
             7.8682724   0.068999095584993
             1.8812885    0.31642397975315
             0.5442493    0.74430825237435
 p    1 1.00
             0.1687144                   1
 d    1 1.00
                   0.8                   1

8 0
 s    3 1.00
             18.731137    0.03349459952309
             2.8253937    0.23472694665786
             0.6401217    0.81375731841339
 s    1 1.00
             0.1612778                   1

9 0
 s    3 1.00
             18.731137    0.03349459952309
             2.8253937    0.23472694665786
             0.6401217    0.81375731841339
 s    1 1.00
             0.1612778                   1

10 0
 s    6 1.00
             3047.5249  0.0018347001629433
             457.36951    0.01403730124668
             103.94869   0.068842606114048
             29.210155    0.23218442062076
              9.286663    0.46794134155879
              3.163927    0.36231203217765
 s    3 1.00
             7.8682724   -0.11933240861517
             1.8812885   -0.16085421161283
             0.5442493     1.1434564825515
 s    1 1.00
             0.1687144                   1
 p    3 1.00
             7.8682724   0.068999095584993
             1.8812885    0.31642397975315
             0.5442493    0.74430825237435
 p    1 1.00
             0.1687144                   1
 d    1 1.00
                   0.8                   1

11 0
 s    3 1.00
             18.731137    0.03349459952309
             2.8253937    0.23472694665786
             0.6401217    0.81375731841339
 s    1 1.00
             0.1612778                   1

12 0
 s    6 1.00
             3047.5249  0.0018347001629433
             457.36951    0.01403730124668
             103.94869   0.068842606114048
             29.210155    0.23218442062076
              9.286663    0.46794134155879
              3.163927    0.36231203217765
 s    3 1.00
             7.8682724   -0.11933240861517
             1.8812885   -0.16085421161283
             0.5442493     1.1434564825515
 s    1 1.00
             0.1687144                   1
 p    3 1.00
             7.8682724   0.068999095584993
             1.8812885    0.31642397975315
             0.5442493    0.74430825237435
 p    1 1.00
             0.1687144                   1
 d    1 1.00
                   0.8                   1

13 0
 s    3 1.00
             18.731137    0.03349459952309
             2.8253937    0.23472694665786
             0.6401217    0.81375731841339
 s    1 1.00
             0.1612778                   1

14 0
 s    3 1.00
             18.731137    0.03349459952309
             2.8253937    0.23472694665786
             0.6401217    0.81375731841339
 s    1 1.00
             0.1612778                   1

15 0
 s    6 1.00
             3047.5249  0.0018347001629433
             457.36951    0.01403730124668
             103.94869   0.068842606114048
             29.210155    0.23218442062076
              9.286663    0.46794134155879
              3.163927    0.36231203217765
 s    3 1.00
             7.8682724   -0.11933240861517
             1.8812885   -0.16085421161283
             0.5442493     1.1434564825515
 s    1 1.00
             0.1687144                   1
 p    3 1.00
             7.8682724   0.068999095584993
             1.8812885    0.31642397975315
             0.5442493    0.74430825237435
 p    1 1.00
             0.1687144                   1
 d    1 1.00
                   0.8                   1

16 0
 s    6 1.00
             3047.5249  0.0018347001629433
             457.36951    0.01403730124668
             103.94869   0.068842606114048
             29.210155    0.23218442062076
              9.286663    0.46794134155879
              3.163927    0.36231203217765
 s    3 1.00
             7.8682724   -0.11933240861517
             1.8812885   -0.16085421161283
             0.5442493     1.1434564825515
 s    1 1.00
             0.1687144                   1
 p    3 1.00
             7.8682724   0.068999095584993
             1.8812885    0.31642397975315
             0.5442493    0.74430825237435
 p    1 1.00
             0.1687144                   1
 d    1 1.00
                   0.8                   1

17 0
 s    6 1.00
             3047.5249  0.0018347001629433
             457.36951    0.01403730124668
             103.94869   0.068842606114048
             29.210155    0.23218442062076
              9.286663    0.46794134155879
              3.163927    0.36231203217765
 s    3 1.00
             7.8682724   -0.11933240861517
             1.8812885   -0.16085421161283
             0.5442493     1.1434564825515
 s    1 1.00
             0.1687144                   1
 p    3 1.00
             7.8682724   0.068999095584993
             1.8812885    0.31642397975315
             0.5442493    0.74430825237435
 p    1 1.00
             0.1687144                   1
 d    1 1.00
                   0.8                   1

18 0
 s    6 1.00
             3047.5249  0.0018347001629433
             457.36951    0.01403730124668
             103.94869   0.068842606114048
             29.210155    0.23218442062076
              9.286663    0.46794134155879
              3.163927    0.36231203217765
 s    3 1.00
             7.8682724   -0.11933240861517
             1.8812885   -0.16085421161283
             0.5442493     1.1434564825515
 s    1 1.00
             0.1687144                   1
 p    3 1.00
             7.8682724   0.068999095584993
             1.8812885    0.31642397975315
             0.5442493    0.74430825237435
 p    1 1.00
             0.1687144                   1
 d    1 1.00
                   0.8                   1

19 0
 s    6 1.00
             3047.5249  0.0018347001629433
             457.36951    0.01403730124668
             103.94869   0.068842606114048
             29.210155    0.23218442062076
              9.286663    0.46794134155879
              3.163927    0.36231203217765
 s    3 1.00
             7.8682724   -0.11933240861517
             1.8812885   -0.16085421161283
             0.5442493     1.1434564825515
 s    1 1.00
             0.1687144                   1
 p    3 1.00
             7.8682724   0.068999095584993
             1.8812885    0.31642397975315
             0.5442493    0.74430825237435
 p    1 1.00
             0.1687144                   1
 d    1 1.00
                   0.8                   1

20 0
 s    6 1.00
             3047.5249  0.0018347001629433
             457.36951    0.01403730124668
             103.94869   0.068842606114048
             29.210155    0.23218442062076
              9.286663    0.46794134155879
              3.163927    0.36231203217765
 s    3 1.00
             7.8682724   -0.11933240861517
             1.8812885   -0.16085421161283
             0.5442493     1.1434564825515
 s    1 1.00
             0.1687144                   1
 p    3 1.00
             7.8682724   0.068999095584993
             1.8812885    0.31642397975315
             0.5442493    0.74430825237435
 p    1 1.00
             0.1687144                   1
 d    1 1.00
                   0.8                   1

21 0
 s    6 1.00
             3047.5249  0.0018347001629433
             457.36951    0.01403730124668
             103.94869   0.068842606114048
             29.210155    0.23218442062076
              9.286663    0.46794134155879
              3.163927    0.36231203217765
 s    3 1.00
             7.8682724   -0.11933240861517
             1.8812885   -0.16085421161283
             0.5442493     1.1434564825515
 s    1 1.00
             0.1687144                   1
 p    3 1.00
             7.8682724   0.068999095584993
             1.8812885    0.31642397975315
             0.5442493    0.74430825237435
 p    1 1.00
             0.1687144                   1
 d    1 1.00
                   0.8                   1

22 0
 s    3 1.00
             18.731137    0.03349459952309
             2.8253937    0.23472694665786
             0.6401217    0.81375731841339
 s    1 1.00
             0.1612778                   1

23 0
 s    3 1.00
             18.731137    0.03349459952309
             2.8253937    0.23472694665786
             0.6401217    0.81375731841339
 s    1 1.00
             0.1612778                   1

24 0
 s    3 1.00
             18.731137    0.03349459952309
             2.8253937    0.23472694665786
             0.6401217    0.81375731841339
 s    1 1.00
             0.1612778                   1

25 0
 s    3 1.00
             18.731137    0.03349459952309
             2.8253937    0.23472694665786
             0.6401217    0.81375731841339
 s    1 1.00
             0.1612778                   1

26 0
 s    3 1.00
             18.731137    0.03349459952309
             2.8253937    0.23472694665786
             0.6401217    0.81375731841339
 s    1 1.00
             0.1612778                   1

27 0
 s    3 1.00
             18.731137    0.03349459952309
             2.8253937    0.23472694665786
             0.6401217    0.81375731841339
 s    1 1.00
             0.1612778                   1

28 0
 s    3 1.00
             18.731137    0.03349459952309
             2.8253937    0.23472694665786
             0.6401217    0.81375731841339
 s    1 1.00
             0.1612778                   1

29 0
 s    3 1.00
             18.731137    0.03349459952309
             2.8253937    0.23472694665786
             0.6401217    0.81375731841339
 s    1 1.00
             0.1612778                   1

30 0
 s    3 1.00
             18.731137    0.03349459952309
             2.8253937    0.23472694665786
             0.6401217    0.81375731841339
 s    1 1.00
             0.1612778                   1

31 0
 s    3 1.00
             18.731137    0.03349459952309
             2.8253937    0.23472694665786
             0.6401217    0.81375731841339
 s    1 1.00
             0.1612778                   1

32 0
 s    3 1.00
             18.731137    0.03349459952309
             2.8253937    0.23472694665786
             0.6401217    0.81375731841339
 s    1 1.00
             0.1612778                   1

33 0
 s    6 1.00
             3047.5249  0.0018347001629433
             457.36951    0.01403730124668
             103.94869   0.068842606114048
             29.210155    0.23218442062076
              9.286663    0.46794134155879
              3.163927    0.36231203217765
 s    3 1.00
             7.8682724   -0.11933240861517
             1.8812885   -0.16085421161283
             0.5442493     1.1434564825515
 s    1 1.00
             0.1687144                   1
 p    3 1.00
             7.8682724   0.068999095584993
             1.8812885    0.31642397975315
             0.5442493    0.74430825237435
 p    1 1.00
             0.1687144                   1
 d    1 1.00
                   0.8                   1

34 0
 s    6 1.00
             3047.5249  0.0018347001629433
             457.36951    0.01403730124668
             103.94869   0.068842606114048
             29.210155    0.23218442062076
              9.286663    0.46794134155879
              3.163927    0.36231203217765
 s    3 1.00
             7.8682724   -0.11933240861517
             1.8812885   -0.16085421161283
             0.5442493     1.1434564825515
 s    1 1.00
             0.1687144                   1
 p    3 1.00
             7.8682724   0.068999095584993
             1.8812885    0.31642397975315
             0.5442493    0.74430825237435
 p    1 1.00
             0.1687144                   1
 d    1 1.00
                   0.8                   1

35 0
 s    3 1.00
             18.731137    0.03349459952309
             2.8253937    0.23472694665786
             0.6401217    0.81375731841339
 s    1 1.00
             0.1612778                   1

36 0
 s    6 1.00
             3047.5249  0.0018347001629433
             457.36951    0.01403730124668
             103.94869   0.068842606114048
             29.210155    0.23218442062076
              9.286663    0.46794134155879
              3.163927    0.36231203217765
 s    3 1.00
             7.8682724   -0.11933240861517
             1.8812885   -0.16085421161283
             0.5442493     1.1434564825515
 s    1 1.00
             0.1687144                   1
 p    3 1.00
             7.8682724   0.068999095584993
             1.8812885    0.31642397975315
             0.5442493    0.74430825237435
 p    1 1.00
             0.1687144                   1
 d    1 1.00
                   0.8                   1

37 0
 s    3 1.00
             18.731137    0.03349459952309
             2.8253937    0.23472694665786
             0.6401217    0.81375731841339
 s    1 1.00
             0.1612778                   1

38 0
 s    3 1.00
             18.731137    0.03349459952309
             2.8253937    0.23472694665786
             0.6401217    0.81375731841339
 s    1 1.00
             0.1612778                   1

39 0
 s    6 1.00
             3047.5249  0.0018347001629433
             457.36951    0.01403730124668
             103.94869   0.068842606114048
             29.210155    0.23218442062076
              9.286663    0.46794134155879
              3.163927    0.36231203217765
 s    3 1.00
             7.8682724   -0.11933240861517
             1.8812885   -0.16085421161283
             0.5442493     1.1434564825515
 s    1 1.00
             0.1687144                   1
 p    3 1.00
             7.8682724   0.068999095584993
             1.8812885    0.31642397975315
             0.5442493    0.74430825237435
 p    1 1.00
             0.1687144                   1
 d    1 1.00
                   0.8                   1

40 0
 s    6 1.00
             3047.5249  0.0018347001629433
             457.36951    0.01403730124668
             103.94869   0.068842606114048
             29.210155    0.23218442062076
              9.286663    0.46794134155879
              3.163927    0.36231203217765
 s    3 1.00
             7.8682724   -0.11933240861517
             1.8812885   -0.16085421161283
             0.5442493     1.1434564825515
 s    1 1.00
             0.1687144                   1
 p    3 1.00
             7.8682724   0.068999095584993
             1.8812885    0.31642397975315
             0.5442493    0.74430825237435
 p    1 1.00
             0.1687144                   1
 d    1 1.00
                   0.8                   1

41 0
 s    3 1.00
             18.731137    0.03349459952309
             2.8253937    0.23472694665786
             0.6401217    0.81375731841339
 s    1 1.00
             0.1612778                   1

42 0
 s    6 1.00
             5484.6717   0.001831099805527
             825.23495   0.013950098518422
             188.04696    0.06844509273075
               52.9645    0.23271427528445
              16.89757    0.47019295006289
             5.7996353    0.35852086192309
 s    3 1.00
             15.539616   -0.11077750382508
             3.5999336   -0.14802630511126
             1.0137618     1.1307670390447
 s    1 1.00
             0.2700058                   1
 p    3 1.00
             15.539616   0.070874299543311
             3.5999336    0.33975279781076
             1.0137618    0.72715859531445
 p    1 1.00
             0.2700058                   1
 d    1 1.00
                   0.8                   1

43 0
 s    3 1.00
             18.731137    0.03349459952309
             2.8253937    0.23472694665786
             0.6401217    0.81375731841339
 s    1 1.00
             0.1612778                   1

[5d]
[7f]
[9g]

[MO]
 Sym= A
 Ene=               0
 Spin= Alpha
 Occup=    1.00000
   1    -8.8325486643462e-06
   2    -6.3601920808123e-05
   3    0.0008761558201956
   4    -2.22571867859e-05
   5    -7.3174716736624e-06
   6    6.8085448774174e-06
   7    -6.0614700213045e-05
   8    0.0001869318709972
   9    -0.0010336732799032
  10    2.7052528320282e-05
  11    3.2043059789579e-05
  12    -1.3041720090476e-06
  13    4.048494787897e-06
  14    -4.3329567425798e-06
  15    -3.4425948470241e-05
  16    5.1019773414957e-05
  17    2.1405875566854e-05
  18    0.00012718130884951
  19    -0.0019571981131333
  20    -5.9722449924272e-06
  21    -1.0695004728092e-05
  22    4.6480021309459e-05
  23    -0.0012328314498209
  24    -0.00024730144371647
  25    -0.0004192588022389
  26    -2.7257660930901e-05
  27    1.3340954889505e-05
  28    1.7740955029269e-05
  29    -1.7562507993749e-05
  30    -1.3926056240275e-05
  31    -5.2892848316125e-05
  32    -0.00029224373108684
  33    -4.2157169630191e-05
  34    -0.00026822908760931
  35    0.0036266482757684
  36    5.1232287818007e-05
  37    2.2443744519203e-05
  38    -4.4808046722177e-05
  39    0.0016476391515055
  40     0.000208263147319
  41    0.0011847641643282
  42    -8.2543392716088e-06
  43    -1.3750492416899e-05
  44    -2.1416907851146e-05
  45    8.5905723377379e-05
  46    5.3631434194647e-05
  47    4.6148572225674e-05
  48    0.00038802469156698
  49    3.9355416264481e-07
  50    -4.6152219278058e-05
  51    -0.0024802310791376
  52    -0.00020755675334588
  53    -5.666279302336e-05
  54    5.508506645125e-06
  55    0.0028093510090854
  56    0.00075070786813811
  57    2.771984376498e-06
  58    0.00013762136998861
  59    -3.3041645309319e-05
  60    -4.4389305161057e-05
  61    -5.8220099051819e-05
  62    -2.4206847773074e-05
  63    -0.00013874513600015
  64    -0.0001941177360945
  65    -2.2274238234977e-07
  66    1.1156009434207e-06
  67    -8.3308832324196e-08
  68    -8.0603086046905e-07
  69    -5.4917899726878e-07
  70    5.0035142016415e-07
  71    -7.3823805671647e-07
  72    1.2053218753576e-07
  73    1.8560655952705e-06
  74    1.8088572223912e-06
  75    -1.1373662654927e-06
  76    2.2832791614242e-07
  77    1.2566605846868e-07
  78    4.8459093007886e-08
  79    1.0481188903411e-07
  80    1.107807511375e-07
  81    2.2453702219804e-07
  82    1.216078027071e-06
  83    1.9260574851366e-07
  84    1.6210808524838e-06
  85    -2.052814602286e-06
  86    1.1026566729277e-08
  87    4.8692320473809e-07
  88    1.9959948724645e-07
  89    2.1701629680277e-06
  90    -7.8893186040636e-06
  91    -1.5580191485221e-06
  92    -8.1925359607644e-08
  93    -1.8978129010579e-07
  94    5.9687985604746e-07
  95    -2.7848099440574e-07
  96    1.3881239558231e-08
  97     1.03361972248e-06
  98    1.4152543280505e-06
  99    -6.4562765991145e-07
 100    -1.8496233502748e-06
 101    -4.1228788596732e-07
 102    -2.0069851961509e-06
 103    5.284519216617e-05
 104    -1.2203184588213e-06
 105    -2.2621401573119e-07
 106    -9.3806335705677e-07
 107    -1.5221040348455e-05
 108    2.0478034627467e-05
 109    -1.5735063427801e-05
 110     3.35262966188e-07
 111    9.2188090392864e-07
 112    -4.0847164102532e-07
 113    -2.5635115803257e-07
 114    -8.8531811961261e-07
 115    1.5842805574636e-07
 116    1.4652701625869e-06
 117    -5.4350333209682e-06
 118    1.5434162377999e-08
 119    1.093419427845e-06
 120    -7.7978358496272e-07
 121    3.7934032352053e-06
 122    -1.019228174921e-05
 123    4.8302164144055e-06
 124    4.3424967284519e-07
 125    -2.3548843852254e-07
 126    -7.3567445193767e-07
 127    -1.9571269428038e-07
 128    -1.5494841966093e-08
 129    5.0995301100578e-07
 130    2.2566966835474e-06
 131    8.1642646846414e-07
 132    3.193974217869e-06
 133    -8.0617279801543e-08
 134    -1.3890693336831e-06
 135    -6.9447522409951e-05
 136    5.5478533541271e-06
 137    1.5765792217758e-05
 138    -8.741886233563e-07
 139    3.4001561981561e-07
 140    1.9350623719596e-06
 141    -1.0836684654044e-08
 142    1.707994598261e-06
 143    1.5392499306828e-07
 144    1.2562325191864e-07
 145    -3.4834907003325e-05
 146    3.8558778225413e-07
 147    -3.3210555919816e-07
 148    3.6282756689044e-06
 149    -1.7388968405427e-05
 150    2.7415420057927e-05
 151    -1.7588663974057e-05
 152    -3.1311451540447e-07
 153    -6.0361783060522e-08
 154    -1.4315232356045e-06
 155    -3.4003968122757e-07
 156    -3.7021432955843e-07
 157    5.4087037948191e-07
 158    4.7590970644583e-06
 159    -2.5905193758702e-05
 160    6.2314943662408e-07
 161    4.0959505878983e-07
 162    -9.2347116106251e-07
 163    -7.222503501997e-06
 164    1.0489734546604e-05
 165    3.3383293241204e-06
 166    6.7972248009096e-07
 167    -1.9681281770488e-07
 168    3.1254902441176e-08
 169    5.9581696622917e-07
 170    3.2365086201837e-07
 171    -1.9484965100537e-08
 172    -6.00590733376e-07
 173    9.3911323432228e-07
 174    -8.580094250884e-07
 175    -1.4267351525911e-07
 176    1.553253819287e-06
 177    1.2327566909496e-05
 178    7.916299434815e-07
 179    2.9365652546893e-06
 180    -1.6246314871993e-07
 181    1.128866541217e-06
 182    -6.2274643971752e-08
 183    7.2869318218995e-07
 184    8.8756555405043e-07
 185    -4.7886547715969e-07
 186    -3.7836220087127e-06
 187    2.4808626180949e-05
 188    -8.6050238239955e-07
 189    -2.3381161459144e-07
 190    -6.3232614486307e-07
 191    -2.5867928237662e-06
 192    -6.451181952952e-06
 193    -1.1143226306034e-05
 194    4.8823969981892e-07
 195    6.8939613966486e-07
 196    9.904582685039e-07
 197    -3.8038847544429e-07
 198    3.8246139447861e-07
 199    -1.2519621581548e-06
 200    9.8317775094483e-07
 201    -4.2573345060956e-07
 202    -4.6671105255862e-08
 203    -9.0209380551232e-07
 204    -4.4414829556832e-06
 205    1.8022299548758e-06
 206    2.7889091018285e-07
 207    1.5416043053914e-06
 208    8.5612944110709e-07
 209    2.0813401261214e-06
 210    1.4075161465788e-06
 211    1.3991081107513e-06
 212    2.8748765883986e-06
 213    4.4855897319127e-07
 214    -3.4626227182667e-06
 215    -2.8001366518707e-06
 216    1.5028911791499e-05
 217    8.877228030802e-07
 218    2.4463409451026e-06
 219    2.0510964189211e-07
 220    -2.8976184926894e-06
 221    -3.5023166976312e-06
 222    -2.3251145196546e-05
 223    0.00028936618760175
 224    3.6265666812372e-06
 225    1.4851990790823e-06
 226    -3.2554302208125e-06
 227    7.285403992064e-05
 228    4.517805055004e-05
 229    -0.00017228089343202
 230    5.7396587774865e-06
 231    -6.258903810407e-06
 232    -5.4484453799765e-06
 233    2.7172104285903e-06
 234    2.7061866971072e-06
 235    3.6937044002341e-06
 236    1.755095986524e-05
 237    -0.00050441948743998
 238    -6.3252819569117e-06
 239    -5.0678252780906e-06
 240    1.745768799323e-05
 241    0.00019133163322388
 242    5.5401119888816e-05
 243    -2.9359300823811e-05
 244    -1.0181459650006e-05
 245    5.9290941721019e-06
 246    4.8856984576094e-06
 247    3.4214206933747e-07
 248    -1.0554945306415e-06
 249    -4.1967398599879e-06
 250    -1.3872836916138e-05
 251    -3.6787382281479e-06
 252    -2.3657297489751e-05
 253    0.00053239608948796
 254    -9.8170462277863e-06
 255    7.323486456901e-07
 256    -1.7830638625332e-05
 257    0.0003219217759734
 258    5.8480266273525e-05
 259    0.0001455662052028
 260    5.6257775539772e-06
 261    -2.8563501815366e-06
 262    -3.9530816193487e-06
 263    5.0454450086183e-06
 264    3.8176658942748e-06
 265    -1.2773599745827e-05
 266    -8.1509451001665e-06
 267    1.7502442536173e-05
 268    9.8025796992238e-05
 269    3.3914364959896e-05
 270    8.164739658791e-05
 271    -0.0021442634395825
 272    -7.6526104531768e-05
 273    -7.4997253752716e-06
 274    -6.5909204226109e-05
 275    -0.0015718450132749
 276    -0.00069270456633435
 277    0.0014017038942365
 278    0.00010798159750743
 279    0.0001900939905733
 280    3.2660410637099e-05