[Molden Format]
made by pyscf v[2.0.1]
[Atoms] (AU)
C   1   6     0.69100024066471     0.64692934207205    -3.48223131169301
H   2   1     2.68052439830868     1.13355088658700    -3.25784032593313
C   3   6    -0.36286361513219     0.85440132524594    -5.97030179418974
H   4   1    -2.35448549047279     0.36322488579172    -6.17995817793143
C   5   6     0.93697958957450     1.61209284601821    -8.05828437677121
H   6   1     1.25179717896080     3.62344259528190    -8.36861463213972
C   7   6     1.93299030663405    -0.10622024085708    -9.90534865945394
H   8   1     1.60367989661651    -2.11561190296467    -9.56827000221191
H   9   1     1.55630230933075    -1.92953025305990    12.99630010416247
C   10   6     0.75233899775814    -2.21270439606481    11.10705728102219
H   11   1    -0.43433408177274    -3.90944857546550    11.22216085340412
C   12   6     2.86362581178706    -2.63237380607947     9.17926416456045
H   13   1     4.39038949912609    -1.24955421540245     9.49899813497433
H   14   1     3.74629220191363    -4.48798724300892     9.47414880959024
C   15   6     2.02478325613682    -2.42177285709634     6.44560829588644
C   16   6     3.88048732735477    -3.58795445234514     4.61402886975252
C   17   6    -0.18412382258602    -1.30464291234259     5.76021113872346
C   18   6    -2.10044360464350    -0.26837831858460     7.71610340967100
C   19   6    -3.08956938670431     2.35282328359417     6.88693925039594
C   20   6    -4.37372924086464    -2.09766595989678     7.93610724222001
C   21   6    -0.83850430601230     0.06372213486173    10.33002307638377
H   22   1     0.38411922151109     1.74281358582432    10.27380136542181
H   23   1    -2.30980003007874     0.45460143924521    11.73986301809809
H   24   1     4.58527064644668    -5.38706904487420     5.36778158031719
H   25   1     5.54944938085014    -2.37631462192748     4.35398898413318
H   26   1     3.06633019150423    -3.94118377050688     2.75255466040884
H   27   1    -4.17727778763735     2.26573369139522     5.12914900961283
H   28   1    -1.52662344944051     3.68001877445626     6.59540397144508
H   29   1    -4.32916174397830     3.13643051467482     8.35225460090378
H   30   1    -5.32329548508442    -2.36691813602939     6.11583672749896
H   31   1    -5.77989366602257    -1.33896741843465     9.25748940450990
H   32   1    -3.79310905208926    -3.96389819310853     8.61386170102686
C   33   6    -1.01100794811226    -1.06331657314144     3.11929490449947
C   34   6     0.37686231036534    -0.33275864505552     1.09165013605873
H   35   1    -3.01671213906703    -1.40297922279997     2.77827895090944
C   36   6    -0.64382707979370    -0.11591880174385    -1.42063131251064
H   37   1     2.35569259782137     0.17174499283897     1.33641070251401
H   38   1    -2.63317482980319    -0.60229203511219    -1.66119700387645
C   39   6     3.23483881481583     0.56109494848388   -12.01167590238676
C   40   6     4.17213386166354    -1.33546547775814   -13.78129708499957
H   41   1     3.62751071831436     2.52907164005278   -12.45960989181140
O   42   8     5.35190984410731    -0.86987395658954   -15.70799822813352
H   43   1     3.72751838268070    -3.32497850208065   -13.24806737881206
[GTO]
1 0
 s    6 1.00
             3047.5249  0.0018347001629433
             457.36951    0.01403730124668
             103.94869   0.068842606114048
             29.210155    0.23218442062076
              9.286663    0.46794134155879
              3.163927    0.36231203217765
 s    3 1.00
             7.8682724   -0.11933240861517
             1.8812885   -0.16085421161283
             0.5442493     1.1434564825515
 s    1 1.00
             0.1687144                   1
 p    3 1.00
             7.8682724   0.068999095584993
             1.8812885    0.31642397975315
             0.5442493    0.74430825237435
 p    1 1.00
             0.1687144                   1
 d    1 1.00
                   0.8                   1

2 0
 s    3 1.00
             18.731137    0.03349459952309
             2.8253937    0.23472694665786
             0.6401217    0.81375731841339
 s    1 1.00
             0.1612778                   1

3 0
 s    6 1.00
             3047.5249  0.0018347001629433
             457.36951    0.01403730124668
             103.94869   0.068842606114048
             29.210155    0.23218442062076
              9.286663    0.46794134155879
              3.163927    0.36231203217765
 s    3 1.00
             7.8682724   -0.11933240861517
             1.8812885   -0.16085421161283
             0.5442493     1.1434564825515
 s    1 1.00
             0.1687144                   1
 p    3 1.00
             7.8682724   0.068999095584993
             1.8812885    0.31642397975315
             0.5442493    0.74430825237435
 p    1 1.00
             0.1687144                   1
 d    1 1.00
                   0.8                   1

4 0
 s    3 1.00
             18.731137    0.03349459952309
             2.8253937    0.23472694665786
             0.6401217    0.81375731841339
 s    1 1.00
             0.1612778                   1

5 0
 s    6 1.00
             3047.5249  0.0018347001629433
             457.36951    0.01403730124668
             103.94869   0.068842606114048
             29.210155    0.23218442062076
              9.286663    0.46794134155879
              3.163927    0.36231203217765
 s    3 1.00
             7.8682724   -0.11933240861517
             1.8812885   -0.16085421161283
             0.5442493     1.1434564825515
 s    1 1.00
             0.1687144                   1
 p    3 1.00
             7.8682724   0.068999095584993
             1.8812885    0.31642397975315
             0.5442493    0.74430825237435
 p    1 1.00
             0.1687144                   1
 d    1 1.00
                   0.8                   1

6 0
 s    3 1.00
             18.731137    0.03349459952309
             2.8253937    0.23472694665786
             0.6401217    0.81375731841339
 s    1 1.00
             0.1612778                   1

7 0
 s    6 1.00
             3047.5249  0.0018347001629433
             457.36951    0.01403730124668
             103.94869   0.068842606114048
             29.210155    0.23218442062076
              9.286663    0.46794134155879
              3.163927    0.36231203217765
 s    3 1.00
             7.8682724   -0.11933240861517
             1.8812885   -0.16085421161283
             0.5442493     1.1434564825515
 s    1 1.00
             0.1687144                   1
 p    3 1.00
             7.8682724   0.068999095584993
             1.8812885    0.31642397975315
             0.5442493    0.74430825237435
 p    1 1.00
             0.1687144                   1
 d    1 1.00
                   0.8                   1

8 0
 s    3 1.00
             18.731137    0.03349459952309
             2.8253937    0.23472694665786
             0.6401217    0.81375731841339
 s    1 1.00
             0.1612778                   1

9 0
 s    3 1.00
             18.731137    0.03349459952309
             2.8253937    0.23472694665786
             0.6401217    0.81375731841339
 s    1 1.00
             0.1612778                   1

10 0
 s    6 1.00
             3047.5249  0.0018347001629433
             457.36951    0.01403730124668
             103.94869   0.068842606114048
             29.210155    0.23218442062076
              9.286663    0.46794134155879
              3.163927    0.36231203217765
 s    3 1.00
             7.8682724   -0.11933240861517
             1.8812885   -0.16085421161283
             0.5442493     1.1434564825515
 s    1 1.00
             0.1687144                   1
 p    3 1.00
             7.8682724   0.068999095584993
             1.8812885    0.31642397975315
             0.5442493    0.74430825237435
 p    1 1.00
             0.1687144                   1
 d    1 1.00
                   0.8                   1

11 0
 s    3 1.00
             18.731137    0.03349459952309
             2.8253937    0.23472694665786
             0.6401217    0.81375731841339
 s    1 1.00
             0.1612778                   1

12 0
 s    6 1.00
             3047.5249  0.0018347001629433
             457.36951    0.01403730124668
             103.94869   0.068842606114048
             29.210155    0.23218442062076
              9.286663    0.46794134155879
              3.163927    0.36231203217765
 s    3 1.00
             7.8682724   -0.11933240861517
             1.8812885   -0.16085421161283
             0.5442493     1.1434564825515
 s    1 1.00
             0.1687144                   1
 p    3 1.00
             7.8682724   0.068999095584993
             1.8812885    0.31642397975315
             0.5442493    0.74430825237435
 p    1 1.00
             0.1687144                   1
 d    1 1.00
                   0.8                   1

13 0
 s    3 1.00
             18.731137    0.03349459952309
             2.8253937    0.23472694665786
             0.6401217    0.81375731841339
 s    1 1.00
             0.1612778                   1

14 0
 s    3 1.00
             18.731137    0.03349459952309
             2.8253937    0.23472694665786
             0.6401217    0.81375731841339
 s    1 1.00
             0.1612778                   1

15 0
 s    6 1.00
             3047.5249  0.0018347001629433
             457.36951    0.01403730124668
             103.94869   0.068842606114048
             29.210155    0.23218442062076
              9.286663    0.46794134155879
              3.163927    0.36231203217765
 s    3 1.00
             7.8682724   -0.11933240861517
             1.8812885   -0.16085421161283
             0.5442493     1.1434564825515
 s    1 1.00
             0.1687144                   1
 p    3 1.00
             7.8682724   0.068999095584993
             1.8812885    0.31642397975315
             0.5442493    0.74430825237435
 p    1 1.00
             0.1687144                   1
 d    1 1.00
                   0.8                   1

16 0
 s    6 1.00
             3047.5249  0.0018347001629433
             457.36951    0.01403730124668
             103.94869   0.068842606114048
             29.210155    0.23218442062076
              9.286663    0.46794134155879
              3.163927    0.36231203217765
 s    3 1.00
             7.8682724   -0.11933240861517
             1.8812885   -0.16085421161283
             0.5442493     1.1434564825515
 s    1 1.00
             0.1687144                   1
 p    3 1.00
             7.8682724   0.068999095584993
             1.8812885    0.31642397975315
             0.5442493    0.74430825237435
 p    1 1.00
             0.1687144                   1
 d    1 1.00
                   0.8                   1

17 0
 s    6 1.00
             3047.5249  0.0018347001629433
             457.36951    0.01403730124668
             103.94869   0.068842606114048
             29.210155    0.23218442062076
              9.286663    0.46794134155879
              3.163927    0.36231203217765
 s    3 1.00
             7.8682724   -0.11933240861517
             1.8812885   -0.16085421161283
             0.5442493     1.1434564825515
 s    1 1.00
             0.1687144                   1
 p    3 1.00
             7.8682724   0.068999095584993
             1.8812885    0.31642397975315
             0.5442493    0.74430825237435
 p    1 1.00
             0.1687144                   1
 d    1 1.00
                   0.8                   1

18 0
 s    6 1.00
             3047.5249  0.0018347001629433
             457.36951    0.01403730124668
             103.94869   0.068842606114048
             29.210155    0.23218442062076
              9.286663    0.46794134155879
              3.163927    0.36231203217765
 s    3 1.00
             7.8682724   -0.11933240861517
             1.8812885   -0.16085421161283
             0.5442493     1.1434564825515
 s    1 1.00
             0.1687144                   1
 p    3 1.00
             7.8682724   0.068999095584993
             1.8812885    0.31642397975315
             0.5442493    0.74430825237435
 p    1 1.00
             0.1687144                   1
 d    1 1.00
                   0.8                   1

19 0
 s    6 1.00
             3047.5249  0.0018347001629433
             457.36951    0.01403730124668
             103.94869   0.068842606114048
             29.210155    0.23218442062076
              9.286663    0.46794134155879
              3.163927    0.36231203217765
 s    3 1.00
             7.8682724   -0.11933240861517
             1.8812885   -0.16085421161283
             0.5442493     1.1434564825515
 s    1 1.00
             0.1687144                   1
 p    3 1.00
             7.8682724   0.068999095584993
             1.8812885    0.31642397975315
             0.5442493    0.74430825237435
 p    1 1.00
             0.1687144                   1
 d    1 1.00
                   0.8                   1

20 0
 s    6 1.00
             3047.5249  0.0018347001629433
             457.36951    0.01403730124668
             103.94869   0.068842606114048
             29.210155    0.23218442062076
              9.286663    0.46794134155879
              3.163927    0.36231203217765
 s    3 1.00
             7.8682724   -0.11933240861517
             1.8812885   -0.16085421161283
             0.5442493     1.1434564825515
 s    1 1.00
             0.1687144                   1
 p    3 1.00
             7.8682724   0.068999095584993
             1.8812885    0.31642397975315
             0.5442493    0.74430825237435
 p    1 1.00
             0.1687144                   1
 d    1 1.00
                   0.8                   1

21 0
 s    6 1.00
             3047.5249  0.0018347001629433
             457.36951    0.01403730124668
             103.94869   0.068842606114048
             29.210155    0.23218442062076
              9.286663    0.46794134155879
              3.163927    0.36231203217765
 s    3 1.00
             7.8682724   -0.11933240861517
             1.8812885   -0.16085421161283
             0.5442493     1.1434564825515
 s    1 1.00
             0.1687144                   1
 p    3 1.00
             7.8682724   0.068999095584993
             1.8812885    0.31642397975315
             0.5442493    0.74430825237435
 p    1 1.00
             0.1687144                   1
 d    1 1.00
                   0.8                   1

22 0
 s    3 1.00
             18.731137    0.03349459952309
             2.8253937    0.23472694665786
             0.6401217    0.81375731841339
 s    1 1.00
             0.1612778                   1

23 0
 s    3 1.00
             18.731137    0.03349459952309
             2.8253937    0.23472694665786
             0.6401217    0.81375731841339
 s    1 1.00
             0.1612778                   1

24 0
 s    3 1.00
             18.731137    0.03349459952309
             2.8253937    0.23472694665786
             0.6401217    0.81375731841339
 s    1 1.00
             0.1612778                   1

25 0
 s    3 1.00
             18.731137    0.03349459952309
             2.8253937    0.23472694665786
             0.6401217    0.81375731841339
 s    1 1.00
             0.1612778                   1

26 0
 s    3 1.00
             18.731137    0.03349459952309
             2.8253937    0.23472694665786
             0.6401217    0.81375731841339
 s    1 1.00
             0.1612778                   1

27 0
 s    3 1.00
             18.731137    0.03349459952309
             2.8253937    0.23472694665786
             0.6401217    0.81375731841339
 s    1 1.00
             0.1612778                   1

28 0
 s    3 1.00
             18.731137    0.03349459952309
             2.8253937    0.23472694665786
             0.6401217    0.81375731841339
 s    1 1.00
             0.1612778                   1

29 0
 s    3 1.00
             18.731137    0.03349459952309
             2.8253937    0.23472694665786
             0.6401217    0.81375731841339
 s    1 1.00
             0.1612778                   1

30 0
 s    3 1.00
             18.731137    0.03349459952309
             2.8253937    0.23472694665786
             0.6401217    0.81375731841339
 s    1 1.00
             0.1612778                   1

31 0
 s    3 1.00
             18.731137    0.03349459952309
             2.8253937    0.23472694665786
             0.6401217    0.81375731841339
 s    1 1.00
             0.1612778                   1

32 0
 s    3 1.00
             18.731137    0.03349459952309
             2.8253937    0.23472694665786
             0.6401217    0.81375731841339
 s    1 1.00
             0.1612778                   1

33 0
 s    6 1.00
             3047.5249  0.0018347001629433
             457.36951    0.01403730124668
             103.94869   0.068842606114048
             29.210155    0.23218442062076
              9.286663    0.46794134155879
              3.163927    0.36231203217765
 s    3 1.00
             7.8682724   -0.11933240861517
             1.8812885   -0.16085421161283
             0.5442493     1.1434564825515
 s    1 1.00
             0.1687144                   1
 p    3 1.00
             7.8682724   0.068999095584993
             1.8812885    0.31642397975315
             0.5442493    0.74430825237435
 p    1 1.00
             0.1687144                   1
 d    1 1.00
                   0.8                   1

34 0
 s    6 1.00
             3047.5249  0.0018347001629433
             457.36951    0.01403730124668
             103.94869   0.068842606114048
             29.210155    0.23218442062076
              9.286663    0.46794134155879
              3.163927    0.36231203217765
 s    3 1.00
             7.8682724   -0.11933240861517
             1.8812885   -0.16085421161283
             0.5442493     1.1434564825515
 s    1 1.00
             0.1687144                   1
 p    3 1.00
             7.8682724   0.068999095584993
             1.8812885    0.31642397975315
             0.5442493    0.74430825237435
 p    1 1.00
             0.1687144                   1
 d    1 1.00
                   0.8                   1

35 0
 s    3 1.00
             18.731137    0.03349459952309
             2.8253937    0.23472694665786
             0.6401217    0.81375731841339
 s    1 1.00
             0.1612778                   1

36 0
 s    6 1.00
             3047.5249  0.0018347001629433
             457.36951    0.01403730124668
             103.94869   0.068842606114048
             29.210155    0.23218442062076
              9.286663    0.46794134155879
              3.163927    0.36231203217765
 s    3 1.00
             7.8682724   -0.11933240861517
             1.8812885   -0.16085421161283
             0.5442493     1.1434564825515
 s    1 1.00
             0.1687144                   1
 p    3 1.00
             7.8682724   0.068999095584993
             1.8812885    0.31642397975315
             0.5442493    0.74430825237435
 p    1 1.00
             0.1687144                   1
 d    1 1.00
                   0.8                   1

37 0
 s    3 1.00
             18.731137    0.03349459952309
             2.8253937    0.23472694665786
             0.6401217    0.81375731841339
 s    1 1.00
             0.1612778                   1

38 0
 s    3 1.00
             18.731137    0.03349459952309
             2.8253937    0.23472694665786
             0.6401217    0.81375731841339
 s    1 1.00
             0.1612778                   1

39 0
 s    6 1.00
             3047.5249  0.0018347001629433
             457.36951    0.01403730124668
             103.94869   0.068842606114048
             29.210155    0.23218442062076
              9.286663    0.46794134155879
              3.163927    0.36231203217765
 s    3 1.00
             7.8682724   -0.11933240861517
             1.8812885   -0.16085421161283
             0.5442493     1.1434564825515
 s    1 1.00
             0.1687144                   1
 p    3 1.00
             7.8682724   0.068999095584993
             1.8812885    0.31642397975315
             0.5442493    0.74430825237435
 p    1 1.00
             0.1687144                   1
 d    1 1.00
                   0.8                   1

40 0
 s    6 1.00
             3047.5249  0.0018347001629433
             457.36951    0.01403730124668
             103.94869   0.068842606114048
             29.210155    0.23218442062076
              9.286663    0.46794134155879
              3.163927    0.36231203217765
 s    3 1.00
             7.8682724   -0.11933240861517
             1.8812885   -0.16085421161283
             0.5442493     1.1434564825515
 s    1 1.00
             0.1687144                   1
 p    3 1.00
             7.8682724   0.068999095584993
             1.8812885    0.31642397975315
             0.5442493    0.74430825237435
 p    1 1.00
             0.1687144                   1
 d    1 1.00
                   0.8                   1

41 0
 s    3 1.00
             18.731137    0.03349459952309
             2.8253937    0.23472694665786
             0.6401217    0.81375731841339
 s    1 1.00
             0.1612778                   1

42 0
 s    6 1.00
             5484.6717   0.001831099805527
             825.23495   0.013950098518422
             188.04696    0.06844509273075
               52.9645    0.23271427528445
              16.89757    0.47019295006289
             5.7996353    0.35852086192309
 s    3 1.00
             15.539616   -0.11077750382508
             3.5999336   -0.14802630511126
             1.0137618     1.1307670390447
 s    1 1.00
             0.2700058                   1
 p    3 1.00
             15.539616   0.070874299543311
             3.5999336    0.33975279781076
             1.0137618    0.72715859531445
 p    1 1.00
             0.2700058                   1
 d    1 1.00
                   0.8                   1

43 0
 s    3 1.00
             18.731137    0.03349459952309
             2.8253937    0.23472694665786
             0.6401217    0.81375731841339
 s    1 1.00
             0.1612778                   1

[5d]
[7f]
[9g]

[MO]
 Sym= A
 Ene=               0
 Spin= Alpha
 Occup=    1.00000
   1    1.1479802130304e-06
   2    1.2946566721914e-05
   3    -4.1384672878551e-05
   4    3.4975638925241e-06
   5    -3.943693856781e-06
   6    -7.916622068783e-06
   7    1.3920882975804e-07
   8    -3.1984717006263e-05
   9    0.00020093555652618
  10    9.1030590216662e-08
  11    -6.4172913963291e-06
  12    -1.8836110764775e-06
  13    -7.7605783727973e-06
  14    4.189072497534e-06
  15    7.5326379745849e-06
  16    -1.2693991413781e-05
  17    -4.4557670353488e-06
  18    -9.2766633695201e-05
  19    -0.00025121948248599
  20    -2.9750392442813e-05
  21    6.8338283084451e-06
  22    4.1286245093758e-05
  23    -8.1031360735786e-05
  24    4.2916817406459e-05
  25    0.00037388494528402
  26    -1.290018264717e-05
  27    1.2690852085695e-05
  28    -3.633779567211e-06
  29    -2.4586531161751e-05
  30    5.6467378573536e-06
  31    5.6649884012917e-06
  32    -1.1873531959958e-05
  33    -2.9777798251107e-05
  34    -0.00019880088941584
  35     0.002524994833499
  36    4.7598253033418e-05
  37    -1.0985212982373e-05
  38    -8.5585018249551e-05
  39    0.00013709619270845
  40    -0.0011064180775721
  41    -0.00037686062361137
  42    2.2772777263975e-05
  43    -5.7509169324321e-05
  44    4.6788170489373e-05
  45    -2.2406246911162e-05
  46    -2.0877936229397e-05
  47    9.7601162632924e-06
  48    0.0001640306857559
  49    -4.0984839315537e-06
  50    -7.0611666668091e-05
  51    -0.0019673741672154
  52    -7.9120401062962e-05
  53    0.00012980178507337
  54    0.00014743527722548
  55    0.00078016775718943
  56    -0.001463999332359
  57    -0.0014614246873332
  58    3.0309017002825e-06
  59    -2.9857355398938e-05
  60    -0.00011295622326606
  61    -9.5957192715645e-06
  62    7.0980244954786e-05
  63    -0.00016666815762879
  64    -3.5933258982389e-05
  65    1.3201001052743e-07
  66    1.9025092640168e-07
  67    2.2874847881728e-08
  68     3.07340932859e-07
  69    -1.6706793824171e-06
  70    -1.3272124532089e-07
  71    1.812396825929e-07
  72    -4.8054967814947e-08
  73    -1.1388403726694e-07
  74    -9.3195093542506e-07
  75    -1.0205559247041e-07
  76    2.8499224175166e-08
  77    6.7267946455105e-08
  78    -2.862873233237e-08
  79    -4.4406894655453e-08
  80    5.4595360253447e-08
  81    -4.2383441581414e-08
  82    -1.0666730637453e-07
  83    -1.5048040470245e-08
  84    5.7398364490031e-08
  85    6.7654056973897e-06
  86    -3.0695695572284e-07
  87    -6.6015685478609e-08
  88    -4.6305817552129e-07
  89    -1.8430763932834e-06
  90    2.6790355208016e-06
  91    -1.5260970264842e-06
  92    -9.0857227865211e-08
  93    1.4888758924932e-07
  94    -1.8338630168985e-07
  95    -1.3656831501221e-08
  96    8.0656188849597e-08
  97    -3.5200853707684e-07
  98    -5.0825929988293e-07
  99    4.4021452033664e-08
 100    6.4064975179791e-07
 101    5.4946609470488e-08
 102    6.3586713793303e-07
 103    -9.1273713684152e-06
 104    -4.687040464611e-08
 105    5.0527229037611e-07
 106    2.8551552193922e-07
 107    1.0467718612387e-05
 108    -9.3035733388841e-06
 109    -1.4812162887528e-05
 110    3.1189597379714e-07
 111    2.7154902389196e-07
 112    -1.2164563114926e-07
 113    -2.5702880698543e-07
 114    2.6830336339001e-07
 115    2.6478224698107e-07
 116    2.5029603908415e-06
 117    -1.9491591531482e-05
 118    3.4923367142496e-07
 119    -5.893759891554e-07
 120    -4.4526216255408e-07
 121    4.0725059038929e-06
 122    1.9180675260912e-08
 123    -7.8485452172291e-07
 124    2.5506080223637e-08
 125    8.3076459879101e-08
 126    1.0072161828571e-07
 127    -1.3930921688841e-08
 128    1.6816026216509e-07
 129    4.9717964201317e-07
 130    4.7239204577725e-06
 131    -2.4447699471485e-05
 132    -9.0758039159473e-08
 133    3.4328913697162e-07
 134    -1.9382025335338e-06
 135    1.3856990819674e-05
 136    -1.9819479465613e-06
 137    4.0399116638961e-05
 138    -1.271028448204e-06
 139    -7.5782207519027e-07
 140    -1.3895484991653e-07
 141    -2.1389711542976e-07
 142    -6.915324339904e-08
 143    1.7077557773983e-07
 144    1.6539976728391e-06
 145    -7.963352474147e-06
 146    -1.6910375223735e-07
 147    -3.7854876585201e-07
 148    -1.7538294549499e-07
 149    -5.2069120912864e-06
 150    4.1867046696728e-06
 151    6.921691710164e-07
 152    5.5661957697074e-07
 153    1.7541847184037e-07
 154    4.3434983023268e-08
 155    -3.7649395651059e-07
 156    3.3933943906337e-07
 157    -4.5186980982112e-08
 158    -3.9831194434915e-07
 159    -1.1330898608077e-06
 160    -4.0953021385881e-07
 161    1.0102739382752e-07
 162    -1.0026199004961e-08
 163    3.0116188070197e-06
 164    2.2920015677633e-07
 165    -4.0508634111089e-07
 166    -1.9864092562163e-07
 167    4.2520211011635e-08
 168    1.4846257998484e-09
 169    6.4504243491664e-08
 170     -1.2289726607e-07
 171    -1.6856486768198e-08
 172    2.0494564802766e-07
 173    1.210398501577e-06
 174    3.6577063443363e-07
 175    7.1304354632944e-08
 176    -4.117307748177e-07
 177    2.7351710086003e-07
 178    -6.6710547820798e-07
 179    1.1460777277769e-06
 180    -9.0118534279576e-08
 181    -1.0705343748373e-07
 182    1.0841415106882e-08
 183    2.0657647313101e-07
 184    -8.8335980875187e-08
 185    1.5697045123761e-07
 186    1.5898762458034e-06
 187    -1.3698782871622e-06
 188    1.3246560831862e-07
 189    -6.729452010359e-08
 190    -5.723485379786e-07
 191    -1.2939311755565e-06
 192    -6.7525729739282e-07
 193    3.1849144823726e-06
 194    -2.0119602379957e-07
 195    2.192375690026e-08
 196    -5.8620789445882e-08
 197    -3.1614633695336e-08
 198    4.4776685411555e-08
 199    4.1474059860249e-07
 200    7.7214475447951e-07
 201    -4.3001691111344e-08
 202    -1.7520612957178e-06
 203    9.4503719116754e-07
 204    1.1926225255306e-06
 205    1.7874329588838e-07
 206    1.2633515047091e-06
 207    -8.9570112068242e-07
 208    7.6726543695777e-06
 209    -5.3291670012273e-07
 210    2.2054829892958e-06
 211    -1.9278355059141e-07
 212    -1.4783717466942e-06
 213    1.0794464150067e-07
 214    1.1267029259985e-06
 215    2.6931466949516e-07
 216    -2.1938996375585e-07
 217    -1.770259323621e-07
 218    -5.1084176027783e-07
 219    -1.2055161514211e-07
 220    -6.0944164394405e-07
 221    4.1067545083975e-07
 222    4.5579418233633e-06
 223    7.372296265086e-08
 224    4.6139871301463e-08
 225    4.3865183561796e-08
 226    -1.7859218936924e-06
 227    -9.451492159093e-06
 228    -1.3857681277835e-05
 229    4.723798510645e-05
 230    5.9605819772671e-07
 231    2.0471016985807e-06
 232    1.1149370543987e-06
 233    -9.4010976254913e-07
 234    -1.5600926256553e-06
 235    7.3757867835349e-07
 236    7.1312411537641e-06
 237    -2.1256661130348e-05
 238    6.1471061625476e-07
 239    -1.5834757079203e-06
 240    -2.2550064132498e-06
 241    1.1770179221582e-05
 242    5.7116949445843e-06
 243    5.5498771728517e-05
 244    -1.408585181949e-06
 245    -3.7733772434862e-06
 246    -1.3925811054882e-06
 247    -1.3881494037341e-06
 248    -1.1882889133687e-06
 249    1.7985068742972e-06
 250    -6.45078985078e-06
 251    1.8766162629018e-06
 252    1.5958727874379e-05
 253    -0.0001071209717096
 254    -1.8586155955214e-06
 255    6.9987015209129e-06
 256    -4.5877180349409e-06
 257    -4.8383440203128e-05
 258    -6.0514604040216e-05
 259    0.00012385083025433
 260    -3.9049434548747e-07
 261    6.2358309739144e-06
 262    3.4516434869351e-06
 263    -3.5572002909727e-06
 264    -3.9839069529495e-06
 265    2.7724030329125e-06
 266    -1.5183089061568e-05
 267    4.8065334504831e-06
 268    -2.1311641457911e-05
 269    3.1512853754626e-05
 270    6.3826353597875e-05
 271    -0.0018405173594763
 272    -9.331302826467e-06
 273    0.00011101550243513
 274    2.530881017493e-05
 275    -0.0011481664575685
 276    -0.0003280714342947
 277    0.0018922406626863
 278    -0.00014799856822028
 279    0.00011149654802284
 280    -8.0216292323358e-05