[Molden Format]
made by pyscf v[2.0.1]
[Atoms] (AU)
C   1   6     0.69100024066471     0.64692934207205    -3.48223131169301
H   2   1     2.68052439830868     1.13355088658700    -3.25784032593313
C   3   6    -0.36286361513219     0.85440132524594    -5.97030179418974
H   4   1    -2.35448549047279     0.36322488579172    -6.17995817793143
C   5   6     0.93697958957450     1.61209284601821    -8.05828437677121
H   6   1     2.68174994182533     2.67994959464420    -7.82079505522331
C   7   6     0.13444904340515     1.08121190669811   -10.59410649762000
H   8   1    -1.61655526267424     0.00863003830430   -10.80213119601662
H   9   1     1.55630230933075    -1.92953025305990    12.99630010416247
C   10   6     0.75233899775814    -2.21270439606481    11.10705728102219
H   11   1    -0.43433408177274    -3.90944857546550    11.22216085340412
C   12   6     2.86362581178706    -2.63237380607947     9.17926416456045
H   13   1     4.39038949912609    -1.24955421540245     9.49899813497433
H   14   1     3.74629220191363    -4.48798724300892     9.47414880959024
C   15   6     2.02478325613682    -2.42177285709634     6.44560829588644
C   16   6     3.88048732735477    -3.58795445234514     4.61402886975252
C   17   6    -0.18412382258602    -1.30464291234259     5.76021113872346
C   18   6    -2.10044360464350    -0.26837831858460     7.71610340967100
C   19   6    -3.08956938670431     2.35282328359417     6.88693925039594
C   20   6    -4.37372924086464    -2.09766595989678     7.93610724222001
C   21   6    -0.83850430601230     0.06372213486173    10.33002307638377
H   22   1     0.38411922151109     1.74281358582432    10.27380136542181
H   23   1    -2.30980003007874     0.45460143924521    11.73986301809809
H   24   1     4.58527064644668    -5.38706904487420     5.36778158031719
H   25   1     5.54944938085014    -2.37631462192748     4.35398898413318
H   26   1     3.06633019150423    -3.94118377050688     2.75255466040884
H   27   1    -4.17727778763735     2.26573369139522     5.12914900961283
H   28   1    -1.52662344944051     3.68001877445626     6.59540397144508
H   29   1    -4.32916174397830     3.13643051467482     8.35225460090378
H   30   1    -5.32329548508442    -2.36691813602939     6.11583672749896
H   31   1    -5.77989366602257    -1.33896741843465     9.25748940450990
H   32   1    -3.79310905208926    -3.96389819310853     8.61386170102686
C   33   6    -1.01100794811226    -1.06331657314144     3.11929490449947
C   34   6     0.37686231036534    -0.33275864505552     1.09165013605873
H   35   1    -3.01671213906703    -1.40297922279997     2.77827895090944
C   36   6    -0.64382707979370    -0.11591880174385    -1.42063131251064
H   37   1     2.35569259782137     0.17174499283897     1.33641070251401
H   38   1    -2.63317482980319    -0.60229203511219    -1.66119700387645
C   39   6     1.36441264344082     1.79875350819652   -12.72695837882209
C   40   6     0.39042169983249     1.16479015456541   -15.22824898409742
H   41   1     3.11744943935123     2.87075295695162   -12.65315109008398
O   42   8     1.39604269582139     1.74939992973347   -17.22017818748739
H   43   1    -1.40767336523230     0.06622817248511   -15.21429812709214
[GTO]
1 0
 s    6 1.00
             3047.5249  0.0018347001629433
             457.36951    0.01403730124668
             103.94869   0.068842606114048
             29.210155    0.23218442062076
              9.286663    0.46794134155879
              3.163927    0.36231203217765
 s    3 1.00
             7.8682724   -0.11933240861517
             1.8812885   -0.16085421161283
             0.5442493     1.1434564825515
 s    1 1.00
             0.1687144                   1
 p    3 1.00
             7.8682724   0.068999095584993
             1.8812885    0.31642397975315
             0.5442493    0.74430825237435
 p    1 1.00
             0.1687144                   1
 d    1 1.00
                   0.8                   1

2 0
 s    3 1.00
             18.731137    0.03349459952309
             2.8253937    0.23472694665786
             0.6401217    0.81375731841339
 s    1 1.00
             0.1612778                   1

3 0
 s    6 1.00
             3047.5249  0.0018347001629433
             457.36951    0.01403730124668
             103.94869   0.068842606114048
             29.210155    0.23218442062076
              9.286663    0.46794134155879
              3.163927    0.36231203217765
 s    3 1.00
             7.8682724   -0.11933240861517
             1.8812885   -0.16085421161283
             0.5442493     1.1434564825515
 s    1 1.00
             0.1687144                   1
 p    3 1.00
             7.8682724   0.068999095584993
             1.8812885    0.31642397975315
             0.5442493    0.74430825237435
 p    1 1.00
             0.1687144                   1
 d    1 1.00
                   0.8                   1

4 0
 s    3 1.00
             18.731137    0.03349459952309
             2.8253937    0.23472694665786
             0.6401217    0.81375731841339
 s    1 1.00
             0.1612778                   1

5 0
 s    6 1.00
             3047.5249  0.0018347001629433
             457.36951    0.01403730124668
             103.94869   0.068842606114048
             29.210155    0.23218442062076
              9.286663    0.46794134155879
              3.163927    0.36231203217765
 s    3 1.00
             7.8682724   -0.11933240861517
             1.8812885   -0.16085421161283
             0.5442493     1.1434564825515
 s    1 1.00
             0.1687144                   1
 p    3 1.00
             7.8682724   0.068999095584993
             1.8812885    0.31642397975315
             0.5442493    0.74430825237435
 p    1 1.00
             0.1687144                   1
 d    1 1.00
                   0.8                   1

6 0
 s    3 1.00
             18.731137    0.03349459952309
             2.8253937    0.23472694665786
             0.6401217    0.81375731841339
 s    1 1.00
             0.1612778                   1

7 0
 s    6 1.00
             3047.5249  0.0018347001629433
             457.36951    0.01403730124668
             103.94869   0.068842606114048
             29.210155    0.23218442062076
              9.286663    0.46794134155879
              3.163927    0.36231203217765
 s    3 1.00
             7.8682724   -0.11933240861517
             1.8812885   -0.16085421161283
             0.5442493     1.1434564825515
 s    1 1.00
             0.1687144                   1
 p    3 1.00
             7.8682724   0.068999095584993
             1.8812885    0.31642397975315
             0.5442493    0.74430825237435
 p    1 1.00
             0.1687144                   1
 d    1 1.00
                   0.8                   1

8 0
 s    3 1.00
             18.731137    0.03349459952309
             2.8253937    0.23472694665786
             0.6401217    0.81375731841339
 s    1 1.00
             0.1612778                   1

9 0
 s    3 1.00
             18.731137    0.03349459952309
             2.8253937    0.23472694665786
             0.6401217    0.81375731841339
 s    1 1.00
             0.1612778                   1

10 0
 s    6 1.00
             3047.5249  0.0018347001629433
             457.36951    0.01403730124668
             103.94869   0.068842606114048
             29.210155    0.23218442062076
              9.286663    0.46794134155879
              3.163927    0.36231203217765
 s    3 1.00
             7.8682724   -0.11933240861517
             1.8812885   -0.16085421161283
             0.5442493     1.1434564825515
 s    1 1.00
             0.1687144                   1
 p    3 1.00
             7.8682724   0.068999095584993
             1.8812885    0.31642397975315
             0.5442493    0.74430825237435
 p    1 1.00
             0.1687144                   1
 d    1 1.00
                   0.8                   1

11 0
 s    3 1.00
             18.731137    0.03349459952309
             2.8253937    0.23472694665786
             0.6401217    0.81375731841339
 s    1 1.00
             0.1612778                   1

12 0
 s    6 1.00
             3047.5249  0.0018347001629433
             457.36951    0.01403730124668
             103.94869   0.068842606114048
             29.210155    0.23218442062076
              9.286663    0.46794134155879
              3.163927    0.36231203217765
 s    3 1.00
             7.8682724   -0.11933240861517
             1.8812885   -0.16085421161283
             0.5442493     1.1434564825515
 s    1 1.00
             0.1687144                   1
 p    3 1.00
             7.8682724   0.068999095584993
             1.8812885    0.31642397975315
             0.5442493    0.74430825237435
 p    1 1.00
             0.1687144                   1
 d    1 1.00
                   0.8                   1

13 0
 s    3 1.00
             18.731137    0.03349459952309
             2.8253937    0.23472694665786
             0.6401217    0.81375731841339
 s    1 1.00
             0.1612778                   1

14 0
 s    3 1.00
             18.731137    0.03349459952309
             2.8253937    0.23472694665786
             0.6401217    0.81375731841339
 s    1 1.00
             0.1612778                   1

15 0
 s    6 1.00
             3047.5249  0.0018347001629433
             457.36951    0.01403730124668
             103.94869   0.068842606114048
             29.210155    0.23218442062076
              9.286663    0.46794134155879
              3.163927    0.36231203217765
 s    3 1.00
             7.8682724   -0.11933240861517
             1.8812885   -0.16085421161283
             0.5442493     1.1434564825515
 s    1 1.00
             0.1687144                   1
 p    3 1.00
             7.8682724   0.068999095584993
             1.8812885    0.31642397975315
             0.5442493    0.74430825237435
 p    1 1.00
             0.1687144                   1
 d    1 1.00
                   0.8                   1

16 0
 s    6 1.00
             3047.5249  0.0018347001629433
             457.36951    0.01403730124668
             103.94869   0.068842606114048
             29.210155    0.23218442062076
              9.286663    0.46794134155879
              3.163927    0.36231203217765
 s    3 1.00
             7.8682724   -0.11933240861517
             1.8812885   -0.16085421161283
             0.5442493     1.1434564825515
 s    1 1.00
             0.1687144                   1
 p    3 1.00
             7.8682724   0.068999095584993
             1.8812885    0.31642397975315
             0.5442493    0.74430825237435
 p    1 1.00
             0.1687144                   1
 d    1 1.00
                   0.8                   1

17 0
 s    6 1.00
             3047.5249  0.0018347001629433
             457.36951    0.01403730124668
             103.94869   0.068842606114048
             29.210155    0.23218442062076
              9.286663    0.46794134155879
              3.163927    0.36231203217765
 s    3 1.00
             7.8682724   -0.11933240861517
             1.8812885   -0.16085421161283
             0.5442493     1.1434564825515
 s    1 1.00
             0.1687144                   1
 p    3 1.00
             7.8682724   0.068999095584993
             1.8812885    0.31642397975315
             0.5442493    0.74430825237435
 p    1 1.00
             0.1687144                   1
 d    1 1.00
                   0.8                   1

18 0
 s    6 1.00
             3047.5249  0.0018347001629433
             457.36951    0.01403730124668
             103.94869   0.068842606114048
             29.210155    0.23218442062076
              9.286663    0.46794134155879
              3.163927    0.36231203217765
 s    3 1.00
             7.8682724   -0.11933240861517
             1.8812885   -0.16085421161283
             0.5442493     1.1434564825515
 s    1 1.00
             0.1687144                   1
 p    3 1.00
             7.8682724   0.068999095584993
             1.8812885    0.31642397975315
             0.5442493    0.74430825237435
 p    1 1.00
             0.1687144                   1
 d    1 1.00
                   0.8                   1

19 0
 s    6 1.00
             3047.5249  0.0018347001629433
             457.36951    0.01403730124668
             103.94869   0.068842606114048
             29.210155    0.23218442062076
              9.286663    0.46794134155879
              3.163927    0.36231203217765
 s    3 1.00
             7.8682724   -0.11933240861517
             1.8812885   -0.16085421161283
             0.5442493     1.1434564825515
 s    1 1.00
             0.1687144                   1
 p    3 1.00
             7.8682724   0.068999095584993
             1.8812885    0.31642397975315
             0.5442493    0.74430825237435
 p    1 1.00
             0.1687144                   1
 d    1 1.00
                   0.8                   1

20 0
 s    6 1.00
             3047.5249  0.0018347001629433
             457.36951    0.01403730124668
             103.94869   0.068842606114048
             29.210155    0.23218442062076
              9.286663    0.46794134155879
              3.163927    0.36231203217765
 s    3 1.00
             7.8682724   -0.11933240861517
             1.8812885   -0.16085421161283
             0.5442493     1.1434564825515
 s    1 1.00
             0.1687144                   1
 p    3 1.00
             7.8682724   0.068999095584993
             1.8812885    0.31642397975315
             0.5442493    0.74430825237435
 p    1 1.00
             0.1687144                   1
 d    1 1.00
                   0.8                   1

21 0
 s    6 1.00
             3047.5249  0.0018347001629433
             457.36951    0.01403730124668
             103.94869   0.068842606114048
             29.210155    0.23218442062076
              9.286663    0.46794134155879
              3.163927    0.36231203217765
 s    3 1.00
             7.8682724   -0.11933240861517
             1.8812885   -0.16085421161283
             0.5442493     1.1434564825515
 s    1 1.00
             0.1687144                   1
 p    3 1.00
             7.8682724   0.068999095584993
             1.8812885    0.31642397975315
             0.5442493    0.74430825237435
 p    1 1.00
             0.1687144                   1
 d    1 1.00
                   0.8                   1

22 0
 s    3 1.00
             18.731137    0.03349459952309
             2.8253937    0.23472694665786
             0.6401217    0.81375731841339
 s    1 1.00
             0.1612778                   1

23 0
 s    3 1.00
             18.731137    0.03349459952309
             2.8253937    0.23472694665786
             0.6401217    0.81375731841339
 s    1 1.00
             0.1612778                   1

24 0
 s    3 1.00
             18.731137    0.03349459952309
             2.8253937    0.23472694665786
             0.6401217    0.81375731841339
 s    1 1.00
             0.1612778                   1

25 0
 s    3 1.00
             18.731137    0.03349459952309
             2.8253937    0.23472694665786
             0.6401217    0.81375731841339
 s    1 1.00
             0.1612778                   1

26 0
 s    3 1.00
             18.731137    0.03349459952309
             2.8253937    0.23472694665786
             0.6401217    0.81375731841339
 s    1 1.00
             0.1612778                   1

27 0
 s    3 1.00
             18.731137    0.03349459952309
             2.8253937    0.23472694665786
             0.6401217    0.81375731841339
 s    1 1.00
             0.1612778                   1

28 0
 s    3 1.00
             18.731137    0.03349459952309
             2.8253937    0.23472694665786
             0.6401217    0.81375731841339
 s    1 1.00
             0.1612778                   1

29 0
 s    3 1.00
             18.731137    0.03349459952309
             2.8253937    0.23472694665786
             0.6401217    0.81375731841339
 s    1 1.00
             0.1612778                   1

30 0
 s    3 1.00
             18.731137    0.03349459952309
             2.8253937    0.23472694665786
             0.6401217    0.81375731841339
 s    1 1.00
             0.1612778                   1

31 0
 s    3 1.00
             18.731137    0.03349459952309
             2.8253937    0.23472694665786
             0.6401217    0.81375731841339
 s    1 1.00
             0.1612778                   1

32 0
 s    3 1.00
             18.731137    0.03349459952309
             2.8253937    0.23472694665786
             0.6401217    0.81375731841339
 s    1 1.00
             0.1612778                   1

33 0
 s    6 1.00
             3047.5249  0.0018347001629433
             457.36951    0.01403730124668
             103.94869   0.068842606114048
             29.210155    0.23218442062076
              9.286663    0.46794134155879
              3.163927    0.36231203217765
 s    3 1.00
             7.8682724   -0.11933240861517
             1.8812885   -0.16085421161283
             0.5442493     1.1434564825515
 s    1 1.00
             0.1687144                   1
 p    3 1.00
             7.8682724   0.068999095584993
             1.8812885    0.31642397975315
             0.5442493    0.74430825237435
 p    1 1.00
             0.1687144                   1
 d    1 1.00
                   0.8                   1

34 0
 s    6 1.00
             3047.5249  0.0018347001629433
             457.36951    0.01403730124668
             103.94869   0.068842606114048
             29.210155    0.23218442062076
              9.286663    0.46794134155879
              3.163927    0.36231203217765
 s    3 1.00
             7.8682724   -0.11933240861517
             1.8812885   -0.16085421161283
             0.5442493     1.1434564825515
 s    1 1.00
             0.1687144                   1
 p    3 1.00
             7.8682724   0.068999095584993
             1.8812885    0.31642397975315
             0.5442493    0.74430825237435
 p    1 1.00
             0.1687144                   1
 d    1 1.00
                   0.8                   1

35 0
 s    3 1.00
             18.731137    0.03349459952309
             2.8253937    0.23472694665786
             0.6401217    0.81375731841339
 s    1 1.00
             0.1612778                   1

36 0
 s    6 1.00
             3047.5249  0.0018347001629433
             457.36951    0.01403730124668
             103.94869   0.068842606114048
             29.210155    0.23218442062076
              9.286663    0.46794134155879
              3.163927    0.36231203217765
 s    3 1.00
             7.8682724   -0.11933240861517
             1.8812885   -0.16085421161283
             0.5442493     1.1434564825515
 s    1 1.00
             0.1687144                   1
 p    3 1.00
             7.8682724   0.068999095584993
             1.8812885    0.31642397975315
             0.5442493    0.74430825237435
 p    1 1.00
             0.1687144                   1
 d    1 1.00
                   0.8                   1

37 0
 s    3 1.00
             18.731137    0.03349459952309
             2.8253937    0.23472694665786
             0.6401217    0.81375731841339
 s    1 1.00
             0.1612778                   1

38 0
 s    3 1.00
             18.731137    0.03349459952309
             2.8253937    0.23472694665786
             0.6401217    0.81375731841339
 s    1 1.00
             0.1612778                   1

39 0
 s    6 1.00
             3047.5249  0.0018347001629433
             457.36951    0.01403730124668
             103.94869   0.068842606114048
             29.210155    0.23218442062076
              9.286663    0.46794134155879
              3.163927    0.36231203217765
 s    3 1.00
             7.8682724   -0.11933240861517
             1.8812885   -0.16085421161283
             0.5442493     1.1434564825515
 s    1 1.00
             0.1687144                   1
 p    3 1.00
             7.8682724   0.068999095584993
             1.8812885    0.31642397975315
             0.5442493    0.74430825237435
 p    1 1.00
             0.1687144                   1
 d    1 1.00
                   0.8                   1

40 0
 s    6 1.00
             3047.5249  0.0018347001629433
             457.36951    0.01403730124668
             103.94869   0.068842606114048
             29.210155    0.23218442062076
              9.286663    0.46794134155879
              3.163927    0.36231203217765
 s    3 1.00
             7.8682724   -0.11933240861517
             1.8812885   -0.16085421161283
             0.5442493     1.1434564825515
 s    1 1.00
             0.1687144                   1
 p    3 1.00
             7.8682724   0.068999095584993
             1.8812885    0.31642397975315
             0.5442493    0.74430825237435
 p    1 1.00
             0.1687144                   1
 d    1 1.00
                   0.8                   1

41 0
 s    3 1.00
             18.731137    0.03349459952309
             2.8253937    0.23472694665786
             0.6401217    0.81375731841339
 s    1 1.00
             0.1612778                   1

42 0
 s    6 1.00
             5484.6717   0.001831099805527
             825.23495   0.013950098518422
             188.04696    0.06844509273075
               52.9645    0.23271427528445
              16.89757    0.47019295006289
             5.7996353    0.35852086192309
 s    3 1.00
             15.539616   -0.11077750382508
             3.5999336   -0.14802630511126
             1.0137618     1.1307670390447
 s    1 1.00
             0.2700058                   1
 p    3 1.00
             15.539616   0.070874299543311
             3.5999336    0.33975279781076
             1.0137618    0.72715859531445
 p    1 1.00
             0.2700058                   1
 d    1 1.00
                   0.8                   1

43 0
 s    3 1.00
             18.731137    0.03349459952309
             2.8253937    0.23472694665786
             0.6401217    0.81375731841339
 s    1 1.00
             0.1612778                   1

[5d]
[7f]
[9g]

[MO]
 Sym= A
 Ene=               0
 Spin= Alpha
 Occup=    1.00000
   1    0.0019472585684022
   2      0.22754030993186
   3      0.13531517726572
   4    -0.060978387107704
   5     -0.03834186811695
   6      0.11187030068881
   7     0.012946926850372
   8    -0.0053097000532051
   9     0.042134713432206
  10    0.0024720343910024
  11    -0.0037594056092555
  12    -0.0033255092388528
  13    0.0057405553528353
  14    0.0043865729759677
  15     0.048870612640659
  16    -0.003919234753455
  17    -0.0058713670892189
  18     0.033218497773063
  19     0.031099595558775
  20    -0.0059282548023113
  21    -0.0093441350239492
  22     0.041280393573057
  23    0.0032652152425295
  24    -0.0027395383846686
  25     0.029529396758115
  26    0.0051057292115598
  27    0.0015503453497561
  28    -0.0017002297792764
  29    0.00078472405871634
  30    0.00032072199182556
  31     0.010031237020365
  32    0.0057661041718395
  33    -0.0043178106186936
  34     0.025165341668669
  35     0.030911133276526
  36    0.0058280810618458
  37    0.0034233090591193
  38    -0.034446735180971
  39    -0.0060947624030279
  40    -0.0016701831586151
  41    -0.024102512682484
  42    0.0046070648925823
  43    0.00057897746418844
  44    0.00066144944719871
  45    0.0004709865254472
  46    0.00074301575818858
  47     0.007695101751046
  48    0.0061818076720497
  49    0.0009665086119335
  50       0.1918766255924
  51      0.10972571550909
  52     0.048727556692486
  53     0.027920513644357
  54    -0.098333078040744
  55     -0.00771123735979
  56    -0.0059199935976439
  57    -0.035347079855528
  58    0.0024040646862602
  59    -0.0032088981718253
  60    -0.0018258758962292
  61    0.0028116420016926
  62    0.0051637024031227
  63      0.04072335277865
  64    -0.0031579401221752
  65    2.962574921219e-05
  66    1.965298612499e-05
  67    1.7092258792064e-05
  68    9.0312286077594e-06
  69    -0.00029474449750644
  70    -3.1508315669735e-05
  71    -6.1228340139254e-06
  72    2.2777786984311e-05
  73    0.00015495571522522
  74    0.00031531749081212
  75    0.00017776498031798
  76    2.0523388292229e-05
  77    9.1021104294497e-06
  78    -7.3112893857505e-06
  79    -5.9979069276813e-06
  80    7.885441688121e-06
  81    1.0030669010051e-05
  82    0.00027503196647415
  83    -1.6919229113577e-05
  84    0.00010126429081479
  85    0.00072521061496374
  86    -9.9533708532508e-05
  87    7.9782077376582e-05
  88    -0.00021183315260675
  89    -0.00028854037175116
  90    -0.0003267194562777
  91    -0.0003012673937381
  92    -6.9890021612711e-06
  93    2.4359906588738e-05
  94    1.1768656321507e-06
  95    2.6591468887974e-07
  96    5.0136589829928e-07
  97    2.2091154712269e-05
  98    0.00017559069842545
  99    -7.0285483623922e-05
 100    -0.00016385711262918
 101    6.0925390723603e-05
 102    -3.4108669239073e-05
 103    -0.0010177902384062
 104    -0.00011577074888663
 105    -0.00011675375202115
 106    0.00030419663977698
 107    0.0017574280723659
 108    -0.00069008696953681
 109    -0.001901692894908
 110    2.3404564130411e-05
 111    5.3532573333967e-05
 112    -1.5452861855863e-05
 113    -4.0804323762784e-05
 114    2.3677840479876e-05
 115    4.2414366494356e-05
 116    -0.00015783456600264
 117    -0.0012032213925887
 118    7.0860425763654e-05
 119    -0.0002359165411468
 120    2.5886182220598e-06
 121    0.00022025220699389
 122    -3.6091288796607e-06
 123    -0.0011367746311455
 124    8.4236445958131e-06
 125    2.7375437504157e-05
 126    -3.6044753678218e-05
 127    9.0084269216546e-06
 128    1.7139263981022e-05
 129    9.033725419861e-06
 130    0.00039974947353074
 131    -0.008579807145991
 132    -0.00010012479712422
 133    -6.2774561840751e-05
 134    -0.00042498127015413
 135    0.0014628049543085
 136    -0.00097771777905708
 137     0.008631226719676
 138    -0.0002584910561589
 139    6.6517192345295e-05
 140    7.4836206654543e-05
 141    3.1984527669775e-05
 142    4.840050558377e-05
 143    3.8541652114962e-05
 144    -6.0861812120147e-05
 145    -0.0011536651234308
 146    5.0375548816851e-05
 147    7.4866593014584e-05
 148    0.00030477641905497
 149    -0.0017608036101829
 150    0.00093468752897704
 151    -0.0014758895439432
 152    5.765884046168e-05
 153    -2.5558821435671e-05
 154    -2.6626665421305e-05
 155    -3.4710263887036e-05
 156    3.5542765240192e-05
 157    1.3032799392088e-05
 158    0.00010074218713662
 159    -0.00098449268304333
 160    3.8885779546456e-05
 161    7.3859370058584e-07
 162    -2.9033991171658e-05
 163    3.8637353004619e-05
 164    0.00061789865688146
 165    0.00018202977672994
 166    1.8505182645893e-05
 167    -3.1935979343495e-06
 168    1.0661091039198e-06
 169    3.6451336272046e-05
 170    -4.9947711770925e-06
 171    3.759074742769e-06
 172    -0.00017217616386385
 173    0.00027885825824362
 174    -2.1884996485032e-06
 175    1.7254402229084e-05
 176    0.00019188830590441
 177    0.00017519844566716
 178    -0.00052868696233299
 179    -0.0001476285743062
 180    5.6377566621267e-06
 181    4.1455325790822e-05
 182    1.5092860425407e-05
 183    2.028435269798e-05
 184    -7.315717377175e-06
 185    -5.5043034394445e-06
 186    1.5193596119666e-05
 187    0.0010889073887755
 188    2.2112620901512e-05
 189    -3.21850876374e-05
 190    -0.00018439401139521
 191    -0.00067417866964959
 192    -0.00025319119150267
 193    -0.00032837236125008
 194    1.5704646054964e-05
 195    2.6817494771912e-05
 196    1.7283170389928e-05
 197    -3.9714020246803e-06
 198    1.5906611293973e-05
 199    -1.7398758170333e-06
 200    0.00023187645064592
 201    -8.0528611531973e-05
 202    -0.00029220797596905
 203    0.00010121291620425
 204    0.00052043088606269
 205    -9.7781893873774e-05
 206    -7.7401838703815e-05
 207    0.00010968931134405
 208    -0.00071531986111249
 209    7.3062869198587e-05
 210    0.00012236157906247
 211    2.5206661824899e-05
 212    -6.9877162323822e-05
 213    4.0764142146688e-07
 214    -0.00015088702695698
 215    -4.2929069739011e-06
 216    -0.00064362859334374
 217    3.1058579194637e-05
 218    0.00029625269221041
 219    -1.0562403030179e-05
 220    -0.00030952908732267
 221    0.00080577937564626
 222    -0.0018077429217799
 223     0.016457208209689
 224    -0.00072801467447126
 225    -0.00062830893597443
 226    0.0021233041597835
 227       0.0128474979702
 228    0.0015720399264716
 229    0.0067566449554198
 230    7.7772006518577e-05
 231    -0.00010705579296728
 232    -0.00010382276120503
 233    0.00012433449958814
 234    0.00012448563496597
 235    -0.0059261356360944
 236     0.030621256419611
 237     0.017106294159929
 238    0.0043766544465224
 239    0.0084028184886189
 240    -0.035453018277954
 241    0.0035542745484063
 242     0.005600384401762
 243    -0.022742904954347
 244    0.0049634962398356
 245    0.0014625063028045
 246    -0.0015076501663969
 247    0.00064582466362545
 248    0.00014008596806447
 249    0.00049998676606124
 250     0.006735322740275
 251    0.0015217981851444
 252      0.22613819630677
 253      0.15019677299248
 254     0.058270425845683
 255     0.038603051796273
 256     -0.11518935822172
 257    -0.010389184100464
 258    0.0060597065174542
 259    -0.043072635847825
 260    0.0028520008881938
 261    -0.0039341194078911
 262    -0.0034378394606378
 263     0.005713964554721
 264    0.0042728093988027
 265    0.0077913494662052
 266     0.001091891145424
 267     0.050010386135281
 268    -0.0039319370379829
 269    0.0022426914061995
 270      0.18813376133476
 271       0.1316459824293
 272    -0.044237998783314
 273    -0.025046082458492
 274     0.098275846874482
 275    0.0046350209919164
 276    0.0038108947019152
 277     0.034651121742011
 278    0.0028848992690022
 279    -0.0038170630575183
 280    -0.0022334197077834
 281    0.0028683260402056
 282    0.0055112349748303
 283    -0.005441333982803
 284     0.027513366352381
 285     0.015160326118458