[Molden Format]
made by pyscf v[2.0.1]
[Atoms] (AU)
C   1   6     0.69100024066471     0.64692934207205    -3.48223131169301
H   2   1     2.68052439830868     1.13355088658700    -3.25784032593313
C   3   6    -0.36286361513219     0.85440132524594    -5.97030179418974
H   4   1    -2.35448549047279     0.36322488579172    -6.17995817793143
C   5   6     0.93697958957450     1.61209284601821    -8.05828437677121
H   6   1     1.25179717896080     3.62344259528190    -8.36861463213972
C   7   6     1.93299030663405    -0.10622024085708    -9.90534865945394
H   8   1     1.60367989661651    -2.11561190296467    -9.56827000221191
H   9   1     1.55630230933075    -1.92953025305990    12.99630010416247
C   10   6     0.75233899775814    -2.21270439606481    11.10705728102219
H   11   1    -0.43433408177274    -3.90944857546550    11.22216085340412
C   12   6     2.86362581178706    -2.63237380607947     9.17926416456045
H   13   1     4.39038949912609    -1.24955421540245     9.49899813497433
H   14   1     3.74629220191363    -4.48798724300892     9.47414880959024
C   15   6     2.02478325613682    -2.42177285709634     6.44560829588644
C   16   6     3.88048732735477    -3.58795445234514     4.61402886975252
C   17   6    -0.18412382258602    -1.30464291234259     5.76021113872346
C   18   6    -2.10044360464350    -0.26837831858460     7.71610340967100
C   19   6    -3.08956938670431     2.35282328359417     6.88693925039594
C   20   6    -4.37372924086464    -2.09766595989678     7.93610724222001
C   21   6    -0.83850430601230     0.06372213486173    10.33002307638377
H   22   1     0.38411922151109     1.74281358582432    10.27380136542181
H   23   1    -2.30980003007874     0.45460143924521    11.73986301809809
H   24   1     4.58527064644668    -5.38706904487420     5.36778158031719
H   25   1     5.54944938085014    -2.37631462192748     4.35398898413318
H   26   1     3.06633019150423    -3.94118377050688     2.75255466040884
H   27   1    -4.17727778763735     2.26573369139522     5.12914900961283
H   28   1    -1.52662344944051     3.68001877445626     6.59540397144508
H   29   1    -4.32916174397830     3.13643051467482     8.35225460090378
H   30   1    -5.32329548508442    -2.36691813602939     6.11583672749896
H   31   1    -5.77989366602257    -1.33896741843465     9.25748940450990
H   32   1    -3.79310905208926    -3.96389819310853     8.61386170102686
C   33   6    -1.01100794811226    -1.06331657314144     3.11929490449947
C   34   6     0.37686231036534    -0.33275864505552     1.09165013605873
H   35   1    -3.01671213906703    -1.40297922279997     2.77827895090944
C   36   6    -0.64382707979370    -0.11591880174385    -1.42063131251064
H   37   1     2.35569259782137     0.17174499283897     1.33641070251401
H   38   1    -2.63317482980319    -0.60229203511219    -1.66119700387645
C   39   6     3.23483881481583     0.56109494848388   -12.01167590238676
C   40   6     4.17213386166354    -1.33546547775814   -13.78129708499957
H   41   1     3.62751071831436     2.52907164005278   -12.45960989181140
O   42   8     5.35190984410731    -0.86987395658954   -15.70799822813352
H   43   1     3.72751838268070    -3.32497850208065   -13.24806737881206
[GTO]
1 0
 s    6 1.00
             3047.5249  0.0018347001629433
             457.36951    0.01403730124668
             103.94869   0.068842606114048
             29.210155    0.23218442062076
              9.286663    0.46794134155879
              3.163927    0.36231203217765
 s    3 1.00
             7.8682724   -0.11933240861517
             1.8812885   -0.16085421161283
             0.5442493     1.1434564825515
 s    1 1.00
             0.1687144                   1
 p    3 1.00
             7.8682724   0.068999095584993
             1.8812885    0.31642397975315
             0.5442493    0.74430825237435
 p    1 1.00
             0.1687144                   1
 d    1 1.00
                   0.8                   1

2 0
 s    3 1.00
             18.731137    0.03349459952309
             2.8253937    0.23472694665786
             0.6401217    0.81375731841339
 s    1 1.00
             0.1612778                   1

3 0
 s    6 1.00
             3047.5249  0.0018347001629433
             457.36951    0.01403730124668
             103.94869   0.068842606114048
             29.210155    0.23218442062076
              9.286663    0.46794134155879
              3.163927    0.36231203217765
 s    3 1.00
             7.8682724   -0.11933240861517
             1.8812885   -0.16085421161283
             0.5442493     1.1434564825515
 s    1 1.00
             0.1687144                   1
 p    3 1.00
             7.8682724   0.068999095584993
             1.8812885    0.31642397975315
             0.5442493    0.74430825237435
 p    1 1.00
             0.1687144                   1
 d    1 1.00
                   0.8                   1

4 0
 s    3 1.00
             18.731137    0.03349459952309
             2.8253937    0.23472694665786
             0.6401217    0.81375731841339
 s    1 1.00
             0.1612778                   1

5 0
 s    6 1.00
             3047.5249  0.0018347001629433
             457.36951    0.01403730124668
             103.94869   0.068842606114048
             29.210155    0.23218442062076
              9.286663    0.46794134155879
              3.163927    0.36231203217765
 s    3 1.00
             7.8682724   -0.11933240861517
             1.8812885   -0.16085421161283
             0.5442493     1.1434564825515
 s    1 1.00
             0.1687144                   1
 p    3 1.00
             7.8682724   0.068999095584993
             1.8812885    0.31642397975315
             0.5442493    0.74430825237435
 p    1 1.00
             0.1687144                   1
 d    1 1.00
                   0.8                   1

6 0
 s    3 1.00
             18.731137    0.03349459952309
             2.8253937    0.23472694665786
             0.6401217    0.81375731841339
 s    1 1.00
             0.1612778                   1

7 0
 s    6 1.00
             3047.5249  0.0018347001629433
             457.36951    0.01403730124668
             103.94869   0.068842606114048
             29.210155    0.23218442062076
              9.286663    0.46794134155879
              3.163927    0.36231203217765
 s    3 1.00
             7.8682724   -0.11933240861517
             1.8812885   -0.16085421161283
             0.5442493     1.1434564825515
 s    1 1.00
             0.1687144                   1
 p    3 1.00
             7.8682724   0.068999095584993
             1.8812885    0.31642397975315
             0.5442493    0.74430825237435
 p    1 1.00
             0.1687144                   1
 d    1 1.00
                   0.8                   1

8 0
 s    3 1.00
             18.731137    0.03349459952309
             2.8253937    0.23472694665786
             0.6401217    0.81375731841339
 s    1 1.00
             0.1612778                   1

9 0
 s    3 1.00
             18.731137    0.03349459952309
             2.8253937    0.23472694665786
             0.6401217    0.81375731841339
 s    1 1.00
             0.1612778                   1

10 0
 s    6 1.00
             3047.5249  0.0018347001629433
             457.36951    0.01403730124668
             103.94869   0.068842606114048
             29.210155    0.23218442062076
              9.286663    0.46794134155879
              3.163927    0.36231203217765
 s    3 1.00
             7.8682724   -0.11933240861517
             1.8812885   -0.16085421161283
             0.5442493     1.1434564825515
 s    1 1.00
             0.1687144                   1
 p    3 1.00
             7.8682724   0.068999095584993
             1.8812885    0.31642397975315
             0.5442493    0.74430825237435
 p    1 1.00
             0.1687144                   1
 d    1 1.00
                   0.8                   1

11 0
 s    3 1.00
             18.731137    0.03349459952309
             2.8253937    0.23472694665786
             0.6401217    0.81375731841339
 s    1 1.00
             0.1612778                   1

12 0
 s    6 1.00
             3047.5249  0.0018347001629433
             457.36951    0.01403730124668
             103.94869   0.068842606114048
             29.210155    0.23218442062076
              9.286663    0.46794134155879
              3.163927    0.36231203217765
 s    3 1.00
             7.8682724   -0.11933240861517
             1.8812885   -0.16085421161283
             0.5442493     1.1434564825515
 s    1 1.00
             0.1687144                   1
 p    3 1.00
             7.8682724   0.068999095584993
             1.8812885    0.31642397975315
             0.5442493    0.74430825237435
 p    1 1.00
             0.1687144                   1
 d    1 1.00
                   0.8                   1

13 0
 s    3 1.00
             18.731137    0.03349459952309
             2.8253937    0.23472694665786
             0.6401217    0.81375731841339
 s    1 1.00
             0.1612778                   1

14 0
 s    3 1.00
             18.731137    0.03349459952309
             2.8253937    0.23472694665786
             0.6401217    0.81375731841339
 s    1 1.00
             0.1612778                   1

15 0
 s    6 1.00
             3047.5249  0.0018347001629433
             457.36951    0.01403730124668
             103.94869   0.068842606114048
             29.210155    0.23218442062076
              9.286663    0.46794134155879
              3.163927    0.36231203217765
 s    3 1.00
             7.8682724   -0.11933240861517
             1.8812885   -0.16085421161283
             0.5442493     1.1434564825515
 s    1 1.00
             0.1687144                   1
 p    3 1.00
             7.8682724   0.068999095584993
             1.8812885    0.31642397975315
             0.5442493    0.74430825237435
 p    1 1.00
             0.1687144                   1
 d    1 1.00
                   0.8                   1

16 0
 s    6 1.00
             3047.5249  0.0018347001629433
             457.36951    0.01403730124668
             103.94869   0.068842606114048
             29.210155    0.23218442062076
              9.286663    0.46794134155879
              3.163927    0.36231203217765
 s    3 1.00
             7.8682724   -0.11933240861517
             1.8812885   -0.16085421161283
             0.5442493     1.1434564825515
 s    1 1.00
             0.1687144                   1
 p    3 1.00
             7.8682724   0.068999095584993
             1.8812885    0.31642397975315
             0.5442493    0.74430825237435
 p    1 1.00
             0.1687144                   1
 d    1 1.00
                   0.8                   1

17 0
 s    6 1.00
             3047.5249  0.0018347001629433
             457.36951    0.01403730124668
             103.94869   0.068842606114048
             29.210155    0.23218442062076
              9.286663    0.46794134155879
              3.163927    0.36231203217765
 s    3 1.00
             7.8682724   -0.11933240861517
             1.8812885   -0.16085421161283
             0.5442493     1.1434564825515
 s    1 1.00
             0.1687144                   1
 p    3 1.00
             7.8682724   0.068999095584993
             1.8812885    0.31642397975315
             0.5442493    0.74430825237435
 p    1 1.00
             0.1687144                   1
 d    1 1.00
                   0.8                   1

18 0
 s    6 1.00
             3047.5249  0.0018347001629433
             457.36951    0.01403730124668
             103.94869   0.068842606114048
             29.210155    0.23218442062076
              9.286663    0.46794134155879
              3.163927    0.36231203217765
 s    3 1.00
             7.8682724   -0.11933240861517
             1.8812885   -0.16085421161283
             0.5442493     1.1434564825515
 s    1 1.00
             0.1687144                   1
 p    3 1.00
             7.8682724   0.068999095584993
             1.8812885    0.31642397975315
             0.5442493    0.74430825237435
 p    1 1.00
             0.1687144                   1
 d    1 1.00
                   0.8                   1

19 0
 s    6 1.00
             3047.5249  0.0018347001629433
             457.36951    0.01403730124668
             103.94869   0.068842606114048
             29.210155    0.23218442062076
              9.286663    0.46794134155879
              3.163927    0.36231203217765
 s    3 1.00
             7.8682724   -0.11933240861517
             1.8812885   -0.16085421161283
             0.5442493     1.1434564825515
 s    1 1.00
             0.1687144                   1
 p    3 1.00
             7.8682724   0.068999095584993
             1.8812885    0.31642397975315
             0.5442493    0.74430825237435
 p    1 1.00
             0.1687144                   1
 d    1 1.00
                   0.8                   1

20 0
 s    6 1.00
             3047.5249  0.0018347001629433
             457.36951    0.01403730124668
             103.94869   0.068842606114048
             29.210155    0.23218442062076
              9.286663    0.46794134155879
              3.163927    0.36231203217765
 s    3 1.00
             7.8682724   -0.11933240861517
             1.8812885   -0.16085421161283
             0.5442493     1.1434564825515
 s    1 1.00
             0.1687144                   1
 p    3 1.00
             7.8682724   0.068999095584993
             1.8812885    0.31642397975315
             0.5442493    0.74430825237435
 p    1 1.00
             0.1687144                   1
 d    1 1.00
                   0.8                   1

21 0
 s    6 1.00
             3047.5249  0.0018347001629433
             457.36951    0.01403730124668
             103.94869   0.068842606114048
             29.210155    0.23218442062076
              9.286663    0.46794134155879
              3.163927    0.36231203217765
 s    3 1.00
             7.8682724   -0.11933240861517
             1.8812885   -0.16085421161283
             0.5442493     1.1434564825515
 s    1 1.00
             0.1687144                   1
 p    3 1.00
             7.8682724   0.068999095584993
             1.8812885    0.31642397975315
             0.5442493    0.74430825237435
 p    1 1.00
             0.1687144                   1
 d    1 1.00
                   0.8                   1

22 0
 s    3 1.00
             18.731137    0.03349459952309
             2.8253937    0.23472694665786
             0.6401217    0.81375731841339
 s    1 1.00
             0.1612778                   1

23 0
 s    3 1.00
             18.731137    0.03349459952309
             2.8253937    0.23472694665786
             0.6401217    0.81375731841339
 s    1 1.00
             0.1612778                   1

24 0
 s    3 1.00
             18.731137    0.03349459952309
             2.8253937    0.23472694665786
             0.6401217    0.81375731841339
 s    1 1.00
             0.1612778                   1

25 0
 s    3 1.00
             18.731137    0.03349459952309
             2.8253937    0.23472694665786
             0.6401217    0.81375731841339
 s    1 1.00
             0.1612778                   1

26 0
 s    3 1.00
             18.731137    0.03349459952309
             2.8253937    0.23472694665786
             0.6401217    0.81375731841339
 s    1 1.00
             0.1612778                   1

27 0
 s    3 1.00
             18.731137    0.03349459952309
             2.8253937    0.23472694665786
             0.6401217    0.81375731841339
 s    1 1.00
             0.1612778                   1

28 0
 s    3 1.00
             18.731137    0.03349459952309
             2.8253937    0.23472694665786
             0.6401217    0.81375731841339
 s    1 1.00
             0.1612778                   1

29 0
 s    3 1.00
             18.731137    0.03349459952309
             2.8253937    0.23472694665786
             0.6401217    0.81375731841339
 s    1 1.00
             0.1612778                   1

30 0
 s    3 1.00
             18.731137    0.03349459952309
             2.8253937    0.23472694665786
             0.6401217    0.81375731841339
 s    1 1.00
             0.1612778                   1

31 0
 s    3 1.00
             18.731137    0.03349459952309
             2.8253937    0.23472694665786
             0.6401217    0.81375731841339
 s    1 1.00
             0.1612778                   1

32 0
 s    3 1.00
             18.731137    0.03349459952309
             2.8253937    0.23472694665786
             0.6401217    0.81375731841339
 s    1 1.00
             0.1612778                   1

33 0
 s    6 1.00
             3047.5249  0.0018347001629433
             457.36951    0.01403730124668
             103.94869   0.068842606114048
             29.210155    0.23218442062076
              9.286663    0.46794134155879
              3.163927    0.36231203217765
 s    3 1.00
             7.8682724   -0.11933240861517
             1.8812885   -0.16085421161283
             0.5442493     1.1434564825515
 s    1 1.00
             0.1687144                   1
 p    3 1.00
             7.8682724   0.068999095584993
             1.8812885    0.31642397975315
             0.5442493    0.74430825237435
 p    1 1.00
             0.1687144                   1
 d    1 1.00
                   0.8                   1

34 0
 s    6 1.00
             3047.5249  0.0018347001629433
             457.36951    0.01403730124668
             103.94869   0.068842606114048
             29.210155    0.23218442062076
              9.286663    0.46794134155879
              3.163927    0.36231203217765
 s    3 1.00
             7.8682724   -0.11933240861517
             1.8812885   -0.16085421161283
             0.5442493     1.1434564825515
 s    1 1.00
             0.1687144                   1
 p    3 1.00
             7.8682724   0.068999095584993
             1.8812885    0.31642397975315
             0.5442493    0.74430825237435
 p    1 1.00
             0.1687144                   1
 d    1 1.00
                   0.8                   1

35 0
 s    3 1.00
             18.731137    0.03349459952309
             2.8253937    0.23472694665786
             0.6401217    0.81375731841339
 s    1 1.00
             0.1612778                   1

36 0
 s    6 1.00
             3047.5249  0.0018347001629433
             457.36951    0.01403730124668
             103.94869   0.068842606114048
             29.210155    0.23218442062076
              9.286663    0.46794134155879
              3.163927    0.36231203217765
 s    3 1.00
             7.8682724   -0.11933240861517
             1.8812885   -0.16085421161283
             0.5442493     1.1434564825515
 s    1 1.00
             0.1687144                   1
 p    3 1.00
             7.8682724   0.068999095584993
             1.8812885    0.31642397975315
             0.5442493    0.74430825237435
 p    1 1.00
             0.1687144                   1
 d    1 1.00
                   0.8                   1

37 0
 s    3 1.00
             18.731137    0.03349459952309
             2.8253937    0.23472694665786
             0.6401217    0.81375731841339
 s    1 1.00
             0.1612778                   1

38 0
 s    3 1.00
             18.731137    0.03349459952309
             2.8253937    0.23472694665786
             0.6401217    0.81375731841339
 s    1 1.00
             0.1612778                   1

39 0
 s    6 1.00
             3047.5249  0.0018347001629433
             457.36951    0.01403730124668
             103.94869   0.068842606114048
             29.210155    0.23218442062076
              9.286663    0.46794134155879
              3.163927    0.36231203217765
 s    3 1.00
             7.8682724   -0.11933240861517
             1.8812885   -0.16085421161283
             0.5442493     1.1434564825515
 s    1 1.00
             0.1687144                   1
 p    3 1.00
             7.8682724   0.068999095584993
             1.8812885    0.31642397975315
             0.5442493    0.74430825237435
 p    1 1.00
             0.1687144                   1
 d    1 1.00
                   0.8                   1

40 0
 s    6 1.00
             3047.5249  0.0018347001629433
             457.36951    0.01403730124668
             103.94869   0.068842606114048
             29.210155    0.23218442062076
              9.286663    0.46794134155879
              3.163927    0.36231203217765
 s    3 1.00
             7.8682724   -0.11933240861517
             1.8812885   -0.16085421161283
             0.5442493     1.1434564825515
 s    1 1.00
             0.1687144                   1
 p    3 1.00
             7.8682724   0.068999095584993
             1.8812885    0.31642397975315
             0.5442493    0.74430825237435
 p    1 1.00
             0.1687144                   1
 d    1 1.00
                   0.8                   1

41 0
 s    3 1.00
             18.731137    0.03349459952309
             2.8253937    0.23472694665786
             0.6401217    0.81375731841339
 s    1 1.00
             0.1612778                   1

42 0
 s    6 1.00
             5484.6717   0.001831099805527
             825.23495   0.013950098518422
             188.04696    0.06844509273075
               52.9645    0.23271427528445
              16.89757    0.47019295006289
             5.7996353    0.35852086192309
 s    3 1.00
             15.539616   -0.11077750382508
             3.5999336   -0.14802630511126
             1.0137618     1.1307670390447
 s    1 1.00
             0.2700058                   1
 p    3 1.00
             15.539616   0.070874299543311
             3.5999336    0.33975279781076
             1.0137618    0.72715859531445
 p    1 1.00
             0.2700058                   1
 d    1 1.00
                   0.8                   1

43 0
 s    3 1.00
             18.731137    0.03349459952309
             2.8253937    0.23472694665786
             0.6401217    0.81375731841339
 s    1 1.00
             0.1612778                   1

[5d]
[7f]
[9g]

[MO]
 Sym= A
 Ene=               0
 Spin= Alpha
 Occup=    1.00000
   1     0.002537104118091
   2       0.2960706522306
   3      0.19833958316915
   4    -0.075729931663593
   5    -0.049601326298217
   6      0.14580950533499
   7     0.011197810489143
   8    -0.007072881625912
   9     0.050334328583967
  10    0.0039355840746251
  11    -0.0051134640721123
  12    -0.0046922779849501
  13    0.0072916001593352
  14    0.0058487592006321
  15     0.065253550301256
  16    -0.0036966381165899
  17    -0.0085374400555245
  18     0.045179846121337
  19     0.020974035348078
  20    -0.0064493219324288
  21    -0.012204318498858
  22     0.051501918517216
  23    -0.012048241882242
  24    -0.0080699064330531
  25     0.027770221487428
  26    0.0062750932681626
  27    0.0022899322349529
  28    -0.0019187881589021
  29    0.00086899398933143
  30    0.00018833560577439
  31     0.012458018891972
  32    -0.0003599358740303
  33    0.00078685860699436
  34    -0.00016038219371554
  35     0.021428210159774
  36    0.0019339439494584
  37    0.0010506241445219
  38    -0.0076073592991589
  39    -0.0063555891116281
  40    -0.0067842346911842
  41    0.00054465232900647
  42    0.00014242668347908
  43    -0.00085777218167479
  44    0.00032481514323294
  45    -4.6325512956517e-05
  46    -2.8377682113544e-05
  47    0.0015885596715152
  48    0.0033981244809338
  49    -0.00033163826064555
  50      0.02658658045357
  51      0.01382079938998
  52     0.008099604051483
  53    0.0012861389719364
  54    -0.013181432714444
  55     0.005600570739905
  56    -0.0034880958667436
  57    -0.0072413917135669
  58    0.00010177747052504
  59    -0.00068067663863793
  60    -0.00047131719409207
  61    -0.00046171887185566
  62    0.00040609188084863
  63    0.0067007311406738
  64    0.0011412015101309
  65    2.8118787307464e-05
  66    -2.694417909339e-05
  67    1.3303814118654e-05
  68    4.4641066543674e-05
  69    -0.00044160707788209
  70    1.0485204635088e-06
  71    -2.3754637043873e-05
  72    -3.6046027715893e-06
  73    0.00027910856681416
  74    0.00035115003358231
  75    0.00029233473431227
  76    2.8917063649747e-05
  77    1.0524890186271e-05
  78    -9.6837343963752e-06
  79    -9.3707074923369e-06
  80    8.7278232609945e-06
  81    4.9208046897072e-06
  82    0.00032550181744785
  83    -2.8587783257326e-05
  84    0.00014869935205764
  85    0.0013338566001451
  86    -0.00020096878830823
  87    6.9350249682853e-05
  88    -0.00030992029068928
  89    -0.00048146937226685
  90    -0.00041577526669648
  91    -0.00056599641070868
  92    -4.2280117768593e-06
  93    2.3461889747352e-05
  94    -1.7442602398987e-05
  95    -6.3180164257284e-06
  96    -1.3104137412208e-05
  97    -8.8990952497242e-05
  98    1.8417244960054e-05
  99    -4.0312645116016e-05
 100    -9.6768169566084e-05
 101    9.6937509822248e-05
 102    -8.052191005786e-05
 103    -0.0013887343557746
 104    0.00010558568766841
 105    0.00028849438127597
 106    0.00041088579647615
 107    0.0028096090208395
 108    -0.00063175189438782
 109    -0.003275990795219
 110    3.8530152767357e-05
 111    8.6578541233194e-05
 112    -2.7061684063552e-05
 113    -6.3663632467564e-05
 114    2.747143364873e-05
 115    8.5538011192196e-05
 116    -0.00022557025797263
 117    -0.0022097408926996
 118    0.00011243102776055
 119    -0.0003940057410423
 120    7.0408291910028e-05
 121    0.00044033418377721
 122    -0.00014313919094968
 123    -0.0015372323548056
 124    1.4664731259852e-05
 125    5.2610101711239e-05
 126    -5.1064195835725e-05
 127    -9.885118784975e-06
 128    8.9372340968315e-06
 129    2.3328415216592e-05
 130    0.00066732175562148
 131    -0.012111722624572
 132    -0.00017005931535534
 133    -6.134598066619e-05
 134    -0.00057842226880499
 135    0.0017774500034582
 136    -0.0013348987118648
 137     0.013043994935657
 138    -0.00039085183281807
 139    7.8318944197116e-05
 140    0.00015359624050339
 141    6.6080204893895e-05
 142    9.5540786245022e-05
 143    4.7277521833712e-05
 144    -6.879679151328e-06
 145    -0.0021019927909874
 146     0.000123494199934
 147    0.00010352064868719
 148    0.00033566122110715
 149    -0.0027515127806504
 150    0.0017405823453629
 151    -0.0022449487230113
 152    8.635775037288e-05
 153    -3.3714331546804e-05
 154    -4.2695900978432e-05
 155    -5.5459734602032e-05
 156    5.429691767424e-05
 157    1.1399853627654e-05
 158    0.00020114782531523
 159    -0.0016218756996027
 160    4.3637181284486e-05
 161    4.4325939140313e-07
 162    -0.00010525251930974
 163    -1.478474094101e-05
 164    0.0010261214310562
 165    0.00026026966517728
 166    2.2094604156553e-05
 167    8.4435193688199e-07
 168    1.0486765382767e-06
 169    5.526184254173e-05
 170    -7.4856266333607e-06
 171    1.2852724593981e-05
 172    -0.00024776691527683
 173    0.0003576416431953
 174    -1.6305952970841e-05
 175    9.7411758755213e-06
 176    0.00032672467361329
 177    0.00043802454158932
 178    -0.00077547740409245
 179    -8.2099687952688e-05
 180    3.883738331241e-06
 181    5.2802944844224e-05
 182    1.9239162100915e-05
 183    3.4718581663533e-05
 184    -8.1822492827914e-06
 185    -6.1989292345132e-06
 186    6.876945112786e-06
 187    0.0017927883708528
 188    2.0646003453463e-05
 189    -4.96455741863e-05
 190    -0.00022510159340343
 191    -0.00094211497484055
 192    -0.00047906010008566
 193    -0.00049992092864895
 194    2.5586384520312e-05
 195    3.5591897795076e-05
 196    2.9040736268215e-05
 197    -5.5229348349111e-06
 198    2.1068602642681e-05
 199    -2.1411050687755e-05
 200    0.00031720180012606
 201    -7.649709435778e-05
 202    -0.00037968589302849
 203    0.00024904376882747
 204    0.00087289914477017
 205    -0.0002412044732256
 206    -0.00022321939742769
 207    0.00016643262020047
 208    -0.00084072337707314
 209    0.00013686800571381
 210    0.00021991783184077
 211    4.5812558177095e-05
 212    -9.6508170833246e-05
 213    -2.0862664657437e-05
 214    -0.00029928799614265
 215    -6.213429031629e-05
 216    -0.00066443563089501
 217    7.8215131597273e-05
 218    0.00048322254629611
 219    -8.2866193511817e-06
 220    -0.00050427532778151
 221     0.001168680049989
 222    -0.0028300314631845
 223     0.025160746661449
 224    -0.0012985969200702
 225    -0.0017396575378476
 226    0.0028026633834462
 227      0.01772643821338
 228    0.0015509148875221
 229    0.0089014194201339
 230    0.00017871148062899
 231    -0.00016257620729448
 232    -0.00017012787312044
 233    0.00018612632593228
 234    0.00017670461244999
 235    -0.0081224360227828
 236     0.042359418204231
 237     0.019860925806703
 238    0.0069652165527164
 239     0.011515865145328
 240    -0.047767904115592
 241    0.0077227838151615
 242    0.0083643222758833
 243    -0.030869855128894
 244    0.0063320130862455
 245    0.0019604290300327
 246    -0.0019861720348186
 247    0.00090058406568012
 248    0.00020919310231293
 249    0.00087681370771208
 250    0.0087644204567252
 251    0.0011988132126471
 252      0.29387690217881
 253      0.18736027059185
 254      0.07838025861712
 255     0.050739401607365
 256     -0.14763618319896
 257    -0.013036143303856
 258    0.0068920366430848
 259    -0.047461144600599
 260    0.0037084135564707
 261    -0.0052381297057442
 262    -0.0042656462374938
 263     0.007435121045632
 264    0.0053658060662425
 265     0.011693197213935
 266    0.0016920038379743
 267     0.063233907376831
 268    -0.0049916192430285
 269    0.0011109910238008
 270     0.027780924190713
 271     0.015221740567807
 272    -0.0072870032679545
 273    -0.004253536530882
 274     0.010810910253945
 275    -0.0021105673780952
 276    0.0043402415710155
 277    0.0031014488902054
 278    0.00027637079624947
 279    -0.00084653048527797
 280    -0.00042293490075354
 281    -0.00047941592114878
 282    0.00035614044451674
 283    -0.0012998194208375
 284    0.0060532734707243