[Molden Format]
made by pyscf v[2.0.1]
[Atoms] (AU)
C   1   6     0.69100024066471     0.64692934207205    -3.48223131169301
H   2   1     2.68052439830868     1.13355088658700    -3.25784032593313
C   3   6    -0.36286361513219     0.85440132524594    -5.97030179418974
H   4   1    -2.35448549047279     0.36322488579172    -6.17995817793143
C   5   6     0.93697958957450     1.61209284601821    -8.05828437677121
H   6   1     0.96138501035509     3.61074187827952    -8.55401536893531
C   7   6     2.29833572157337    -0.09037665740906    -9.67215882917863
H   8   1     2.25763405404964    -2.08692321364337    -9.15074973557782
H   9   1     1.55630230933075    -1.92953025305990    12.99630010416247
C   10   6     0.75233899775814    -2.21270439606481    11.10705728102219
H   11   1    -0.43433408177274    -3.90944857546550    11.22216085340412
C   12   6     2.86362581178706    -2.63237380607947     9.17926416456045
H   13   1     4.39038949912609    -1.24955421540245     9.49899813497433
H   14   1     3.74629220191363    -4.48798724300892     9.47414880959024
C   15   6     2.02478325613682    -2.42177285709634     6.44560829588644
C   16   6     3.88048732735477    -3.58795445234514     4.61402886975252
C   17   6    -0.18412382258602    -1.30464291234259     5.76021113872346
C   18   6    -2.10044360464350    -0.26837831858460     7.71610340967100
C   19   6    -3.08956938670431     2.35282328359417     6.88693925039594
C   20   6    -4.37372924086464    -2.09766595989678     7.93610724222001
C   21   6    -0.83850430601230     0.06372213486173    10.33002307638377
H   22   1     0.38411922151109     1.74281358582432    10.27380136542181
H   23   1    -2.30980003007874     0.45460143924521    11.73986301809809
H   24   1     4.58527064644668    -5.38706904487420     5.36778158031719
H   25   1     5.54944938085014    -2.37631462192748     4.35398898413318
H   26   1     3.06633019150423    -3.94118377050688     2.75255466040884
H   27   1    -4.17727778763735     2.26573369139522     5.12914900961283
H   28   1    -1.52662344944051     3.68001877445626     6.59540397144508
H   29   1    -4.32916174397830     3.13643051467482     8.35225460090378
H   30   1    -5.32329548508442    -2.36691813602939     6.11583672749896
H   31   1    -5.77989366602257    -1.33896741843465     9.25748940450990
H   32   1    -3.79310905208926    -3.96389819310853     8.61386170102686
C   33   6    -1.01100794811226    -1.06331657314144     3.11929490449947
C   34   6     0.37686231036534    -0.33275864505552     1.09165013605873
H   35   1    -3.01671213906703    -1.40297922279997     2.77827895090944
C   36   6    -0.64382707979370    -0.11591880174385    -1.42063131251064
H   37   1     2.35569259782137     0.17174499283897     1.33641070251401
H   38   1    -2.63317482980319    -0.60229203511219    -1.66119700387645
C   39   6     3.61506927759443     0.57708357993929   -11.76916696671870
C   40   6     4.94068653136927    -1.30276865816170   -13.29098070185656
H   41   1     3.73162541044975     2.53269508104841   -12.39347992177894
O   42   8     6.15625203764207    -0.83635548426311   -15.19510343410387
H   43   1     4.77073908343657    -3.27989237609552   -12.58226454806003
[GTO]
1 0
 s    6 1.00
             3047.5249  0.0018347001629433
             457.36951    0.01403730124668
             103.94869   0.068842606114048
             29.210155    0.23218442062076
              9.286663    0.46794134155879
              3.163927    0.36231203217765
 s    3 1.00
             7.8682724   -0.11933240861517
             1.8812885   -0.16085421161283
             0.5442493     1.1434564825515
 s    1 1.00
             0.1687144                   1
 p    3 1.00
             7.8682724   0.068999095584993
             1.8812885    0.31642397975315
             0.5442493    0.74430825237435
 p    1 1.00
             0.1687144                   1
 d    1 1.00
                   0.8                   1

2 0
 s    3 1.00
             18.731137    0.03349459952309
             2.8253937    0.23472694665786
             0.6401217    0.81375731841339
 s    1 1.00
             0.1612778                   1

3 0
 s    6 1.00
             3047.5249  0.0018347001629433
             457.36951    0.01403730124668
             103.94869   0.068842606114048
             29.210155    0.23218442062076
              9.286663    0.46794134155879
              3.163927    0.36231203217765
 s    3 1.00
             7.8682724   -0.11933240861517
             1.8812885   -0.16085421161283
             0.5442493     1.1434564825515
 s    1 1.00
             0.1687144                   1
 p    3 1.00
             7.8682724   0.068999095584993
             1.8812885    0.31642397975315
             0.5442493    0.74430825237435
 p    1 1.00
             0.1687144                   1
 d    1 1.00
                   0.8                   1

4 0
 s    3 1.00
             18.731137    0.03349459952309
             2.8253937    0.23472694665786
             0.6401217    0.81375731841339
 s    1 1.00
             0.1612778                   1

5 0
 s    6 1.00
             3047.5249  0.0018347001629433
             457.36951    0.01403730124668
             103.94869   0.068842606114048
             29.210155    0.23218442062076
              9.286663    0.46794134155879
              3.163927    0.36231203217765
 s    3 1.00
             7.8682724   -0.11933240861517
             1.8812885   -0.16085421161283
             0.5442493     1.1434564825515
 s    1 1.00
             0.1687144                   1
 p    3 1.00
             7.8682724   0.068999095584993
             1.8812885    0.31642397975315
             0.5442493    0.74430825237435
 p    1 1.00
             0.1687144                   1
 d    1 1.00
                   0.8                   1

6 0
 s    3 1.00
             18.731137    0.03349459952309
             2.8253937    0.23472694665786
             0.6401217    0.81375731841339
 s    1 1.00
             0.1612778                   1

7 0
 s    6 1.00
             3047.5249  0.0018347001629433
             457.36951    0.01403730124668
             103.94869   0.068842606114048
             29.210155    0.23218442062076
              9.286663    0.46794134155879
              3.163927    0.36231203217765
 s    3 1.00
             7.8682724   -0.11933240861517
             1.8812885   -0.16085421161283
             0.5442493     1.1434564825515
 s    1 1.00
             0.1687144                   1
 p    3 1.00
             7.8682724   0.068999095584993
             1.8812885    0.31642397975315
             0.5442493    0.74430825237435
 p    1 1.00
             0.1687144                   1
 d    1 1.00
                   0.8                   1

8 0
 s    3 1.00
             18.731137    0.03349459952309
             2.8253937    0.23472694665786
             0.6401217    0.81375731841339
 s    1 1.00
             0.1612778                   1

9 0
 s    3 1.00
             18.731137    0.03349459952309
             2.8253937    0.23472694665786
             0.6401217    0.81375731841339
 s    1 1.00
             0.1612778                   1

10 0
 s    6 1.00
             3047.5249  0.0018347001629433
             457.36951    0.01403730124668
             103.94869   0.068842606114048
             29.210155    0.23218442062076
              9.286663    0.46794134155879
              3.163927    0.36231203217765
 s    3 1.00
             7.8682724   -0.11933240861517
             1.8812885   -0.16085421161283
             0.5442493     1.1434564825515
 s    1 1.00
             0.1687144                   1
 p    3 1.00
             7.8682724   0.068999095584993
             1.8812885    0.31642397975315
             0.5442493    0.74430825237435
 p    1 1.00
             0.1687144                   1
 d    1 1.00
                   0.8                   1

11 0
 s    3 1.00
             18.731137    0.03349459952309
             2.8253937    0.23472694665786
             0.6401217    0.81375731841339
 s    1 1.00
             0.1612778                   1

12 0
 s    6 1.00
             3047.5249  0.0018347001629433
             457.36951    0.01403730124668
             103.94869   0.068842606114048
             29.210155    0.23218442062076
              9.286663    0.46794134155879
              3.163927    0.36231203217765
 s    3 1.00
             7.8682724   -0.11933240861517
             1.8812885   -0.16085421161283
             0.5442493     1.1434564825515
 s    1 1.00
             0.1687144                   1
 p    3 1.00
             7.8682724   0.068999095584993
             1.8812885    0.31642397975315
             0.5442493    0.74430825237435
 p    1 1.00
             0.1687144                   1
 d    1 1.00
                   0.8                   1

13 0
 s    3 1.00
             18.731137    0.03349459952309
             2.8253937    0.23472694665786
             0.6401217    0.81375731841339
 s    1 1.00
             0.1612778                   1

14 0
 s    3 1.00
             18.731137    0.03349459952309
             2.8253937    0.23472694665786
             0.6401217    0.81375731841339
 s    1 1.00
             0.1612778                   1

15 0
 s    6 1.00
             3047.5249  0.0018347001629433
             457.36951    0.01403730124668
             103.94869   0.068842606114048
             29.210155    0.23218442062076
              9.286663    0.46794134155879
              3.163927    0.36231203217765
 s    3 1.00
             7.8682724   -0.11933240861517
             1.8812885   -0.16085421161283
             0.5442493     1.1434564825515
 s    1 1.00
             0.1687144                   1
 p    3 1.00
             7.8682724   0.068999095584993
             1.8812885    0.31642397975315
             0.5442493    0.74430825237435
 p    1 1.00
             0.1687144                   1
 d    1 1.00
                   0.8                   1

16 0
 s    6 1.00
             3047.5249  0.0018347001629433
             457.36951    0.01403730124668
             103.94869   0.068842606114048
             29.210155    0.23218442062076
              9.286663    0.46794134155879
              3.163927    0.36231203217765
 s    3 1.00
             7.8682724   -0.11933240861517
             1.8812885   -0.16085421161283
             0.5442493     1.1434564825515
 s    1 1.00
             0.1687144                   1
 p    3 1.00
             7.8682724   0.068999095584993
             1.8812885    0.31642397975315
             0.5442493    0.74430825237435
 p    1 1.00
             0.1687144                   1
 d    1 1.00
                   0.8                   1

17 0
 s    6 1.00
             3047.5249  0.0018347001629433
             457.36951    0.01403730124668
             103.94869   0.068842606114048
             29.210155    0.23218442062076
              9.286663    0.46794134155879
              3.163927    0.36231203217765
 s    3 1.00
             7.8682724   -0.11933240861517
             1.8812885   -0.16085421161283
             0.5442493     1.1434564825515
 s    1 1.00
             0.1687144                   1
 p    3 1.00
             7.8682724   0.068999095584993
             1.8812885    0.31642397975315
             0.5442493    0.74430825237435
 p    1 1.00
             0.1687144                   1
 d    1 1.00
                   0.8                   1

18 0
 s    6 1.00
             3047.5249  0.0018347001629433
             457.36951    0.01403730124668
             103.94869   0.068842606114048
             29.210155    0.23218442062076
              9.286663    0.46794134155879
              3.163927    0.36231203217765
 s    3 1.00
             7.8682724   -0.11933240861517
             1.8812885   -0.16085421161283
             0.5442493     1.1434564825515
 s    1 1.00
             0.1687144                   1
 p    3 1.00
             7.8682724   0.068999095584993
             1.8812885    0.31642397975315
             0.5442493    0.74430825237435
 p    1 1.00
             0.1687144                   1
 d    1 1.00
                   0.8                   1

19 0
 s    6 1.00
             3047.5249  0.0018347001629433
             457.36951    0.01403730124668
             103.94869   0.068842606114048
             29.210155    0.23218442062076
              9.286663    0.46794134155879
              3.163927    0.36231203217765
 s    3 1.00
             7.8682724   -0.11933240861517
             1.8812885   -0.16085421161283
             0.5442493     1.1434564825515
 s    1 1.00
             0.1687144                   1
 p    3 1.00
             7.8682724   0.068999095584993
             1.8812885    0.31642397975315
             0.5442493    0.74430825237435
 p    1 1.00
             0.1687144                   1
 d    1 1.00
                   0.8                   1

20 0
 s    6 1.00
             3047.5249  0.0018347001629433
             457.36951    0.01403730124668
             103.94869   0.068842606114048
             29.210155    0.23218442062076
              9.286663    0.46794134155879
              3.163927    0.36231203217765
 s    3 1.00
             7.8682724   -0.11933240861517
             1.8812885   -0.16085421161283
             0.5442493     1.1434564825515
 s    1 1.00
             0.1687144                   1
 p    3 1.00
             7.8682724   0.068999095584993
             1.8812885    0.31642397975315
             0.5442493    0.74430825237435
 p    1 1.00
             0.1687144                   1
 d    1 1.00
                   0.8                   1

21 0
 s    6 1.00
             3047.5249  0.0018347001629433
             457.36951    0.01403730124668
             103.94869   0.068842606114048
             29.210155    0.23218442062076
              9.286663    0.46794134155879
              3.163927    0.36231203217765
 s    3 1.00
             7.8682724   -0.11933240861517
             1.8812885   -0.16085421161283
             0.5442493     1.1434564825515
 s    1 1.00
             0.1687144                   1
 p    3 1.00
             7.8682724   0.068999095584993
             1.8812885    0.31642397975315
             0.5442493    0.74430825237435
 p    1 1.00
             0.1687144                   1
 d    1 1.00
                   0.8                   1

22 0
 s    3 1.00
             18.731137    0.03349459952309
             2.8253937    0.23472694665786
             0.6401217    0.81375731841339
 s    1 1.00
             0.1612778                   1

23 0
 s    3 1.00
             18.731137    0.03349459952309
             2.8253937    0.23472694665786
             0.6401217    0.81375731841339
 s    1 1.00
             0.1612778                   1

24 0
 s    3 1.00
             18.731137    0.03349459952309
             2.8253937    0.23472694665786
             0.6401217    0.81375731841339
 s    1 1.00
             0.1612778                   1

25 0
 s    3 1.00
             18.731137    0.03349459952309
             2.8253937    0.23472694665786
             0.6401217    0.81375731841339
 s    1 1.00
             0.1612778                   1

26 0
 s    3 1.00
             18.731137    0.03349459952309
             2.8253937    0.23472694665786
             0.6401217    0.81375731841339
 s    1 1.00
             0.1612778                   1

27 0
 s    3 1.00
             18.731137    0.03349459952309
             2.8253937    0.23472694665786
             0.6401217    0.81375731841339
 s    1 1.00
             0.1612778                   1

28 0
 s    3 1.00
             18.731137    0.03349459952309
             2.8253937    0.23472694665786
             0.6401217    0.81375731841339
 s    1 1.00
             0.1612778                   1

29 0
 s    3 1.00
             18.731137    0.03349459952309
             2.8253937    0.23472694665786
             0.6401217    0.81375731841339
 s    1 1.00
             0.1612778                   1

30 0
 s    3 1.00
             18.731137    0.03349459952309
             2.8253937    0.23472694665786
             0.6401217    0.81375731841339
 s    1 1.00
             0.1612778                   1

31 0
 s    3 1.00
             18.731137    0.03349459952309
             2.8253937    0.23472694665786
             0.6401217    0.81375731841339
 s    1 1.00
             0.1612778                   1

32 0
 s    3 1.00
             18.731137    0.03349459952309
             2.8253937    0.23472694665786
             0.6401217    0.81375731841339
 s    1 1.00
             0.1612778                   1

33 0
 s    6 1.00
             3047.5249  0.0018347001629433
             457.36951    0.01403730124668
             103.94869   0.068842606114048
             29.210155    0.23218442062076
              9.286663    0.46794134155879
              3.163927    0.36231203217765
 s    3 1.00
             7.8682724   -0.11933240861517
             1.8812885   -0.16085421161283
             0.5442493     1.1434564825515
 s    1 1.00
             0.1687144                   1
 p    3 1.00
             7.8682724   0.068999095584993
             1.8812885    0.31642397975315
             0.5442493    0.74430825237435
 p    1 1.00
             0.1687144                   1
 d    1 1.00
                   0.8                   1

34 0
 s    6 1.00
             3047.5249  0.0018347001629433
             457.36951    0.01403730124668
             103.94869   0.068842606114048
             29.210155    0.23218442062076
              9.286663    0.46794134155879
              3.163927    0.36231203217765
 s    3 1.00
             7.8682724   -0.11933240861517
             1.8812885   -0.16085421161283
             0.5442493     1.1434564825515
 s    1 1.00
             0.1687144                   1
 p    3 1.00
             7.8682724   0.068999095584993
             1.8812885    0.31642397975315
             0.5442493    0.74430825237435
 p    1 1.00
             0.1687144                   1
 d    1 1.00
                   0.8                   1

35 0
 s    3 1.00
             18.731137    0.03349459952309
             2.8253937    0.23472694665786
             0.6401217    0.81375731841339
 s    1 1.00
             0.1612778                   1

36 0
 s    6 1.00
             3047.5249  0.0018347001629433
             457.36951    0.01403730124668
             103.94869   0.068842606114048
             29.210155    0.23218442062076
              9.286663    0.46794134155879
              3.163927    0.36231203217765
 s    3 1.00
             7.8682724   -0.11933240861517
             1.8812885   -0.16085421161283
             0.5442493     1.1434564825515
 s    1 1.00
             0.1687144                   1
 p    3 1.00
             7.8682724   0.068999095584993
             1.8812885    0.31642397975315
             0.5442493    0.74430825237435
 p    1 1.00
             0.1687144                   1
 d    1 1.00
                   0.8                   1

37 0
 s    3 1.00
             18.731137    0.03349459952309
             2.8253937    0.23472694665786
             0.6401217    0.81375731841339
 s    1 1.00
             0.1612778                   1

38 0
 s    3 1.00
             18.731137    0.03349459952309
             2.8253937    0.23472694665786
             0.6401217    0.81375731841339
 s    1 1.00
             0.1612778                   1

39 0
 s    6 1.00
             3047.5249  0.0018347001629433
             457.36951    0.01403730124668
             103.94869   0.068842606114048
             29.210155    0.23218442062076
              9.286663    0.46794134155879
              3.163927    0.36231203217765
 s    3 1.00
             7.8682724   -0.11933240861517
             1.8812885   -0.16085421161283
             0.5442493     1.1434564825515
 s    1 1.00
             0.1687144                   1
 p    3 1.00
             7.8682724   0.068999095584993
             1.8812885    0.31642397975315
             0.5442493    0.74430825237435
 p    1 1.00
             0.1687144                   1
 d    1 1.00
                   0.8                   1

40 0
 s    6 1.00
             3047.5249  0.0018347001629433
             457.36951    0.01403730124668
             103.94869   0.068842606114048
             29.210155    0.23218442062076
              9.286663    0.46794134155879
              3.163927    0.36231203217765
 s    3 1.00
             7.8682724   -0.11933240861517
             1.8812885   -0.16085421161283
             0.5442493     1.1434564825515
 s    1 1.00
             0.1687144                   1
 p    3 1.00
             7.8682724   0.068999095584993
             1.8812885    0.31642397975315
             0.5442493    0.74430825237435
 p    1 1.00
             0.1687144                   1
 d    1 1.00
                   0.8                   1

41 0
 s    3 1.00
             18.731137    0.03349459952309
             2.8253937    0.23472694665786
             0.6401217    0.81375731841339
 s    1 1.00
             0.1612778                   1

42 0
 s    6 1.00
             5484.6717   0.001831099805527
             825.23495   0.013950098518422
             188.04696    0.06844509273075
               52.9645    0.23271427528445
              16.89757    0.47019295006289
             5.7996353    0.35852086192309
 s    3 1.00
             15.539616   -0.11077750382508
             3.5999336   -0.14802630511126
             1.0137618     1.1307670390447
 s    1 1.00
             0.2700058                   1
 p    3 1.00
             15.539616   0.070874299543311
             3.5999336    0.33975279781076
             1.0137618    0.72715859531445
 p    1 1.00
             0.2700058                   1
 d    1 1.00
                   0.8                   1

43 0
 s    3 1.00
             18.731137    0.03349459952309
             2.8253937    0.23472694665786
             0.6401217    0.81375731841339
 s    1 1.00
             0.1612778                   1

[5d]
[7f]
[9g]

[MO]
 Sym= A
 Ene=               0
 Spin= Alpha
 Occup=    1.00000
   1      0.01674673525465
   2    -0.0011458972627353
   3    0.0077471808175673
   4    0.00043766491449875
   5    -0.00015762101199698
   6    0.0013391200403582
   7    0.00089012213231145
   8    0.0014257755772459
   9    -0.0061022971313555
  10    -0.00099408900872455
  11    -0.00096063809698646
  12    0.00015655521860411
  13    -0.00021658297768122
  14    5.2458662091886e-05
  15    -0.00053912487834561
  16    -0.0010010312655475
  17       0.9947208634718
  18     0.039364012598717
  19    -0.031500509651434
  20    0.0010546244177436
  21    0.00020274627992652
  22    -0.00065377030354715
  23    -0.0040680961494212
  24    -0.0012232978008506
  25    -0.00085075657582893
  26    0.0008044230394758
  27    -0.00032748131408306
  28    -0.00035068253962074
  29    0.00027597876965244
  30    0.00020518290571626
  31    -0.0013039630983285
  32    0.0041911911986905
  33     0.012109104529178
  34    -0.00041868889760841
  35    0.0012605562160768
  36    0.00096187217851579
  37    0.00037746605529036
  38    -0.0013016951987056
  39    -0.0027257622963755
  40    0.0037875639743634
  41    0.0044614637289256
  42    -0.00067455200380397
  43    0.0013287529479471
  44    0.00053084070226349
  45    -0.0003899769201669
  46    -0.00041973773552785
  47    -0.00060840659054774
  48    -0.00063719883112243
  49    -0.00034445384720413
  50    -0.00059756589677555
  51    0.00022213030229172
  52    0.00029341364567806
  53    2.8267934209735e-05
  54    -0.00043254340230728
  55    -0.0054572270892598
  56    0.0011827124346103
  57    0.0075814939601766
  58    -0.00017459180680776
  59    -1.3176894690141e-05
  60    0.00016193080175686
  61    -0.00025519721160295
  62    -0.00022582342879655
  63    -0.00052212928584231
  64    0.00027463248729773
  65    -2.8618869440119e-06
  66    -4.2963046226629e-06
  67    -6.7082224463588e-08
  68    -1.5238767810225e-06
  69    6.7007024621458e-06
  70    2.100361366749e-06
  71    -4.9156498603655e-06
  72    -1.6160839424968e-08
  73    1.432649026639e-05
  74    2.7952819722458e-05
  75    1.0067092381801e-05
  76    -1.1317426432565e-07
  77    -3.1269155042217e-07
  78    3.3562360770585e-07
  79    6.2823867422898e-07
  80    3.3608069096187e-09
  81    2.7775805449251e-06
  82    1.4336867496738e-05
  83    2.4187572204325e-07
  84    1.4957789023208e-06
  85    -7.1931152973926e-05
  86    4.3930069725419e-06
  87    3.7232852434926e-06
  88    5.5477704109774e-06
  89    2.5880813039258e-05
  90    -6.992183698989e-05
  91    8.145966451969e-06
  92    1.7249175250321e-06
  93    -2.9049164742491e-06
  94    4.1769613149281e-06
  95    -7.9112495141771e-07
  96    -1.0945398460545e-06
  97    8.1344944925748e-06
  98    1.4070649338441e-05
  99    -3.9244751682645e-06
 100    -2.1228576645121e-05
 101    -1.2549590794169e-06
 102    -1.2276333478256e-05
 103    0.00024993761858081
 104    -3.1407684847717e-06
 105    -1.0300000381548e-05
 106    -3.7308659123863e-06
 107    -0.00020628607289764
 108    0.00019871223432578
 109    0.00014789008878252
 110    -6.4903812335861e-06
 111    -7.2256433480795e-08
 112    1.9008203405284e-08
 113    1.4183824020793e-06
 114    -5.8026704341484e-06
 115    -3.6911787375827e-06
 116    -3.4980948614355e-05
 117    0.00025548244669946
 118    -2.5661733300895e-06
 119    3.5241299052132e-06
 120    5.0207020687871e-06
 121    -5.3059518034843e-05
 122    1.2489609163813e-05
 123    3.1649599082387e-05
 124    1.691966590912e-06
 125    -3.2283314843946e-06
 126    -2.6453824743132e-06
 127    8.3116852030105e-07
 128    -2.2904788408018e-06
 129    -5.7955427125996e-06
 130    -5.6273350965947e-05
 131    0.00015692667256857
 132    6.1885253932111e-06
 133    -6.0639372313905e-06
 134    2.3556466659365e-05
 135    -0.00037822173391376
 136    3.9493266292674e-05
 137    -0.0004332334777683
 138    9.683388976501e-06
 139    1.4420082728427e-05
 140    6.1011317202292e-06
 141    4.8000165972609e-06
 142    7.3939270924734e-06
 143    -2.1968998518292e-06
 144    -2.934845254143e-05
 145    3.0491062759591e-05
 146    2.3395211702893e-06
 147    6.3614450327918e-06
 148     1.43504056382e-05
 149    1.4648476781697e-05
 150    2.9258352036193e-06
 151    -7.0846544313853e-05
 152    -7.3330046337501e-06
 153    -4.2140607404263e-06
 154    -3.4124828271135e-06
 155    4.4478538204803e-06
 156    -4.3861231085093e-06
 157    1.7570540047263e-06
 158    1.4075336055169e-05
 159    -4.2459389685799e-05
 160    6.4973176030512e-06
 161    -1.5719046522539e-07
 162    -1.5478632470755e-06
 163    -5.3781017455222e-05
 164    2.7260269932596e-05
 165    1.2263787419316e-05
 166    4.7772791472643e-06
 167    -8.0701509667203e-07
 168    -2.4316356302543e-07
 169    9.7299706288115e-07
 170    2.0900256807825e-06
 171    -5.4551070396698e-07
 172    -1.3519818813021e-05
 173    2.5260828664433e-05
 174    -4.5998932529982e-06
 175    -2.9077130417781e-07
 176    1.1703859375737e-05
 177    -3.4571318347372e-07
 178    -1.9756898826003e-06
 179    -2.8759937127912e-05
 180    1.6926603520497e-06
 181    5.2491330128139e-06
 182    9.3459737071508e-07
 183    -1.2229193152227e-06
 184    1.806812332236e-06
 185    -3.6563174249868e-06
 186    -3.1378748450395e-05
 187    9.2902528971661e-05
 188    -2.6262235295799e-06
 189    6.9409839148984e-07
 190    5.0426951172574e-06
 191    -3.689077288763e-06
 192    -1.5148110836612e-05
 193    -7.8037136943207e-05
 194    3.5278506201155e-06
 195    1.9122693054414e-06
 196    3.0013276511492e-06
 197    -3.7769911079351e-07
 198    4.8779901874715e-07
 199    -8.1841097784363e-06
 200    4.3963196258065e-07
 201    -2.739368006935e-06
 202    2.116915661322e-05
 203    -1.2695909600577e-05
 204    -6.8919452901376e-06
 205    1.8261645860517e-08
 206    -2.8999956522688e-05
 207     1.04862995177e-05
 208    -6.7490783777631e-05
 209    1.1880778598391e-05
 210    -2.7868502034951e-05
 211    6.7511412909743e-06
 212    1.8795644692666e-05
 213    -6.3620154138013e-07
 214    -2.298369613835e-05
 215    -2.9860467478026e-06
 216    -2.981703559717e-05
 217    1.5725903026717e-06
 218    9.8254716931684e-06
 219    4.4310508671698e-07
 220    -1.8932173760821e-06
 221    -9.8625493140224e-06
 222    -9.3714096129895e-05
 223    0.00095245757695703
 224    -1.1601530804757e-05
 225    8.8068900782013e-07
 226    1.2650332981217e-05
 227    0.00068218572078105
 228    0.00032993700368886
 229    -0.00098478170664185
 230    2.8176533247658e-06
 231    -4.6491989900177e-05
 232    -2.3310460805824e-05
 233    2.3061590676415e-05
 234    2.3933797869398e-05
 235    -1.495280799549e-05
 236    -6.988253778954e-05
 237    -0.00029054578840551
 238    -3.3048115971458e-05
 239    -6.2826919055396e-06
 240    3.4385746167423e-05
 241    0.00030772757761416
 242    0.0003694108120192
 243    -0.0016190345114734
 244    9.4983189661448e-06
 245    7.5647406130385e-05
 246    1.4630199151365e-05
 247    1.9326582282925e-05
 248    -3.1207789954164e-06
 249    -3.735593675658e-05
 250    0.00032443741942021
 251    4.8193705947009e-06
 252    -0.00043250662101342
 253    0.0022497617383804
 254    6.1902528297446e-05
 255    -3.3608469000025e-05
 256    0.0002129732308806
 257    1.2541587765432e-06
 258    0.00040587766165091
 259    -0.001872989575795
 260    -7.0543655714228e-05
 261    -2.196698275275e-05
 262    -1.5039766507483e-05
 263    0.00014981081705272
 264    8.9755368686609e-05
 265    -0.00011265428864512
 266    0.00020999093803394
 267    -0.00013554949484013
 268    -0.0005358214137373
 269    -6.0912676491595e-05
 270    -0.00055771994151799
 271    0.0073469576590703
 272    -8.1675535891842e-05
 273    0.00010617035403108
 274    0.00013069526885271
 275    -0.0016097633662725
 276    -0.0030023104645322
 277    0.0030050095975482
 278    9.2272786030636e-05
 279    -0.00019076500517714
 280    -0.00010795295513054