[Molden Format]
made by pyscf v[2.0.1]
[Atoms] (AU)
C   1   6     0.69100024066471     0.64692934207205    -3.48223131169301
H   2   1     2.68052439830868     1.13355088658700    -3.25784032593313
C   3   6    -0.36286361513219     0.85440132524594    -5.97030179418974
H   4   1    -2.35448549047279     0.36322488579172    -6.17995817793143
C   5   6     0.93697958957450     1.61209284601821    -8.05828437677121
H   6   1     1.09182490265505     3.62435627880799    -8.46787148771875
C   7   6     2.13423629966321    -0.10744231105711    -9.78050935942977
H   8   1     1.96390963868834    -2.11762116447114    -9.34474333768613
H   9   1     1.55630230933075    -1.92953025305990    12.99630010416247
C   10   6     0.75233899775814    -2.21270439606481    11.10705728102219
H   11   1    -0.43433408177274    -3.90944857546550    11.22216085340412
C   12   6     2.86362581178706    -2.63237380607947     9.17926416456045
H   13   1     4.39038949912609    -1.24955421540245     9.49899813497433
H   14   1     3.74629220191363    -4.48798724300892     9.47414880959024
C   15   6     2.02478325613682    -2.42177285709634     6.44560829588644
C   16   6     3.88048732735477    -3.58795445234514     4.61402886975252
C   17   6    -0.18412382258602    -1.30464291234259     5.76021113872346
C   18   6    -2.10044360464350    -0.26837831858460     7.71610340967100
C   19   6    -3.08956938670431     2.35282328359417     6.88693925039594
C   20   6    -4.37372924086464    -2.09766595989678     7.93610724222001
C   21   6    -0.83850430601230     0.06372213486173    10.33002307638377
H   22   1     0.38411922151109     1.74281358582432    10.27380136542181
H   23   1    -2.30980003007874     0.45460143924521    11.73986301809809
H   24   1     4.58527064644668    -5.38706904487420     5.36778158031719
H   25   1     5.54944938085014    -2.37631462192748     4.35398898413318
H   26   1     3.06633019150423    -3.94118377050688     2.75255466040884
H   27   1    -4.17727778763735     2.26573369139522     5.12914900961283
H   28   1    -1.52662344944051     3.68001877445626     6.59540397144508
H   29   1    -4.32916174397830     3.13643051467482     8.35225460090378
H   30   1    -5.32329548508442    -2.36691813602939     6.11583672749896
H   31   1    -5.77989366602257    -1.33896741843465     9.25748940450990
H   32   1    -3.79310905208926    -3.96389819310853     8.61386170102686
C   33   6    -1.01100794811226    -1.06331657314144     3.11929490449947
C   34   6     0.37686231036534    -0.33275864505552     1.09165013605873
H   35   1    -3.01671213906703    -1.40297922279997     2.77827895090944
C   36   6    -0.64382707979370    -0.11591880174385    -1.42063131251064
H   37   1     2.35569259782137     0.17174499283897     1.33641070251401
H   38   1    -2.63317482980319    -0.60229203511219    -1.66119700387645
C   39   6     3.44427310754987     0.55955226130243   -11.88185544133447
C   40   6     4.59546774580895    -1.33837842065929   -13.51881378425706
H   41   1     3.68484150802705     2.52824088205540   -12.42422090941845
O   42   8     5.79494197127018    -0.87330187518197   -15.43343894779829
H   43   1     4.30216020100717    -3.32855150553013   -12.89162904717628
[GTO]
1 0
 s    6 1.00
             3047.5249  0.0018347001629433
             457.36951    0.01403730124668
             103.94869   0.068842606114048
             29.210155    0.23218442062076
              9.286663    0.46794134155879
              3.163927    0.36231203217765
 s    3 1.00
             7.8682724   -0.11933240861517
             1.8812885   -0.16085421161283
             0.5442493     1.1434564825515
 s    1 1.00
             0.1687144                   1
 p    3 1.00
             7.8682724   0.068999095584993
             1.8812885    0.31642397975315
             0.5442493    0.74430825237435
 p    1 1.00
             0.1687144                   1
 d    1 1.00
                   0.8                   1

2 0
 s    3 1.00
             18.731137    0.03349459952309
             2.8253937    0.23472694665786
             0.6401217    0.81375731841339
 s    1 1.00
             0.1612778                   1

3 0
 s    6 1.00
             3047.5249  0.0018347001629433
             457.36951    0.01403730124668
             103.94869   0.068842606114048
             29.210155    0.23218442062076
              9.286663    0.46794134155879
              3.163927    0.36231203217765
 s    3 1.00
             7.8682724   -0.11933240861517
             1.8812885   -0.16085421161283
             0.5442493     1.1434564825515
 s    1 1.00
             0.1687144                   1
 p    3 1.00
             7.8682724   0.068999095584993
             1.8812885    0.31642397975315
             0.5442493    0.74430825237435
 p    1 1.00
             0.1687144                   1
 d    1 1.00
                   0.8                   1

4 0
 s    3 1.00
             18.731137    0.03349459952309
             2.8253937    0.23472694665786
             0.6401217    0.81375731841339
 s    1 1.00
             0.1612778                   1

5 0
 s    6 1.00
             3047.5249  0.0018347001629433
             457.36951    0.01403730124668
             103.94869   0.068842606114048
             29.210155    0.23218442062076
              9.286663    0.46794134155879
              3.163927    0.36231203217765
 s    3 1.00
             7.8682724   -0.11933240861517
             1.8812885   -0.16085421161283
             0.5442493     1.1434564825515
 s    1 1.00
             0.1687144                   1
 p    3 1.00
             7.8682724   0.068999095584993
             1.8812885    0.31642397975315
             0.5442493    0.74430825237435
 p    1 1.00
             0.1687144                   1
 d    1 1.00
                   0.8                   1

6 0
 s    3 1.00
             18.731137    0.03349459952309
             2.8253937    0.23472694665786
             0.6401217    0.81375731841339
 s    1 1.00
             0.1612778                   1

7 0
 s    6 1.00
             3047.5249  0.0018347001629433
             457.36951    0.01403730124668
             103.94869   0.068842606114048
             29.210155    0.23218442062076
              9.286663    0.46794134155879
              3.163927    0.36231203217765
 s    3 1.00
             7.8682724   -0.11933240861517
             1.8812885   -0.16085421161283
             0.5442493     1.1434564825515
 s    1 1.00
             0.1687144                   1
 p    3 1.00
             7.8682724   0.068999095584993
             1.8812885    0.31642397975315
             0.5442493    0.74430825237435
 p    1 1.00
             0.1687144                   1
 d    1 1.00
                   0.8                   1

8 0
 s    3 1.00
             18.731137    0.03349459952309
             2.8253937    0.23472694665786
             0.6401217    0.81375731841339
 s    1 1.00
             0.1612778                   1

9 0
 s    3 1.00
             18.731137    0.03349459952309
             2.8253937    0.23472694665786
             0.6401217    0.81375731841339
 s    1 1.00
             0.1612778                   1

10 0
 s    6 1.00
             3047.5249  0.0018347001629433
             457.36951    0.01403730124668
             103.94869   0.068842606114048
             29.210155    0.23218442062076
              9.286663    0.46794134155879
              3.163927    0.36231203217765
 s    3 1.00
             7.8682724   -0.11933240861517
             1.8812885   -0.16085421161283
             0.5442493     1.1434564825515
 s    1 1.00
             0.1687144                   1
 p    3 1.00
             7.8682724   0.068999095584993
             1.8812885    0.31642397975315
             0.5442493    0.74430825237435
 p    1 1.00
             0.1687144                   1
 d    1 1.00
                   0.8                   1

11 0
 s    3 1.00
             18.731137    0.03349459952309
             2.8253937    0.23472694665786
             0.6401217    0.81375731841339
 s    1 1.00
             0.1612778                   1

12 0
 s    6 1.00
             3047.5249  0.0018347001629433
             457.36951    0.01403730124668
             103.94869   0.068842606114048
             29.210155    0.23218442062076
              9.286663    0.46794134155879
              3.163927    0.36231203217765
 s    3 1.00
             7.8682724   -0.11933240861517
             1.8812885   -0.16085421161283
             0.5442493     1.1434564825515
 s    1 1.00
             0.1687144                   1
 p    3 1.00
             7.8682724   0.068999095584993
             1.8812885    0.31642397975315
             0.5442493    0.74430825237435
 p    1 1.00
             0.1687144                   1
 d    1 1.00
                   0.8                   1

13 0
 s    3 1.00
             18.731137    0.03349459952309
             2.8253937    0.23472694665786
             0.6401217    0.81375731841339
 s    1 1.00
             0.1612778                   1

14 0
 s    3 1.00
             18.731137    0.03349459952309
             2.8253937    0.23472694665786
             0.6401217    0.81375731841339
 s    1 1.00
             0.1612778                   1

15 0
 s    6 1.00
             3047.5249  0.0018347001629433
             457.36951    0.01403730124668
             103.94869   0.068842606114048
             29.210155    0.23218442062076
              9.286663    0.46794134155879
              3.163927    0.36231203217765
 s    3 1.00
             7.8682724   -0.11933240861517
             1.8812885   -0.16085421161283
             0.5442493     1.1434564825515
 s    1 1.00
             0.1687144                   1
 p    3 1.00
             7.8682724   0.068999095584993
             1.8812885    0.31642397975315
             0.5442493    0.74430825237435
 p    1 1.00
             0.1687144                   1
 d    1 1.00
                   0.8                   1

16 0
 s    6 1.00
             3047.5249  0.0018347001629433
             457.36951    0.01403730124668
             103.94869   0.068842606114048
             29.210155    0.23218442062076
              9.286663    0.46794134155879
              3.163927    0.36231203217765
 s    3 1.00
             7.8682724   -0.11933240861517
             1.8812885   -0.16085421161283
             0.5442493     1.1434564825515
 s    1 1.00
             0.1687144                   1
 p    3 1.00
             7.8682724   0.068999095584993
             1.8812885    0.31642397975315
             0.5442493    0.74430825237435
 p    1 1.00
             0.1687144                   1
 d    1 1.00
                   0.8                   1

17 0
 s    6 1.00
             3047.5249  0.0018347001629433
             457.36951    0.01403730124668
             103.94869   0.068842606114048
             29.210155    0.23218442062076
              9.286663    0.46794134155879
              3.163927    0.36231203217765
 s    3 1.00
             7.8682724   -0.11933240861517
             1.8812885   -0.16085421161283
             0.5442493     1.1434564825515
 s    1 1.00
             0.1687144                   1
 p    3 1.00
             7.8682724   0.068999095584993
             1.8812885    0.31642397975315
             0.5442493    0.74430825237435
 p    1 1.00
             0.1687144                   1
 d    1 1.00
                   0.8                   1

18 0
 s    6 1.00
             3047.5249  0.0018347001629433
             457.36951    0.01403730124668
             103.94869   0.068842606114048
             29.210155    0.23218442062076
              9.286663    0.46794134155879
              3.163927    0.36231203217765
 s    3 1.00
             7.8682724   -0.11933240861517
             1.8812885   -0.16085421161283
             0.5442493     1.1434564825515
 s    1 1.00
             0.1687144                   1
 p    3 1.00
             7.8682724   0.068999095584993
             1.8812885    0.31642397975315
             0.5442493    0.74430825237435
 p    1 1.00
             0.1687144                   1
 d    1 1.00
                   0.8                   1

19 0
 s    6 1.00
             3047.5249  0.0018347001629433
             457.36951    0.01403730124668
             103.94869   0.068842606114048
             29.210155    0.23218442062076
              9.286663    0.46794134155879
              3.163927    0.36231203217765
 s    3 1.00
             7.8682724   -0.11933240861517
             1.8812885   -0.16085421161283
             0.5442493     1.1434564825515
 s    1 1.00
             0.1687144                   1
 p    3 1.00
             7.8682724   0.068999095584993
             1.8812885    0.31642397975315
             0.5442493    0.74430825237435
 p    1 1.00
             0.1687144                   1
 d    1 1.00
                   0.8                   1

20 0
 s    6 1.00
             3047.5249  0.0018347001629433
             457.36951    0.01403730124668
             103.94869   0.068842606114048
             29.210155    0.23218442062076
              9.286663    0.46794134155879
              3.163927    0.36231203217765
 s    3 1.00
             7.8682724   -0.11933240861517
             1.8812885   -0.16085421161283
             0.5442493     1.1434564825515
 s    1 1.00
             0.1687144                   1
 p    3 1.00
             7.8682724   0.068999095584993
             1.8812885    0.31642397975315
             0.5442493    0.74430825237435
 p    1 1.00
             0.1687144                   1
 d    1 1.00
                   0.8                   1

21 0
 s    6 1.00
             3047.5249  0.0018347001629433
             457.36951    0.01403730124668
             103.94869   0.068842606114048
             29.210155    0.23218442062076
              9.286663    0.46794134155879
              3.163927    0.36231203217765
 s    3 1.00
             7.8682724   -0.11933240861517
             1.8812885   -0.16085421161283
             0.5442493     1.1434564825515
 s    1 1.00
             0.1687144                   1
 p    3 1.00
             7.8682724   0.068999095584993
             1.8812885    0.31642397975315
             0.5442493    0.74430825237435
 p    1 1.00
             0.1687144                   1
 d    1 1.00
                   0.8                   1

22 0
 s    3 1.00
             18.731137    0.03349459952309
             2.8253937    0.23472694665786
             0.6401217    0.81375731841339
 s    1 1.00
             0.1612778                   1

23 0
 s    3 1.00
             18.731137    0.03349459952309
             2.8253937    0.23472694665786
             0.6401217    0.81375731841339
 s    1 1.00
             0.1612778                   1

24 0
 s    3 1.00
             18.731137    0.03349459952309
             2.8253937    0.23472694665786
             0.6401217    0.81375731841339
 s    1 1.00
             0.1612778                   1

25 0
 s    3 1.00
             18.731137    0.03349459952309
             2.8253937    0.23472694665786
             0.6401217    0.81375731841339
 s    1 1.00
             0.1612778                   1

26 0
 s    3 1.00
             18.731137    0.03349459952309
             2.8253937    0.23472694665786
             0.6401217    0.81375731841339
 s    1 1.00
             0.1612778                   1

27 0
 s    3 1.00
             18.731137    0.03349459952309
             2.8253937    0.23472694665786
             0.6401217    0.81375731841339
 s    1 1.00
             0.1612778                   1

28 0
 s    3 1.00
             18.731137    0.03349459952309
             2.8253937    0.23472694665786
             0.6401217    0.81375731841339
 s    1 1.00
             0.1612778                   1

29 0
 s    3 1.00
             18.731137    0.03349459952309
             2.8253937    0.23472694665786
             0.6401217    0.81375731841339
 s    1 1.00
             0.1612778                   1

30 0
 s    3 1.00
             18.731137    0.03349459952309
             2.8253937    0.23472694665786
             0.6401217    0.81375731841339
 s    1 1.00
             0.1612778                   1

31 0
 s    3 1.00
             18.731137    0.03349459952309
             2.8253937    0.23472694665786
             0.6401217    0.81375731841339
 s    1 1.00
             0.1612778                   1

32 0
 s    3 1.00
             18.731137    0.03349459952309
             2.8253937    0.23472694665786
             0.6401217    0.81375731841339
 s    1 1.00
             0.1612778                   1

33 0
 s    6 1.00
             3047.5249  0.0018347001629433
             457.36951    0.01403730124668
             103.94869   0.068842606114048
             29.210155    0.23218442062076
              9.286663    0.46794134155879
              3.163927    0.36231203217765
 s    3 1.00
             7.8682724   -0.11933240861517
             1.8812885   -0.16085421161283
             0.5442493     1.1434564825515
 s    1 1.00
             0.1687144                   1
 p    3 1.00
             7.8682724   0.068999095584993
             1.8812885    0.31642397975315
             0.5442493    0.74430825237435
 p    1 1.00
             0.1687144                   1
 d    1 1.00
                   0.8                   1

34 0
 s    6 1.00
             3047.5249  0.0018347001629433
             457.36951    0.01403730124668
             103.94869   0.068842606114048
             29.210155    0.23218442062076
              9.286663    0.46794134155879
              3.163927    0.36231203217765
 s    3 1.00
             7.8682724   -0.11933240861517
             1.8812885   -0.16085421161283
             0.5442493     1.1434564825515
 s    1 1.00
             0.1687144                   1
 p    3 1.00
             7.8682724   0.068999095584993
             1.8812885    0.31642397975315
             0.5442493    0.74430825237435
 p    1 1.00
             0.1687144                   1
 d    1 1.00
                   0.8                   1

35 0
 s    3 1.00
             18.731137    0.03349459952309
             2.8253937    0.23472694665786
             0.6401217    0.81375731841339
 s    1 1.00
             0.1612778                   1

36 0
 s    6 1.00
             3047.5249  0.0018347001629433
             457.36951    0.01403730124668
             103.94869   0.068842606114048
             29.210155    0.23218442062076
              9.286663    0.46794134155879
              3.163927    0.36231203217765
 s    3 1.00
             7.8682724   -0.11933240861517
             1.8812885   -0.16085421161283
             0.5442493     1.1434564825515
 s    1 1.00
             0.1687144                   1
 p    3 1.00
             7.8682724   0.068999095584993
             1.8812885    0.31642397975315
             0.5442493    0.74430825237435
 p    1 1.00
             0.1687144                   1
 d    1 1.00
                   0.8                   1

37 0
 s    3 1.00
             18.731137    0.03349459952309
             2.8253937    0.23472694665786
             0.6401217    0.81375731841339
 s    1 1.00
             0.1612778                   1

38 0
 s    3 1.00
             18.731137    0.03349459952309
             2.8253937    0.23472694665786
             0.6401217    0.81375731841339
 s    1 1.00
             0.1612778                   1

39 0
 s    6 1.00
             3047.5249  0.0018347001629433
             457.36951    0.01403730124668
             103.94869   0.068842606114048
             29.210155    0.23218442062076
              9.286663    0.46794134155879
              3.163927    0.36231203217765
 s    3 1.00
             7.8682724   -0.11933240861517
             1.8812885   -0.16085421161283
             0.5442493     1.1434564825515
 s    1 1.00
             0.1687144                   1
 p    3 1.00
             7.8682724   0.068999095584993
             1.8812885    0.31642397975315
             0.5442493    0.74430825237435
 p    1 1.00
             0.1687144                   1
 d    1 1.00
                   0.8                   1

40 0
 s    6 1.00
             3047.5249  0.0018347001629433
             457.36951    0.01403730124668
             103.94869   0.068842606114048
             29.210155    0.23218442062076
              9.286663    0.46794134155879
              3.163927    0.36231203217765
 s    3 1.00
             7.8682724   -0.11933240861517
             1.8812885   -0.16085421161283
             0.5442493     1.1434564825515
 s    1 1.00
             0.1687144                   1
 p    3 1.00
             7.8682724   0.068999095584993
             1.8812885    0.31642397975315
             0.5442493    0.74430825237435
 p    1 1.00
             0.1687144                   1
 d    1 1.00
                   0.8                   1

41 0
 s    3 1.00
             18.731137    0.03349459952309
             2.8253937    0.23472694665786
             0.6401217    0.81375731841339
 s    1 1.00
             0.1612778                   1

42 0
 s    6 1.00
             5484.6717   0.001831099805527
             825.23495   0.013950098518422
             188.04696    0.06844509273075
               52.9645    0.23271427528445
              16.89757    0.47019295006289
             5.7996353    0.35852086192309
 s    3 1.00
             15.539616   -0.11077750382508
             3.5999336   -0.14802630511126
             1.0137618     1.1307670390447
 s    1 1.00
             0.2700058                   1
 p    3 1.00
             15.539616   0.070874299543311
             3.5999336    0.33975279781076
             1.0137618    0.72715859531445
 p    1 1.00
             0.2700058                   1
 d    1 1.00
                   0.8                   1

43 0
 s    3 1.00
             18.731137    0.03349459952309
             2.8253937    0.23472694665786
             0.6401217    0.81375731841339
 s    1 1.00
             0.1612778                   1

[5d]
[7f]
[9g]

[MO]
 Sym= A
 Ene=               0
 Spin= Alpha
 Occup=    1.00000
   1    0.0025450078723629
   2      0.29641149748596
   3      0.19869596042857
   4    -0.075681263409181
   5    -0.049695558509498
   6      0.14594577918444
   7     0.011124493589846
   8    -0.0071698629691546
   9     0.050415339109942
  10     0.003979822206482
  11    -0.0051572053750977
  12    -0.0047465628881583
  13    0.0072825069278644
  14     0.005857023338283
  15      0.06533249160426
  16    -0.0036836078741011
  17    -0.0085799284247579
  18     0.045258342948423
  19      0.02085510041394
  20    -0.0064623010376692
  21     -0.01211841729849
  22     0.051613591435414
  23    -0.012137228771973
  24    -0.0081553516071569
  25     0.027695344819865
  26    0.0062598364549116
  27    0.0023039043001083
  28    -0.001903588183621
  29    0.00087505763343579
  30    0.0001653794362803
  31     0.012479937169928
  32    -0.00041298451405638
  33    0.00090265912941627
  34    -0.00069113590699473
  35     0.020935698491685
  36    0.0017488337447516
  37    0.0010441238812354
  38    -0.0071574665685115
  39    -0.0063393131872965
  40    -0.0065831266615972
  41    0.0014194295184499
  42    4.2228178992767e-05
  43    -0.00083530928216061
  44    0.00023113714357268
  45    -1.2635786756836e-05
  46    -6.8396536675229e-05
  47      0.00143740670992
  48    0.0030807082049087
  49    -0.00038818980192714
  50      0.02361855209418
  51      0.01328856438231
  52    0.0076173350048758
  53    0.00069644834640173
  54     -0.01141271072856
  55    0.0061852689905519
  56    -0.0027430461385647
  57    -0.0067502727202808
  58    9.4308042933368e-05
  59    -0.00060888050460624
  60    -0.00049255964640095
  61    -0.00042722952590805
  62    0.00028302828512709
  63    0.0062555905225236
  64    0.0013637893665112
  65    2.8208373877711e-05
  66    -2.7630185967043e-05
  67    1.2868897432086e-05
  68    4.5519635355582e-05
  69    -0.00043966231280574
  70    2.2538444094883e-06
  71    -2.3647994052767e-05
  72    -4.5852921942155e-06
  73    0.00027994844142571
  74    0.00034942459893375
  75    0.00029209948851217
  76    2.8954747199366e-05
  77    1.0467122648582e-05
  78    -9.7033244267524e-06
  79    -9.3817844379057e-06
  80    8.638794435368e-06
  81    4.3490901891476e-06
  82    0.00032336133031222
  83    -2.8963663963372e-05
  84    0.00014992931572096
  85    0.0013348220813867
  86    -0.00020325566967829
  87    6.8156087030961e-05
  88    -0.00031174578758939
  89    -0.00048229188537756
  90    -0.00041445020244236
  91    -0.00056724986668826
  92    -4.1513264264159e-06
  93    2.3108042514703e-05
  94    -1.7805383265378e-05
  95    -6.5091335174916e-06
  96    -1.3410840115004e-05
  97    -9.2134650133019e-05
  98    1.2131884526041e-05
  99    -3.9118671105197e-05
 100    -9.3746430079713e-05
 101    9.729181540773e-05
 102    -8.2007227392192e-05
 103    -0.0013814894402182
 104    0.00011278310948405
 105    0.00029850413163815
 106    0.00041078493851431
 107    0.0028182331720045
 108    -0.00062447958740548
 109    -0.0032794237543495
 110    3.8970074924561e-05
 111    8.7009776588821e-05
 112    -2.7430592462983e-05
 113    -6.3951900605677e-05
 114    2.7384647996982e-05
 115    8.6613016209311e-05
 116    -0.00022673432392466
 117    -0.0022189189509942
 118    0.00011273982143217
 119    -0.00039710583740215
 120    7.1708580931704e-05
 121    0.00044265812504022
 122    -0.00014940712940942
 123    -0.0015384201183299
 124    1.4719077141443e-05
 125    5.2963165947893e-05
 126    -5.1259634903744e-05
 127    -1.056097656465e-05
 128    8.4090370234722e-06
 129    2.0189333648097e-05
 130    0.00067492998760025
 131    -0.012077889637113
 132    -0.00017421068997777
 133    -5.7784816843532e-05
 134    -0.00059155439192815
 135     0.001765591934865
 136    -0.0013306170238326
 137     0.013034671038723
 138    -0.00039126728176708
 139    7.8616994694189e-05
 140    0.00015424493053617
 141    6.6685340416272e-05
 142    9.5861726190139e-05
 143    4.813495391911e-05
 144    -7.3388578255656e-06
 145    -0.0021154838246104
 146    0.00012131838706591
 147    0.00010417584184269
 148    0.00033681163946437
 149    -0.002756341926603
 150    0.0017467487951738
 151    -0.0022386516425818
 152    8.6858893105214e-05
 153    -3.3572995472579e-05
 154    -4.2662440319216e-05
 155    -5.558228446758e-05
 156     5.45672723757e-05
 157    1.1521536505078e-05
 158    0.00020101181550768
 159    -0.001623849649084
 160    4.2829137530507e-05
 161    1.5003995762975e-06
 162    -0.00010637051769404
 163    -1.5554966706973e-05
 164    0.0010271209628103
 165    0.00025824831898815
 166    2.2075118547656e-05
 167    9.5674262257515e-07
 168    1.0501763547493e-06
 169    5.5268681219623e-05
 170    -7.4347775367576e-06
 171    1.2955460639847e-05
 172    -0.00024776706681679
 173    0.00035953258432713
 174    -1.58633973381e-05
 175    9.4019583055015e-06
 176    0.00032768436117664
 177    0.00043842824182007
 178    -0.00077562194836789
 179    -8.025207980845e-05
 180    3.9094446834671e-06
 181    5.2692170037045e-05
 182    1.9226303496741e-05
 183    3.4724461349887e-05
 184    -8.1697466353114e-06
 185    -6.6729697006372e-06
 186    7.774263588672e-06
 187    0.0017964014590406
 188    1.9435852145106e-05
 189    -4.9961509948379e-05
 190    -0.0002263142064327
 191    -0.00094164952983302
 192    -0.00048060438578142
 193    -0.0005017822018052
 194    2.5417281921152e-05
 195    3.5628708900636e-05
 196    2.9000014307087e-05
 197    -5.4628255353161e-06
 198    2.1044698016902e-05
 199    -2.1636249966344e-05
 200    0.00031667249915252
 201    -7.6534896497606e-05
 202    -0.00038061967624569
 203    0.00025230154941998
 204    0.00087552709485791
 205    -0.00024487703285083
 206    -0.00022458417486697
 207    0.00016715852477358
 208    -0.00084242631116431
 209    0.0001376255806616
 210    0.00022004636327902
 211    4.5941877238057e-05
 212    -9.5768179881738e-05
 213    -2.1157724549187e-05
 214    -0.00029966454481195
 215    -6.2597708697417e-05
 216    -0.00066406518803057
 217    7.8301095704759e-05
 218    0.00048181721931254
 219    -7.9884362035907e-06
 220    -0.00050467156380399
 221    0.0011793126004197
 222    -0.0028512090272616
 223     0.025081069302034
 224    -0.0013112853191774
 225    -0.001756057600368
 226    0.0028253379931623
 227     0.017693651016049
 228    0.0015420871960323
 229    0.0089087523668122
 230    0.00018164557433796
 231    -0.00016216946333597
 232    -0.00016974139955883
 233    0.0001857796928579
 234    0.00017615104007431
 235    -0.0081399842885204
 236     0.042452358277514
 237     0.019851002748054
 238    0.0069839106486155
 239     0.011508114119183
 240    -0.047858622705607
 241    0.0077588564433707
 242    0.0083333640145593
 243    -0.030813338399581
 244    0.0063239362384258
 245    0.0019663297238622
 246    -0.0019801076771504
 247    0.00090541036095815
 248    0.0002114787097534
 249    0.00087375767164865
 250    0.0087576158308739
 251     0.001193304450545
 252      0.29420527909507
 253      0.18727893503838
 254     0.078466874485872
 255     0.050689663039149
 256     -0.14779317407173
 257    -0.013058066662159
 258    0.0068071109348662
 259    -0.047212829266495
 260    0.0037296440427348
 261    -0.005284865215867
 262    -0.0042755619404837
 263    0.0074408493082651
 264    0.0053689648738166
 265     0.011743749183643
 266    0.0017158003518861
 267     0.063298793594886
 268    -0.0049465774338443
 269    0.0011218805071782
 270     0.025025225942603
 271     0.012465010775179
 272    -0.0060059865407656
 273    -0.0042908619536176
 274    0.0093399857019982
 275    -0.0018851093745256
 276    0.0041591523521999
 277    0.0020532339260881
 278    0.00023231558199463
 279    -0.00074308402218561
 280    -0.0004270666081349
 281    -0.00044409795316526
 282    0.00020957055253843
 283    -0.0012770723299101
 284     0.005900950992184