[Molden Format]
made by pyscf v[2.0.1]
[Atoms] (AU)
C   1   6     0.69100024066471     0.64692934207205    -3.48223131169301
H   2   1     2.68052439830868     1.13355088658700    -3.25784032593313
C   3   6    -0.36286361513219     0.85440132524594    -5.97030179418974
H   4   1    -2.35448549047279     0.36322488579172    -6.17995817793143
C   5   6     0.93697958957450     1.61209284601821    -8.05828437677121
H   6   1    -0.06960811584452     2.58702669474359    -9.56733307637730
C   7   6     3.59571274713804     1.19684402678434    -8.39738626626495
H   8   1     4.57899779978681     0.21871567749258    -6.86894337963000
H   9   1     1.55630230933075    -1.92953025305990    12.99630010416247
C   10   6     0.75233899775814    -2.21270439606481    11.10705728102219
H   11   1    -0.43433408177274    -3.90944857546550    11.22216085340412
C   12   6     2.86362581178706    -2.63237380607947     9.17926416456045
H   13   1     4.39038949912609    -1.24955421540245     9.49899813497433
H   14   1     3.74629220191363    -4.48798724300892     9.47414880959024
C   15   6     2.02478325613682    -2.42177285709634     6.44560829588644
C   16   6     3.88048732735477    -3.58795445234514     4.61402886975252
C   17   6    -0.18412382258602    -1.30464291234259     5.76021113872346
C   18   6    -2.10044360464350    -0.26837831858460     7.71610340967100
C   19   6    -3.08956938670431     2.35282328359417     6.88693925039594
C   20   6    -4.37372924086464    -2.09766595989678     7.93610724222001
C   21   6    -0.83850430601230     0.06372213486173    10.33002307638377
H   22   1     0.38411922151109     1.74281358582432    10.27380136542181
H   23   1    -2.30980003007874     0.45460143924521    11.73986301809809
H   24   1     4.58527064644668    -5.38706904487420     5.36778158031719
H   25   1     5.54944938085014    -2.37631462192748     4.35398898413318
H   26   1     3.06633019150423    -3.94118377050688     2.75255466040884
H   27   1    -4.17727778763735     2.26573369139522     5.12914900961283
H   28   1    -1.52662344944051     3.68001877445626     6.59540397144508
H   29   1    -4.32916174397830     3.13643051467482     8.35225460090378
H   30   1    -5.32329548508442    -2.36691813602939     6.11583672749896
H   31   1    -5.77989366602257    -1.33896741843465     9.25748940450990
H   32   1    -3.79310905208926    -3.96389819310853     8.61386170102686
C   33   6    -1.01100794811226    -1.06331657314144     3.11929490449947
C   34   6     0.37686231036534    -0.33275864505552     1.09165013605873
H   35   1    -3.01671213906703    -1.40297922279997     2.77827895090944
C   36   6    -0.64382707979370    -0.11591880174385    -1.42063131251064
H   37   1     2.35569259782137     0.17174499283897     1.33641070251401
H   38   1    -2.63317482980319    -0.60229203511219    -1.66119700387645
C   39   6     4.96665860975130     1.91437223239220   -10.44247655051683
C   40   6     7.67160233174465     1.40206885234173   -10.60935163126053
H   41   1     4.10375913642339     2.89528826049847   -12.03023490303406
O   42   8     9.01623610133373     1.99111078946158   -12.38862500825095
H   43   1     8.47573431044455     0.39495244048141    -8.94223819440966
[GTO]
1 0
 s    6 1.00
             3047.5249  0.0018347001629433
             457.36951    0.01403730124668
             103.94869   0.068842606114048
             29.210155    0.23218442062076
              9.286663    0.46794134155879
              3.163927    0.36231203217765
 s    3 1.00
             7.8682724   -0.11933240861517
             1.8812885   -0.16085421161283
             0.5442493     1.1434564825515
 s    1 1.00
             0.1687144                   1
 p    3 1.00
             7.8682724   0.068999095584993
             1.8812885    0.31642397975315
             0.5442493    0.74430825237435
 p    1 1.00
             0.1687144                   1
 d    1 1.00
                   0.8                   1

2 0
 s    3 1.00
             18.731137    0.03349459952309
             2.8253937    0.23472694665786
             0.6401217    0.81375731841339
 s    1 1.00
             0.1612778                   1

3 0
 s    6 1.00
             3047.5249  0.0018347001629433
             457.36951    0.01403730124668
             103.94869   0.068842606114048
             29.210155    0.23218442062076
              9.286663    0.46794134155879
              3.163927    0.36231203217765
 s    3 1.00
             7.8682724   -0.11933240861517
             1.8812885   -0.16085421161283
             0.5442493     1.1434564825515
 s    1 1.00
             0.1687144                   1
 p    3 1.00
             7.8682724   0.068999095584993
             1.8812885    0.31642397975315
             0.5442493    0.74430825237435
 p    1 1.00
             0.1687144                   1
 d    1 1.00
                   0.8                   1

4 0
 s    3 1.00
             18.731137    0.03349459952309
             2.8253937    0.23472694665786
             0.6401217    0.81375731841339
 s    1 1.00
             0.1612778                   1

5 0
 s    6 1.00
             3047.5249  0.0018347001629433
             457.36951    0.01403730124668
             103.94869   0.068842606114048
             29.210155    0.23218442062076
              9.286663    0.46794134155879
              3.163927    0.36231203217765
 s    3 1.00
             7.8682724   -0.11933240861517
             1.8812885   -0.16085421161283
             0.5442493     1.1434564825515
 s    1 1.00
             0.1687144                   1
 p    3 1.00
             7.8682724   0.068999095584993
             1.8812885    0.31642397975315
             0.5442493    0.74430825237435
 p    1 1.00
             0.1687144                   1
 d    1 1.00
                   0.8                   1

6 0
 s    3 1.00
             18.731137    0.03349459952309
             2.8253937    0.23472694665786
             0.6401217    0.81375731841339
 s    1 1.00
             0.1612778                   1

7 0
 s    6 1.00
             3047.5249  0.0018347001629433
             457.36951    0.01403730124668
             103.94869   0.068842606114048
             29.210155    0.23218442062076
              9.286663    0.46794134155879
              3.163927    0.36231203217765
 s    3 1.00
             7.8682724   -0.11933240861517
             1.8812885   -0.16085421161283
             0.5442493     1.1434564825515
 s    1 1.00
             0.1687144                   1
 p    3 1.00
             7.8682724   0.068999095584993
             1.8812885    0.31642397975315
             0.5442493    0.74430825237435
 p    1 1.00
             0.1687144                   1
 d    1 1.00
                   0.8                   1

8 0
 s    3 1.00
             18.731137    0.03349459952309
             2.8253937    0.23472694665786
             0.6401217    0.81375731841339
 s    1 1.00
             0.1612778                   1

9 0
 s    3 1.00
             18.731137    0.03349459952309
             2.8253937    0.23472694665786
             0.6401217    0.81375731841339
 s    1 1.00
             0.1612778                   1

10 0
 s    6 1.00
             3047.5249  0.0018347001629433
             457.36951    0.01403730124668
             103.94869   0.068842606114048
             29.210155    0.23218442062076
              9.286663    0.46794134155879
              3.163927    0.36231203217765
 s    3 1.00
             7.8682724   -0.11933240861517
             1.8812885   -0.16085421161283
             0.5442493     1.1434564825515
 s    1 1.00
             0.1687144                   1
 p    3 1.00
             7.8682724   0.068999095584993
             1.8812885    0.31642397975315
             0.5442493    0.74430825237435
 p    1 1.00
             0.1687144                   1
 d    1 1.00
                   0.8                   1

11 0
 s    3 1.00
             18.731137    0.03349459952309
             2.8253937    0.23472694665786
             0.6401217    0.81375731841339
 s    1 1.00
             0.1612778                   1

12 0
 s    6 1.00
             3047.5249  0.0018347001629433
             457.36951    0.01403730124668
             103.94869   0.068842606114048
             29.210155    0.23218442062076
              9.286663    0.46794134155879
              3.163927    0.36231203217765
 s    3 1.00
             7.8682724   -0.11933240861517
             1.8812885   -0.16085421161283
             0.5442493     1.1434564825515
 s    1 1.00
             0.1687144                   1
 p    3 1.00
             7.8682724   0.068999095584993
             1.8812885    0.31642397975315
             0.5442493    0.74430825237435
 p    1 1.00
             0.1687144                   1
 d    1 1.00
                   0.8                   1

13 0
 s    3 1.00
             18.731137    0.03349459952309
             2.8253937    0.23472694665786
             0.6401217    0.81375731841339
 s    1 1.00
             0.1612778                   1

14 0
 s    3 1.00
             18.731137    0.03349459952309
             2.8253937    0.23472694665786
             0.6401217    0.81375731841339
 s    1 1.00
             0.1612778                   1

15 0
 s    6 1.00
             3047.5249  0.0018347001629433
             457.36951    0.01403730124668
             103.94869   0.068842606114048
             29.210155    0.23218442062076
              9.286663    0.46794134155879
              3.163927    0.36231203217765
 s    3 1.00
             7.8682724   -0.11933240861517
             1.8812885   -0.16085421161283
             0.5442493     1.1434564825515
 s    1 1.00
             0.1687144                   1
 p    3 1.00
             7.8682724   0.068999095584993
             1.8812885    0.31642397975315
             0.5442493    0.74430825237435
 p    1 1.00
             0.1687144                   1
 d    1 1.00
                   0.8                   1

16 0
 s    6 1.00
             3047.5249  0.0018347001629433
             457.36951    0.01403730124668
             103.94869   0.068842606114048
             29.210155    0.23218442062076
              9.286663    0.46794134155879
              3.163927    0.36231203217765
 s    3 1.00
             7.8682724   -0.11933240861517
             1.8812885   -0.16085421161283
             0.5442493     1.1434564825515
 s    1 1.00
             0.1687144                   1
 p    3 1.00
             7.8682724   0.068999095584993
             1.8812885    0.31642397975315
             0.5442493    0.74430825237435
 p    1 1.00
             0.1687144                   1
 d    1 1.00
                   0.8                   1

17 0
 s    6 1.00
             3047.5249  0.0018347001629433
             457.36951    0.01403730124668
             103.94869   0.068842606114048
             29.210155    0.23218442062076
              9.286663    0.46794134155879
              3.163927    0.36231203217765
 s    3 1.00
             7.8682724   -0.11933240861517
             1.8812885   -0.16085421161283
             0.5442493     1.1434564825515
 s    1 1.00
             0.1687144                   1
 p    3 1.00
             7.8682724   0.068999095584993
             1.8812885    0.31642397975315
             0.5442493    0.74430825237435
 p    1 1.00
             0.1687144                   1
 d    1 1.00
                   0.8                   1

18 0
 s    6 1.00
             3047.5249  0.0018347001629433
             457.36951    0.01403730124668
             103.94869   0.068842606114048
             29.210155    0.23218442062076
              9.286663    0.46794134155879
              3.163927    0.36231203217765
 s    3 1.00
             7.8682724   -0.11933240861517
             1.8812885   -0.16085421161283
             0.5442493     1.1434564825515
 s    1 1.00
             0.1687144                   1
 p    3 1.00
             7.8682724   0.068999095584993
             1.8812885    0.31642397975315
             0.5442493    0.74430825237435
 p    1 1.00
             0.1687144                   1
 d    1 1.00
                   0.8                   1

19 0
 s    6 1.00
             3047.5249  0.0018347001629433
             457.36951    0.01403730124668
             103.94869   0.068842606114048
             29.210155    0.23218442062076
              9.286663    0.46794134155879
              3.163927    0.36231203217765
 s    3 1.00
             7.8682724   -0.11933240861517
             1.8812885   -0.16085421161283
             0.5442493     1.1434564825515
 s    1 1.00
             0.1687144                   1
 p    3 1.00
             7.8682724   0.068999095584993
             1.8812885    0.31642397975315
             0.5442493    0.74430825237435
 p    1 1.00
             0.1687144                   1
 d    1 1.00
                   0.8                   1

20 0
 s    6 1.00
             3047.5249  0.0018347001629433
             457.36951    0.01403730124668
             103.94869   0.068842606114048
             29.210155    0.23218442062076
              9.286663    0.46794134155879
              3.163927    0.36231203217765
 s    3 1.00
             7.8682724   -0.11933240861517
             1.8812885   -0.16085421161283
             0.5442493     1.1434564825515
 s    1 1.00
             0.1687144                   1
 p    3 1.00
             7.8682724   0.068999095584993
             1.8812885    0.31642397975315
             0.5442493    0.74430825237435
 p    1 1.00
             0.1687144                   1
 d    1 1.00
                   0.8                   1

21 0
 s    6 1.00
             3047.5249  0.0018347001629433
             457.36951    0.01403730124668
             103.94869   0.068842606114048
             29.210155    0.23218442062076
              9.286663    0.46794134155879
              3.163927    0.36231203217765
 s    3 1.00
             7.8682724   -0.11933240861517
             1.8812885   -0.16085421161283
             0.5442493     1.1434564825515
 s    1 1.00
             0.1687144                   1
 p    3 1.00
             7.8682724   0.068999095584993
             1.8812885    0.31642397975315
             0.5442493    0.74430825237435
 p    1 1.00
             0.1687144                   1
 d    1 1.00
                   0.8                   1

22 0
 s    3 1.00
             18.731137    0.03349459952309
             2.8253937    0.23472694665786
             0.6401217    0.81375731841339
 s    1 1.00
             0.1612778                   1

23 0
 s    3 1.00
             18.731137    0.03349459952309
             2.8253937    0.23472694665786
             0.6401217    0.81375731841339
 s    1 1.00
             0.1612778                   1

24 0
 s    3 1.00
             18.731137    0.03349459952309
             2.8253937    0.23472694665786
             0.6401217    0.81375731841339
 s    1 1.00
             0.1612778                   1

25 0
 s    3 1.00
             18.731137    0.03349459952309
             2.8253937    0.23472694665786
             0.6401217    0.81375731841339
 s    1 1.00
             0.1612778                   1

26 0
 s    3 1.00
             18.731137    0.03349459952309
             2.8253937    0.23472694665786
             0.6401217    0.81375731841339
 s    1 1.00
             0.1612778                   1

27 0
 s    3 1.00
             18.731137    0.03349459952309
             2.8253937    0.23472694665786
             0.6401217    0.81375731841339
 s    1 1.00
             0.1612778                   1

28 0
 s    3 1.00
             18.731137    0.03349459952309
             2.8253937    0.23472694665786
             0.6401217    0.81375731841339
 s    1 1.00
             0.1612778                   1

29 0
 s    3 1.00
             18.731137    0.03349459952309
             2.8253937    0.23472694665786
             0.6401217    0.81375731841339
 s    1 1.00
             0.1612778                   1

30 0
 s    3 1.00
             18.731137    0.03349459952309
             2.8253937    0.23472694665786
             0.6401217    0.81375731841339
 s    1 1.00
             0.1612778                   1

31 0
 s    3 1.00
             18.731137    0.03349459952309
             2.8253937    0.23472694665786
             0.6401217    0.81375731841339
 s    1 1.00
             0.1612778                   1

32 0
 s    3 1.00
             18.731137    0.03349459952309
             2.8253937    0.23472694665786
             0.6401217    0.81375731841339
 s    1 1.00
             0.1612778                   1

33 0
 s    6 1.00
             3047.5249  0.0018347001629433
             457.36951    0.01403730124668
             103.94869   0.068842606114048
             29.210155    0.23218442062076
              9.286663    0.46794134155879
              3.163927    0.36231203217765
 s    3 1.00
             7.8682724   -0.11933240861517
             1.8812885   -0.16085421161283
             0.5442493     1.1434564825515
 s    1 1.00
             0.1687144                   1
 p    3 1.00
             7.8682724   0.068999095584993
             1.8812885    0.31642397975315
             0.5442493    0.74430825237435
 p    1 1.00
             0.1687144                   1
 d    1 1.00
                   0.8                   1

34 0
 s    6 1.00
             3047.5249  0.0018347001629433
             457.36951    0.01403730124668
             103.94869   0.068842606114048
             29.210155    0.23218442062076
              9.286663    0.46794134155879
              3.163927    0.36231203217765
 s    3 1.00
             7.8682724   -0.11933240861517
             1.8812885   -0.16085421161283
             0.5442493     1.1434564825515
 s    1 1.00
             0.1687144                   1
 p    3 1.00
             7.8682724   0.068999095584993
             1.8812885    0.31642397975315
             0.5442493    0.74430825237435
 p    1 1.00
             0.1687144                   1
 d    1 1.00
                   0.8                   1

35 0
 s    3 1.00
             18.731137    0.03349459952309
             2.8253937    0.23472694665786
             0.6401217    0.81375731841339
 s    1 1.00
             0.1612778                   1

36 0
 s    6 1.00
             3047.5249  0.0018347001629433
             457.36951    0.01403730124668
             103.94869   0.068842606114048
             29.210155    0.23218442062076
              9.286663    0.46794134155879
              3.163927    0.36231203217765
 s    3 1.00
             7.8682724   -0.11933240861517
             1.8812885   -0.16085421161283
             0.5442493     1.1434564825515
 s    1 1.00
             0.1687144                   1
 p    3 1.00
             7.8682724   0.068999095584993
             1.8812885    0.31642397975315
             0.5442493    0.74430825237435
 p    1 1.00
             0.1687144                   1
 d    1 1.00
                   0.8                   1

37 0
 s    3 1.00
             18.731137    0.03349459952309
             2.8253937    0.23472694665786
             0.6401217    0.81375731841339
 s    1 1.00
             0.1612778                   1

38 0
 s    3 1.00
             18.731137    0.03349459952309
             2.8253937    0.23472694665786
             0.6401217    0.81375731841339
 s    1 1.00
             0.1612778                   1

39 0
 s    6 1.00
             3047.5249  0.0018347001629433
             457.36951    0.01403730124668
             103.94869   0.068842606114048
             29.210155    0.23218442062076
              9.286663    0.46794134155879
              3.163927    0.36231203217765
 s    3 1.00
             7.8682724   -0.11933240861517
             1.8812885   -0.16085421161283
             0.5442493     1.1434564825515
 s    1 1.00
             0.1687144                   1
 p    3 1.00
             7.8682724   0.068999095584993
             1.8812885    0.31642397975315
             0.5442493    0.74430825237435
 p    1 1.00
             0.1687144                   1
 d    1 1.00
                   0.8                   1

40 0
 s    6 1.00
             3047.5249  0.0018347001629433
             457.36951    0.01403730124668
             103.94869   0.068842606114048
             29.210155    0.23218442062076
              9.286663    0.46794134155879
              3.163927    0.36231203217765
 s    3 1.00
             7.8682724   -0.11933240861517
             1.8812885   -0.16085421161283
             0.5442493     1.1434564825515
 s    1 1.00
             0.1687144                   1
 p    3 1.00
             7.8682724   0.068999095584993
             1.8812885    0.31642397975315
             0.5442493    0.74430825237435
 p    1 1.00
             0.1687144                   1
 d    1 1.00
                   0.8                   1

41 0
 s    3 1.00
             18.731137    0.03349459952309
             2.8253937    0.23472694665786
             0.6401217    0.81375731841339
 s    1 1.00
             0.1612778                   1

42 0
 s    6 1.00
             5484.6717   0.001831099805527
             825.23495   0.013950098518422
             188.04696    0.06844509273075
               52.9645    0.23271427528445
              16.89757    0.47019295006289
             5.7996353    0.35852086192309
 s    3 1.00
             15.539616   -0.11077750382508
             3.5999336   -0.14802630511126
             1.0137618     1.1307670390447
 s    1 1.00
             0.2700058                   1
 p    3 1.00
             15.539616   0.070874299543311
             3.5999336    0.33975279781076
             1.0137618    0.72715859531445
 p    1 1.00
             0.2700058                   1
 d    1 1.00
                   0.8                   1

43 0
 s    3 1.00
             18.731137    0.03349459952309
             2.8253937    0.23472694665786
             0.6401217    0.81375731841339
 s    1 1.00
             0.1612778                   1

[5d]
[7f]
[9g]

[MO]
 Sym= A
 Ene=               0
 Spin= Alpha
 Occup=    1.00000
   1     0.012150199995718
   2    -0.0012878240324346
   3    0.0088273767003638
   4    0.00053053187096299
   5    -0.00015353653257553
   6    0.0012484623483019
   7    3.9325451214024e-06
   8    0.00095440417166245
   9    -0.0040650220800312
  10    -0.0010112160112467
  11    -0.0010404848408867
  12    0.00011657500681906
  13    -0.0002563522198137
  14    7.1473096989003e-05
  15    -0.00042752087105179
  16    -0.00093970132282211
  17      0.99446842075816
  18     0.038607530718933
  19    -0.030528714168633
  20    0.00089620376241674
  21    0.00024215752187272
  22    -0.00015930286236085
  23    -0.0039713664539776
  24    -0.00091396792135961
  25    -0.00068292388735604
  26    0.00077237793566252
  27    -0.00026566050756694
  28    -0.00038881929440239
  29    0.00017996727286377
  30    0.00021855865926232
  31    -0.0013419313336807
  32    0.0039829499774014
  33     0.026235947214826
  34    -0.0011404962530348
  35    0.0079120795457979
  36    0.00092320916874305
  37    0.00051631978440825
  38    -0.0014769754821417
  39    -0.0012163810928996
  40    -0.00055741345226047
  41    0.0032647878905192
  42    -0.00062593439254219
  43    0.0011209332375156
  44    0.00062369557142766
  45    -0.00032339942236333
  46    -0.00051564914787061
  47    -0.00034471460316887
  48    0.00029187163469977
  49    -0.00097277752221616
  50    -0.00027346886181387
  51    -0.0029150188658134
  52    0.00027923031264412
  53    0.00017847305962503
  54    -0.00019330002462283
  55    -0.0017885962815715
  56    -0.0014526887112416
  57    0.0024880939086927
  58    -1.8449722297999e-05
  59    0.0001968505415862
  60    -5.8721293758852e-05
  61    4.4784610992971e-05
  62    -9.8115441760848e-05
  63    -0.00026779970622584
  64    -0.00024806211042881
  65    -2.1445920013286e-06
  66    -5.9580005222943e-06
  67    2.3748471925921e-07
  68    2.3810381781742e-06
  69    -5.2472778431739e-06
  70    -1.136747463993e-08
  71    -2.944099579673e-06
  72    -1.0350146414709e-06
  73    1.2100448699221e-05
  74    2.5620077551423e-05
  75    1.3990614822093e-05
  76    -1.4266554072625e-07
  77    2.0727391130917e-07
  78    -2.2792022202874e-07
  79    2.0082942453105e-07
  80    2.736034770375e-07
  81    2.8464933398161e-06
  82    1.512955708088e-05
  83    -2.3543271835378e-07
  84    -4.4493191947693e-07
  85    -1.4645744001591e-05
  86    1.9224702628794e-06
  87    3.953159637163e-06
  88    1.4377462846234e-06
  89    3.7426599920287e-06
  90    -4.7490125334271e-05
  91    -1.700363768797e-06
  92    1.4141367905881e-06
  93    -1.0168936158069e-06
  94    1.9810718873033e-06
  95    -4.2911254663544e-07
  96    -7.18731284516e-07
  97    4.9015393069561e-06
  98    1.2605165588619e-05
  99    -3.9349285863044e-06
 100    -1.6908177647975e-05
 101    2.3684478738328e-07
 102    -3.4603029600041e-06
 103    5.1385069068767e-05
 104    -2.9496253396266e-06
 105    -9.1098164029873e-06
 106    1.9327967709446e-06
 107    -7.5561288653219e-05
 108    9.3641586053335e-05
 109    6.1353150057147e-05
 110    -6.1516644800963e-06
 111    -4.7433054668919e-08
 112    -5.4050730855806e-08
 113    -2.2492039144178e-08
 114    -1.6336173935808e-06
 115    -2.9066469823492e-06
 116    -2.8544345961884e-05
 117    0.00015401934621512
 118    5.212023058123e-07
 119    -2.6203038874796e-06
 120    4.916395647241e-06
 121    -3.6967499533986e-05
 122    2.763346923749e-05
 123    -4.4003519792728e-06
 124    1.0256154616187e-06
 125    -2.0922632291604e-06
 126    -1.6603116065185e-06
 127    1.2009436197881e-06
 128    -1.2017862978898e-06
 129    -2.9054373890904e-06
 130    -3.2906848783719e-05
 131    -9.1851643218124e-05
 132    -3.1528829371049e-06
 133    -5.9374150219729e-06
 134    1.9658292059516e-05
 135    -0.00011503800105313
 136    -1.2809016980866e-05
 137    -9.6419233854792e-05
 138    -2.1312607571747e-06
 139    9.3188199724671e-06
 140    2.3108398448647e-06
 141    4.8226350617334e-06
 142    5.6118729531862e-06
 143    -1.5224671615467e-06
 144    -1.9360846404547e-05
 145    4.2310018894011e-05
 146    2.8176837495047e-06
 147     5.67549799408e-06
 148    7.5985867017512e-06
 149    -8.9609917124847e-06
 150    -2.7454819273334e-06
 151    -7.3244981327212e-05
 152    -1.7564787331062e-06
 153    -4.4161345295604e-06
 154    -9.7712869584836e-07
 155    1.9148870934494e-06
 156    -1.1830634920882e-06
 157    1.1576033782925e-06
 158    9.6457608396366e-06
 159    -3.4431792142131e-05
 160    4.2102579379368e-06
 161    -3.6609428917438e-07
 162    -1.793193132578e-06
 163    -2.9177381695402e-05
 164    2.4888715861789e-05
 165    1.3280598147608e-05
 166    2.8209317270664e-06
 167    -8.357816285355e-07
 168    -6.1717162267026e-07
 169    1.6133457855082e-06
 170    3.2218220398932e-07
 171    -9.946439601108e-07
 172    -1.5416519015005e-05
 173    3.1071166189757e-05
 174    -3.7508677309559e-06
 175    3.7808753574897e-07
 176    8.8046526112299e-06
 177    -2.6960805140933e-06
 178    -1.3757888613873e-05
 179    -2.9423007959526e-05
 180    1.6429637554149e-06
 181    3.5492943152691e-06
 182    1.1082674339379e-06
 183    -3.2942088336311e-07
 184    5.7709272007476e-07
 185    -1.8970729406995e-06
 186    -1.4433436421616e-05
 187    6.0011845401479e-05
 188    -4.2287864286285e-07
 189    -8.2461163080768e-09
 190    1.1140965574449e-06
 191    -1.8453676019614e-05
 192    -8.9063046014821e-06
 193    -4.4356247626473e-05
 194    1.4785434116419e-06
 195    1.4518548201501e-06
 196    1.2460832055554e-06
 197    6.6350934543324e-08
 198    6.581956947017e-07
 199    -3.3930398312706e-06
 200    4.7789077394702e-06
 201    -3.0739728776066e-06
 202    5.8802052718789e-06
 203    -6.4791111498115e-06
 204    1.1342182502582e-05
 205    -2.8233437106997e-06
 206    -2.341361209056e-05
 207    7.4579699371191e-06
 208    -5.5007229484693e-05
 209    8.3210119665648e-06
 210    -1.4110150767142e-05
 211    4.4766278693729e-06
 212    8.3754060222933e-06
 213    -5.3139700793294e-07
 214    -1.5619992328537e-05
 215    -1.1294491229535e-07
 216    -4.5641255141872e-05
 217    1.1227119182258e-07
 218    1.1715892516209e-05
 219    -1.7989218260685e-06
 220    -6.5275000850858e-06
 221    -5.8264092377243e-06
 222    -5.7294437691077e-05
 223    0.00089444382163129
 224    -1.801506219793e-05
 225    6.7786602895107e-07
 226    -7.0413617302261e-06
 227    0.00066041925707437
 228    0.00022127976913475
 229    -0.00036452279430703
 230    3.4690275194965e-06
 231    -2.6526191043247e-05
 232    -1.1840392471815e-05
 233    1.573028539168e-05
 234    1.5152317692584e-05
 235    -2.0687126647686e-05
 236    -9.336393506956e-05
 237    0.00044358707194366
 238    -3.4296014543462e-05
 239    -5.6803433516167e-06
 240    8.0248300953077e-06
 241    0.00015819353359936
 242     0.000382892066253
 243    -0.001618998234196
 244    2.8238483919164e-05
 245    6.0203934867895e-05
 246    -1.3410646678766e-06
 247    1.5528910395844e-05
 248    -7.4698339116917e-06
 249    -1.0908471050744e-05
 250    0.00031320988286997
 251    3.0220704463883e-05
 252    -0.0002564024923333
 253    -0.00014386863411162
 254    6.3910501856132e-05
 255    -9.3214690952001e-06
 256    0.00023866622340171
 257    -0.0008779514080617
 258    -0.00010933267409025
 259    -0.0011353853301539
 260    -0.00010409464072522
 261    1.3370872827227e-05
 262    1.7278948428073e-05
 263    0.00013287662961869
 264    6.2794123637138e-05
 265    -0.00010105451887533
 266    0.00012460022708783
 267    -0.00013942468685575
 268    -0.00066792587827943
 269    -3.2693940825505e-05
 270    -0.0002799746961389
 271    0.0036966845091543
 272    -6.1857731869402e-05
 273    -3.1147768486911e-05
 274    3.9625118785704e-05
 275    -0.0012283441703348
 276    -0.00053409360583903
 277    0.0020944255864657
 278    9.2674673856369e-05
 279    -8.9852913448194e-05
 280    -5.1214436565705e-05