[Molden Format]
made by pyscf v[2.0.1]
[Atoms] (AU)
C   1   6     0.69100024066471     0.64692934207205    -3.48223131169301
H   2   1     2.68052439830868     1.13355088658700    -3.25784032593313
C   3   6    -0.36286361513219     0.85440132524594    -5.97030179418974
H   4   1    -2.35448549047279     0.36322488579172    -6.17995817793143
C   5   6     0.93697958957450     1.61209284601821    -8.05828437677121
H   6   1     1.01317567978386     3.61775130597871    -8.51923024455703
C   7   6     2.23318006711868    -0.09916996805052    -9.71591146992396
H   8   1     2.14101227267567    -2.10272353634710    -9.22908458474476
H   9   1     1.55630230933075    -1.92953025305990    12.99630010416247
C   10   6     0.75233899775814    -2.21270439606481    11.10705728102219
H   11   1    -0.43433408177274    -3.90944857546550    11.22216085340412
C   12   6     2.86362581178706    -2.63237380607947     9.17926416456045
H   13   1     4.39038949912609    -1.24955421540245     9.49899813497433
H   14   1     3.74629220191363    -4.48798724300892     9.47414880959024
C   15   6     2.02478325613682    -2.42177285709634     6.44560829588644
C   16   6     3.88048732735477    -3.58795445234514     4.61402886975252
C   17   6    -0.18412382258602    -1.30464291234259     5.76021113872346
C   18   6    -2.10044360464350    -0.26837831858460     7.71610340967100
C   19   6    -3.08956938670431     2.35282328359417     6.88693925039594
C   20   6    -4.37372924086464    -2.09766595989678     7.93610724222001
C   21   6    -0.83850430601230     0.06372213486173    10.33002307638377
H   22   1     0.38411922151109     1.74281358582432    10.27380136542181
H   23   1    -2.30980003007874     0.45460143924521    11.73986301809809
H   24   1     4.58527064644668    -5.38706904487420     5.36778158031719
H   25   1     5.54944938085014    -2.37631462192748     4.35398898413318
H   26   1     3.06633019150423    -3.94118377050688     2.75255466040884
H   27   1    -4.17727778763735     2.26573369139522     5.12914900961283
H   28   1    -1.52662344944051     3.68001877445626     6.59540397144508
H   29   1    -4.32916174397830     3.13643051467482     8.35225460090378
H   30   1    -5.32329548508442    -2.36691813602939     6.11583672749896
H   31   1    -5.77989366602257    -1.33896741843465     9.25748940450990
H   32   1    -3.79310905208926    -3.96389819310853     8.61386170102686
C   33   6    -1.01100794811226    -1.06331657314144     3.11929490449947
C   34   6     0.37686231036534    -0.33275864505552     1.09165013605873
H   35   1    -3.01671213906703    -1.40297922279997     2.77827895090944
C   36   6    -0.64382707979370    -0.11591880174385    -1.42063131251064
H   37   1     2.35569259782137     0.17174499283897     1.33641070251401
H   38   1    -2.63317482980319    -0.60229203511219    -1.66119700387645
C   39   6     3.54725246111133     0.56802416581284   -11.81467283923754
C   40   6     4.80361465317200    -1.32115012773234   -13.38298311351627
H   41   1     3.71304591439982     2.53035338251259   -12.40589607739641
O   42   8     6.01278787963721    -0.85546385399510   -15.29134904549642
H   43   1     4.58468921437884    -3.30497271823068   -12.70718839688766
[GTO]
1 0
 s    6 1.00
             3047.5249  0.0018347001629433
             457.36951    0.01403730124668
             103.94869   0.068842606114048
             29.210155    0.23218442062076
              9.286663    0.46794134155879
              3.163927    0.36231203217765
 s    3 1.00
             7.8682724   -0.11933240861517
             1.8812885   -0.16085421161283
             0.5442493     1.1434564825515
 s    1 1.00
             0.1687144                   1
 p    3 1.00
             7.8682724   0.068999095584993
             1.8812885    0.31642397975315
             0.5442493    0.74430825237435
 p    1 1.00
             0.1687144                   1
 d    1 1.00
                   0.8                   1

2 0
 s    3 1.00
             18.731137    0.03349459952309
             2.8253937    0.23472694665786
             0.6401217    0.81375731841339
 s    1 1.00
             0.1612778                   1

3 0
 s    6 1.00
             3047.5249  0.0018347001629433
             457.36951    0.01403730124668
             103.94869   0.068842606114048
             29.210155    0.23218442062076
              9.286663    0.46794134155879
              3.163927    0.36231203217765
 s    3 1.00
             7.8682724   -0.11933240861517
             1.8812885   -0.16085421161283
             0.5442493     1.1434564825515
 s    1 1.00
             0.1687144                   1
 p    3 1.00
             7.8682724   0.068999095584993
             1.8812885    0.31642397975315
             0.5442493    0.74430825237435
 p    1 1.00
             0.1687144                   1
 d    1 1.00
                   0.8                   1

4 0
 s    3 1.00
             18.731137    0.03349459952309
             2.8253937    0.23472694665786
             0.6401217    0.81375731841339
 s    1 1.00
             0.1612778                   1

5 0
 s    6 1.00
             3047.5249  0.0018347001629433
             457.36951    0.01403730124668
             103.94869   0.068842606114048
             29.210155    0.23218442062076
              9.286663    0.46794134155879
              3.163927    0.36231203217765
 s    3 1.00
             7.8682724   -0.11933240861517
             1.8812885   -0.16085421161283
             0.5442493     1.1434564825515
 s    1 1.00
             0.1687144                   1
 p    3 1.00
             7.8682724   0.068999095584993
             1.8812885    0.31642397975315
             0.5442493    0.74430825237435
 p    1 1.00
             0.1687144                   1
 d    1 1.00
                   0.8                   1

6 0
 s    3 1.00
             18.731137    0.03349459952309
             2.8253937    0.23472694665786
             0.6401217    0.81375731841339
 s    1 1.00
             0.1612778                   1

7 0
 s    6 1.00
             3047.5249  0.0018347001629433
             457.36951    0.01403730124668
             103.94869   0.068842606114048
             29.210155    0.23218442062076
              9.286663    0.46794134155879
              3.163927    0.36231203217765
 s    3 1.00
             7.8682724   -0.11933240861517
             1.8812885   -0.16085421161283
             0.5442493     1.1434564825515
 s    1 1.00
             0.1687144                   1
 p    3 1.00
             7.8682724   0.068999095584993
             1.8812885    0.31642397975315
             0.5442493    0.74430825237435
 p    1 1.00
             0.1687144                   1
 d    1 1.00
                   0.8                   1

8 0
 s    3 1.00
             18.731137    0.03349459952309
             2.8253937    0.23472694665786
             0.6401217    0.81375731841339
 s    1 1.00
             0.1612778                   1

9 0
 s    3 1.00
             18.731137    0.03349459952309
             2.8253937    0.23472694665786
             0.6401217    0.81375731841339
 s    1 1.00
             0.1612778                   1

10 0
 s    6 1.00
             3047.5249  0.0018347001629433
             457.36951    0.01403730124668
             103.94869   0.068842606114048
             29.210155    0.23218442062076
              9.286663    0.46794134155879
              3.163927    0.36231203217765
 s    3 1.00
             7.8682724   -0.11933240861517
             1.8812885   -0.16085421161283
             0.5442493     1.1434564825515
 s    1 1.00
             0.1687144                   1
 p    3 1.00
             7.8682724   0.068999095584993
             1.8812885    0.31642397975315
             0.5442493    0.74430825237435
 p    1 1.00
             0.1687144                   1
 d    1 1.00
                   0.8                   1

11 0
 s    3 1.00
             18.731137    0.03349459952309
             2.8253937    0.23472694665786
             0.6401217    0.81375731841339
 s    1 1.00
             0.1612778                   1

12 0
 s    6 1.00
             3047.5249  0.0018347001629433
             457.36951    0.01403730124668
             103.94869   0.068842606114048
             29.210155    0.23218442062076
              9.286663    0.46794134155879
              3.163927    0.36231203217765
 s    3 1.00
             7.8682724   -0.11933240861517
             1.8812885   -0.16085421161283
             0.5442493     1.1434564825515
 s    1 1.00
             0.1687144                   1
 p    3 1.00
             7.8682724   0.068999095584993
             1.8812885    0.31642397975315
             0.5442493    0.74430825237435
 p    1 1.00
             0.1687144                   1
 d    1 1.00
                   0.8                   1

13 0
 s    3 1.00
             18.731137    0.03349459952309
             2.8253937    0.23472694665786
             0.6401217    0.81375731841339
 s    1 1.00
             0.1612778                   1

14 0
 s    3 1.00
             18.731137    0.03349459952309
             2.8253937    0.23472694665786
             0.6401217    0.81375731841339
 s    1 1.00
             0.1612778                   1

15 0
 s    6 1.00
             3047.5249  0.0018347001629433
             457.36951    0.01403730124668
             103.94869   0.068842606114048
             29.210155    0.23218442062076
              9.286663    0.46794134155879
              3.163927    0.36231203217765
 s    3 1.00
             7.8682724   -0.11933240861517
             1.8812885   -0.16085421161283
             0.5442493     1.1434564825515
 s    1 1.00
             0.1687144                   1
 p    3 1.00
             7.8682724   0.068999095584993
             1.8812885    0.31642397975315
             0.5442493    0.74430825237435
 p    1 1.00
             0.1687144                   1
 d    1 1.00
                   0.8                   1

16 0
 s    6 1.00
             3047.5249  0.0018347001629433
             457.36951    0.01403730124668
             103.94869   0.068842606114048
             29.210155    0.23218442062076
              9.286663    0.46794134155879
              3.163927    0.36231203217765
 s    3 1.00
             7.8682724   -0.11933240861517
             1.8812885   -0.16085421161283
             0.5442493     1.1434564825515
 s    1 1.00
             0.1687144                   1
 p    3 1.00
             7.8682724   0.068999095584993
             1.8812885    0.31642397975315
             0.5442493    0.74430825237435
 p    1 1.00
             0.1687144                   1
 d    1 1.00
                   0.8                   1

17 0
 s    6 1.00
             3047.5249  0.0018347001629433
             457.36951    0.01403730124668
             103.94869   0.068842606114048
             29.210155    0.23218442062076
              9.286663    0.46794134155879
              3.163927    0.36231203217765
 s    3 1.00
             7.8682724   -0.11933240861517
             1.8812885   -0.16085421161283
             0.5442493     1.1434564825515
 s    1 1.00
             0.1687144                   1
 p    3 1.00
             7.8682724   0.068999095584993
             1.8812885    0.31642397975315
             0.5442493    0.74430825237435
 p    1 1.00
             0.1687144                   1
 d    1 1.00
                   0.8                   1

18 0
 s    6 1.00
             3047.5249  0.0018347001629433
             457.36951    0.01403730124668
             103.94869   0.068842606114048
             29.210155    0.23218442062076
              9.286663    0.46794134155879
              3.163927    0.36231203217765
 s    3 1.00
             7.8682724   -0.11933240861517
             1.8812885   -0.16085421161283
             0.5442493     1.1434564825515
 s    1 1.00
             0.1687144                   1
 p    3 1.00
             7.8682724   0.068999095584993
             1.8812885    0.31642397975315
             0.5442493    0.74430825237435
 p    1 1.00
             0.1687144                   1
 d    1 1.00
                   0.8                   1

19 0
 s    6 1.00
             3047.5249  0.0018347001629433
             457.36951    0.01403730124668
             103.94869   0.068842606114048
             29.210155    0.23218442062076
              9.286663    0.46794134155879
              3.163927    0.36231203217765
 s    3 1.00
             7.8682724   -0.11933240861517
             1.8812885   -0.16085421161283
             0.5442493     1.1434564825515
 s    1 1.00
             0.1687144                   1
 p    3 1.00
             7.8682724   0.068999095584993
             1.8812885    0.31642397975315
             0.5442493    0.74430825237435
 p    1 1.00
             0.1687144                   1
 d    1 1.00
                   0.8                   1

20 0
 s    6 1.00
             3047.5249  0.0018347001629433
             457.36951    0.01403730124668
             103.94869   0.068842606114048
             29.210155    0.23218442062076
              9.286663    0.46794134155879
              3.163927    0.36231203217765
 s    3 1.00
             7.8682724   -0.11933240861517
             1.8812885   -0.16085421161283
             0.5442493     1.1434564825515
 s    1 1.00
             0.1687144                   1
 p    3 1.00
             7.8682724   0.068999095584993
             1.8812885    0.31642397975315
             0.5442493    0.74430825237435
 p    1 1.00
             0.1687144                   1
 d    1 1.00
                   0.8                   1

21 0
 s    6 1.00
             3047.5249  0.0018347001629433
             457.36951    0.01403730124668
             103.94869   0.068842606114048
             29.210155    0.23218442062076
              9.286663    0.46794134155879
              3.163927    0.36231203217765
 s    3 1.00
             7.8682724   -0.11933240861517
             1.8812885   -0.16085421161283
             0.5442493     1.1434564825515
 s    1 1.00
             0.1687144                   1
 p    3 1.00
             7.8682724   0.068999095584993
             1.8812885    0.31642397975315
             0.5442493    0.74430825237435
 p    1 1.00
             0.1687144                   1
 d    1 1.00
                   0.8                   1

22 0
 s    3 1.00
             18.731137    0.03349459952309
             2.8253937    0.23472694665786
             0.6401217    0.81375731841339
 s    1 1.00
             0.1612778                   1

23 0
 s    3 1.00
             18.731137    0.03349459952309
             2.8253937    0.23472694665786
             0.6401217    0.81375731841339
 s    1 1.00
             0.1612778                   1

24 0
 s    3 1.00
             18.731137    0.03349459952309
             2.8253937    0.23472694665786
             0.6401217    0.81375731841339
 s    1 1.00
             0.1612778                   1

25 0
 s    3 1.00
             18.731137    0.03349459952309
             2.8253937    0.23472694665786
             0.6401217    0.81375731841339
 s    1 1.00
             0.1612778                   1

26 0
 s    3 1.00
             18.731137    0.03349459952309
             2.8253937    0.23472694665786
             0.6401217    0.81375731841339
 s    1 1.00
             0.1612778                   1

27 0
 s    3 1.00
             18.731137    0.03349459952309
             2.8253937    0.23472694665786
             0.6401217    0.81375731841339
 s    1 1.00
             0.1612778                   1

28 0
 s    3 1.00
             18.731137    0.03349459952309
             2.8253937    0.23472694665786
             0.6401217    0.81375731841339
 s    1 1.00
             0.1612778                   1

29 0
 s    3 1.00
             18.731137    0.03349459952309
             2.8253937    0.23472694665786
             0.6401217    0.81375731841339
 s    1 1.00
             0.1612778                   1

30 0
 s    3 1.00
             18.731137    0.03349459952309
             2.8253937    0.23472694665786
             0.6401217    0.81375731841339
 s    1 1.00
             0.1612778                   1

31 0
 s    3 1.00
             18.731137    0.03349459952309
             2.8253937    0.23472694665786
             0.6401217    0.81375731841339
 s    1 1.00
             0.1612778                   1

32 0
 s    3 1.00
             18.731137    0.03349459952309
             2.8253937    0.23472694665786
             0.6401217    0.81375731841339
 s    1 1.00
             0.1612778                   1

33 0
 s    6 1.00
             3047.5249  0.0018347001629433
             457.36951    0.01403730124668
             103.94869   0.068842606114048
             29.210155    0.23218442062076
              9.286663    0.46794134155879
              3.163927    0.36231203217765
 s    3 1.00
             7.8682724   -0.11933240861517
             1.8812885   -0.16085421161283
             0.5442493     1.1434564825515
 s    1 1.00
             0.1687144                   1
 p    3 1.00
             7.8682724   0.068999095584993
             1.8812885    0.31642397975315
             0.5442493    0.74430825237435
 p    1 1.00
             0.1687144                   1
 d    1 1.00
                   0.8                   1

34 0
 s    6 1.00
             3047.5249  0.0018347001629433
             457.36951    0.01403730124668
             103.94869   0.068842606114048
             29.210155    0.23218442062076
              9.286663    0.46794134155879
              3.163927    0.36231203217765
 s    3 1.00
             7.8682724   -0.11933240861517
             1.8812885   -0.16085421161283
             0.5442493     1.1434564825515
 s    1 1.00
             0.1687144                   1
 p    3 1.00
             7.8682724   0.068999095584993
             1.8812885    0.31642397975315
             0.5442493    0.74430825237435
 p    1 1.00
             0.1687144                   1
 d    1 1.00
                   0.8                   1

35 0
 s    3 1.00
             18.731137    0.03349459952309
             2.8253937    0.23472694665786
             0.6401217    0.81375731841339
 s    1 1.00
             0.1612778                   1

36 0
 s    6 1.00
             3047.5249  0.0018347001629433
             457.36951    0.01403730124668
             103.94869   0.068842606114048
             29.210155    0.23218442062076
              9.286663    0.46794134155879
              3.163927    0.36231203217765
 s    3 1.00
             7.8682724   -0.11933240861517
             1.8812885   -0.16085421161283
             0.5442493     1.1434564825515
 s    1 1.00
             0.1687144                   1
 p    3 1.00
             7.8682724   0.068999095584993
             1.8812885    0.31642397975315
             0.5442493    0.74430825237435
 p    1 1.00
             0.1687144                   1
 d    1 1.00
                   0.8                   1

37 0
 s    3 1.00
             18.731137    0.03349459952309
             2.8253937    0.23472694665786
             0.6401217    0.81375731841339
 s    1 1.00
             0.1612778                   1

38 0
 s    3 1.00
             18.731137    0.03349459952309
             2.8253937    0.23472694665786
             0.6401217    0.81375731841339
 s    1 1.00
             0.1612778                   1

39 0
 s    6 1.00
             3047.5249  0.0018347001629433
             457.36951    0.01403730124668
             103.94869   0.068842606114048
             29.210155    0.23218442062076
              9.286663    0.46794134155879
              3.163927    0.36231203217765
 s    3 1.00
             7.8682724   -0.11933240861517
             1.8812885   -0.16085421161283
             0.5442493     1.1434564825515
 s    1 1.00
             0.1687144                   1
 p    3 1.00
             7.8682724   0.068999095584993
             1.8812885    0.31642397975315
             0.5442493    0.74430825237435
 p    1 1.00
             0.1687144                   1
 d    1 1.00
                   0.8                   1

40 0
 s    6 1.00
             3047.5249  0.0018347001629433
             457.36951    0.01403730124668
             103.94869   0.068842606114048
             29.210155    0.23218442062076
              9.286663    0.46794134155879
              3.163927    0.36231203217765
 s    3 1.00
             7.8682724   -0.11933240861517
             1.8812885   -0.16085421161283
             0.5442493     1.1434564825515
 s    1 1.00
             0.1687144                   1
 p    3 1.00
             7.8682724   0.068999095584993
             1.8812885    0.31642397975315
             0.5442493    0.74430825237435
 p    1 1.00
             0.1687144                   1
 d    1 1.00
                   0.8                   1

41 0
 s    3 1.00
             18.731137    0.03349459952309
             2.8253937    0.23472694665786
             0.6401217    0.81375731841339
 s    1 1.00
             0.1612778                   1

42 0
 s    6 1.00
             5484.6717   0.001831099805527
             825.23495   0.013950098518422
             188.04696    0.06844509273075
               52.9645    0.23271427528445
              16.89757    0.47019295006289
             5.7996353    0.35852086192309
 s    3 1.00
             15.539616   -0.11077750382508
             3.5999336   -0.14802630511126
             1.0137618     1.1307670390447
 s    1 1.00
             0.2700058                   1
 p    3 1.00
             15.539616   0.070874299543311
             3.5999336    0.33975279781076
             1.0137618    0.72715859531445
 p    1 1.00
             0.2700058                   1
 d    1 1.00
                   0.8                   1

43 0
 s    3 1.00
             18.731137    0.03349459952309
             2.8253937    0.23472694665786
             0.6401217    0.81375731841339
 s    1 1.00
             0.1612778                   1

[5d]
[7f]
[9g]

[MO]
 Sym= A
 Ene=               0
 Spin= Alpha
 Occup=    1.00000
   1     0.002552690468519
   2      0.29655897377651
   3      0.19879802628401
   4    -0.075662630004465
   5    -0.049742574981326
   6       0.1460000603446
   7     0.011103787582629
   8    -0.0072176771038119
   9     0.050434389225916
  10    0.0040006754297118
  11    -0.005179515144543
  12    -0.0047744997734253
  13    0.0072786600849969
  14    0.0058599537288177
  15     0.065363035649498
  16    -0.0036740253075272
  17    -0.0086008998713761
  18     0.045302557265388
  19     0.020796981114337
  20    -0.0064755262426594
  21    -0.012065649173391
  22     0.051677767617943
  23    -0.012156929846304
  24    -0.0081835893005383
  25     0.027690771438654
  26    0.0062524604125091
  27    0.0023102822569458
  28    -0.0018960928091755
  29    0.00087915857508395
  30    0.00015402175483894
  31     0.012494076416305
  32    -0.00042056337133876
  33    0.00095646774809778
  34    -0.00092823029491315
  35     0.020687747177964
  36    0.0016667797457769
  37    0.0010348734401586
  38    -0.006960132454267
  39    -0.0063671759397392
  40    -0.006467230348351
  41    0.0018279414930379
  42    -6.4390451522543e-09
  43    -0.00081863709532183
  44    0.00018502855753472
  45    7.3827234316725e-06
  46    -8.405566027106e-05
  47    0.0013640837708259
  48    0.0029191136443088
  49    -0.00041105887171502
  50     0.022244603998348
  51     0.013103503799717
  52    0.0074053770569523
  53    0.00046385825713565
  54    -0.010560606474444
  55     0.006426877290101
  56    -0.0023365753833985
  57    -0.0065168719388837
  58    9.2824235562942e-05
  59    -0.00057245388920855
  60    -0.00050080038968843
  61    -0.00040483088584268
  62    0.00023023459478437
  63    0.0060485084405393
  64    0.0014624175011265
  65    2.8387562015608e-05
  66    -2.7195923461165e-05
  67    1.2758819438957e-05
  68    4.5527460062291e-05
  69    -0.00043834948582165
  70    2.2765272729132e-06
  71    -2.3322952423103e-05
  72    -4.6223143851245e-06
  73    0.00027954900696896
  74    0.00034959081847165
  75    0.00029117767478553
  76    2.8960188415301e-05
  77    1.0471120751993e-05
  78    -9.716840980728e-06
  79    -9.3616884574458e-06
  80    8.6305916971958e-06
  81    4.1700738127782e-06
  82    0.00032293008218564
  83    -2.8997705982129e-05
  84    0.00015032760209634
  85     0.001331786328271
  86    -0.00020343980906173
  87    6.8092037755264e-05
  88    -0.00031210905367325
  89    -0.00048164874228051
  90    -0.00041435825127188
  91    -0.00056610478323034
  92    -4.20055637205e-06
  93    2.3091044158459e-05
  94    -1.7724869904667e-05
  95    -6.5170440028202e-06
  96    -1.3374269777037e-05
  97    -9.2065285187914e-05
  98    1.2094488752205e-05
  99    -3.9274069842438e-05
 100    -9.3883169151843e-05
 101    9.7084152448331e-05
 102    -8.2101453508979e-05
 103    -0.0013729416737339
 104    0.00011219283428554
 105    0.0002976786726371
 106    0.00041047473837634
 107    0.0028173287390353
 108    -0.0006248965427381
 109    -0.0032769685613402
 110    3.9137066110299e-05
 111    8.7107049286392e-05
 112    -2.758962556076e-05
 113    -6.400990687012e-05
 114    2.7372683967357e-05
 115    8.6980416412967e-05
 116    -0.00022696556825105
 117    -0.0022205391533404
 118    0.00011283448869387
 119    -0.00039785249820434
 120    7.1830967422732e-05
 121    0.0004435396760268
 122    -0.00015256267255451
 123    -0.0015389800358778
 124    1.4714129587953e-05
 125    5.2941263099744e-05
 126    -5.1433677673888e-05
 127    -1.0668719100913e-05
 128    8.3265083639951e-06
 129    1.8619428585445e-05
 130    0.00067793926171336
 131    -0.012054552675019
 132    -0.00017577639582127
 133    -5.6549258762156e-05
 134    -0.00059771408174757
 135    0.0017572469055839
 136    -0.0013275488569655
 137     0.013020371655013
 138    -0.00039128913436901
 139    7.8886145526019e-05
 140    0.00015393913564485
 141    6.670702521832e-05
 142    9.5650041788098e-05
 143    4.8813169893226e-05
 144    -8.3350853529984e-06
 145    -0.0021222130185409
 146    0.00011928161909765
 147    0.00010460954594493
 148    0.00033868645805783
 149    -0.0027577066722642
 150    0.0017471107326404
 151    -0.002232913116467
 152    8.7082923812852e-05
 153    -3.3467689526973e-05
 154    -4.262715785237e-05
 155    -5.5609293472989e-05
 156    5.4660676441765e-05
 157    1.175562438015e-05
 158    0.00020024037787436
 159    -0.0016237315058232
 160    4.2606942499139e-05
 161    2.1005267257379e-06
 162    -0.00010595444027055
 163    -1.4887198486774e-05
 164    0.0010260071719252
 165    0.00025729879697645
 166    2.2124157524156e-05
 167    9.2529235116206e-07
 168    1.0845113452165e-06
 169    5.522101382217e-05
 170    -7.4006076836683e-06
 171    1.2986111471727e-05
 172    -0.00024755833814897
 173    0.00035973474772788
 174    -1.5581143419103e-05
 175    9.3735168612281e-06
 176    0.00032762659337028
 177    0.00043752253604214
 178    -0.000774947760291
 179    -7.9734236912886e-05
 180    3.9370311794897e-06
 181    5.2692707865357e-05
 182    1.9232405520146e-05
 183    3.4681527774598e-05
 184    -8.1627013952202e-06
 185    -6.9776270118935e-06
 186    8.4066815350469e-06
 187    0.0017966363582195
 188    1.8810935449027e-05
 189    -5.0101798295375e-05
 190    -0.00022744154933157
 191    -0.00094159126762103
 192    -0.00048034827759393
 193    -0.00050290981696795
 194    2.5283754163799e-05
 195    3.5705205682568e-05
 196    2.8935530146236e-05
 197    -5.4463859107016e-06
 198    2.105700221488e-05
 199    -2.1500314044295e-05
 200    0.00031656207639245
 201    -7.7066506082402e-05
 202    -0.00038197176423356
 203    0.00025273832677713
 204    0.00087433067950808
 205    -0.00024530417076479
 206    -0.000223065226917
 207    0.00016717340821041
 208    -0.0008445961982017
 209    0.0001374928085033
 210    0.00022008502034615
 211    4.5877266263208e-05
 212    -9.5238316769041e-05
 213    -2.0916238455843e-05
 214    -0.00029852634993531
 215    -6.241930739502e-05
 216    -0.00066395717486104
 217    7.8013281911832e-05
 218    0.00048020202074371
 219    -7.8573717662478e-06
 220    -0.00050401539314369
 221    0.0011837286141755
 222    -0.0028596280780048
 223     0.025027586061853
 224    -0.0013175117522155
 225    -0.0017520783942876
 226     0.002836853458816
 227     0.017670340228214
 228    0.0015481661441324
 229    0.0089068474391547
 230    0.00018279811067856
 231    -0.00016200872984005
 232    -0.0001693590620512
 233    0.00018555357910273
 234    0.00017581008276933
 235    -0.0081452056959075
 236     0.042480431915851
 237     0.019836683935434
 238    0.0069875131203966
 239     0.011496225615205
 240    -0.047886851126344
 241    0.0077684104304593
 242    0.0083093491457482
 243     -0.03077378199493
 244    0.0063191250106296
 245    0.0019687335836211
 246    -0.0019756470056911
 247    0.00090756568158526
 248    0.00021254237818095
 249    0.00087129114967141
 250     0.008752571883254
 251    0.0011898119881235
 252      0.29435750977658
 253      0.18726761938807
 254     0.078497073407892
 255     0.050651107452005
 256     -0.14789036719581
 257    -0.013059433652666
 258    0.0067606860328808
 259    -0.047114874270333
 260    0.0037408747795797
 261    -0.0053093912329875
 262    -0.0042827917214094
 263    0.0074420701532404
 264    0.0053718364295309
 265     0.011760451768737
 266    0.0017270805397432
 267     0.063334331636033
 268    -0.0049229727212706
 269    0.0011216742309311
 270     0.023723851215222
 271      0.01115189137856
 272    -0.0053616825059672
 273    -0.004266244585767
 274    0.0087118961603095
 275    -0.0017479530890815
 276    0.0040750340588116
 277    0.0015763739740234
 278    0.00021406929489145
 279    -0.00069066402834696
 280    -0.00042807901412572
 281    -0.0004194041180378
 282    0.00014607846703179
 283    -0.0012618417703214
 284    0.0058053446305147
 285    0.0066042766512566