[Molden Format]
made by pyscf v[2.0.1]
[Atoms] (AU)
C   1   6     0.69100024066471     0.64692934207205    -3.48223131169301
H   2   1     2.68052439830868     1.13355088658700    -3.25784032593313
C   3   6    -0.36286361513219     0.85440132524594    -5.97030179418974
H   4   1    -2.35448549047279     0.36322488579172    -6.17995817793143
C   5   6     0.93697958957450     1.61209284601821    -8.05828437677121
H   6   1     0.85962833397368     3.59050820045091    -8.62470494839578
C   7   6     2.42635389771936    -0.06497183323565    -9.58324401854610
H   8   1     2.48676726707897    -2.04132781761705    -8.99156043119802
H   9   1     1.55630230933075    -1.92953025305990    12.99630010416247
C   10   6     0.75233899775814    -2.21270439606481    11.10705728102219
H   11   1    -0.43433408177274    -3.90944857546550    11.22216085340412
C   12   6     2.86362581178706    -2.63237380607947     9.17926416456045
H   13   1     4.39038949912609    -1.24955421540245     9.49899813497433
H   14   1     3.74629220191363    -4.48798724300892     9.47414880959024
C   15   6     2.02478325613682    -2.42177285709634     6.44560829588644
C   16   6     3.88048732735477    -3.58795445234514     4.61402886975252
C   17   6    -0.18412382258602    -1.30464291234259     5.76021113872346
C   18   6    -2.10044360464350    -0.26837831858460     7.71610340967100
C   19   6    -3.08956938670431     2.35282328359417     6.88693925039594
C   20   6    -4.37372924086464    -2.09766595989678     7.93610724222001
C   21   6    -0.83850430601230     0.06372213486173    10.33002307638377
H   22   1     0.38411922151109     1.74281358582432    10.27380136542181
H   23   1    -2.30980003007874     0.45460143924521    11.73986301809809
H   24   1     4.58527064644668    -5.38706904487420     5.36778158031719
H   25   1     5.54944938085014    -2.37631462192748     4.35398898413318
H   26   1     3.06633019150423    -3.94118377050688     2.75255466040884
H   27   1    -4.17727778763735     2.26573369139522     5.12914900961283
H   28   1    -1.52662344944051     3.68001877445626     6.59540397144508
H   29   1    -4.32916174397830     3.13643051467482     8.35225460090378
H   30   1    -5.32329548508442    -2.36691813602939     6.11583672749896
H   31   1    -5.77989366602257    -1.33896741843465     9.25748940450990
H   32   1    -3.79310905208926    -3.96389819310853     8.61386170102686
C   33   6    -1.01100794811226    -1.06331657314144     3.11929490449947
C   34   6     0.37686231036534    -0.33275864505552     1.09165013605873
H   35   1    -3.01671213906703    -1.40297922279997     2.77827895090944
C   36   6    -0.64382707979370    -0.11591880174385    -1.42063131251064
H   37   1     2.35569259782137     0.17174499283897     1.33641070251401
H   38   1    -2.63317482980319    -0.60229203511219    -1.66119700387645
C   39   6     3.74832505967432     0.60333842975764   -11.67668310140841
C   40   6     5.21001738076888    -1.24955999097241   -13.10400422335708
H   41   1     3.76814643119893     2.53960520723023   -12.36823673003836
O   42   8     6.43815552067501    -0.78092818090474   -14.99949494178040
H   43   1     5.13629360998863    -3.20740752771493   -12.32839043702936
[GTO]
1 0
 s    6 1.00
             3047.5249  0.0018347001629433
             457.36951    0.01403730124668
             103.94869   0.068842606114048
             29.210155    0.23218442062076
              9.286663    0.46794134155879
              3.163927    0.36231203217765
 s    3 1.00
             7.8682724   -0.11933240861517
             1.8812885   -0.16085421161283
             0.5442493     1.1434564825515
 s    1 1.00
             0.1687144                   1
 p    3 1.00
             7.8682724   0.068999095584993
             1.8812885    0.31642397975315
             0.5442493    0.74430825237435
 p    1 1.00
             0.1687144                   1
 d    1 1.00
                   0.8                   1

2 0
 s    3 1.00
             18.731137    0.03349459952309
             2.8253937    0.23472694665786
             0.6401217    0.81375731841339
 s    1 1.00
             0.1612778                   1

3 0
 s    6 1.00
             3047.5249  0.0018347001629433
             457.36951    0.01403730124668
             103.94869   0.068842606114048
             29.210155    0.23218442062076
              9.286663    0.46794134155879
              3.163927    0.36231203217765
 s    3 1.00
             7.8682724   -0.11933240861517
             1.8812885   -0.16085421161283
             0.5442493     1.1434564825515
 s    1 1.00
             0.1687144                   1
 p    3 1.00
             7.8682724   0.068999095584993
             1.8812885    0.31642397975315
             0.5442493    0.74430825237435
 p    1 1.00
             0.1687144                   1
 d    1 1.00
                   0.8                   1

4 0
 s    3 1.00
             18.731137    0.03349459952309
             2.8253937    0.23472694665786
             0.6401217    0.81375731841339
 s    1 1.00
             0.1612778                   1

5 0
 s    6 1.00
             3047.5249  0.0018347001629433
             457.36951    0.01403730124668
             103.94869   0.068842606114048
             29.210155    0.23218442062076
              9.286663    0.46794134155879
              3.163927    0.36231203217765
 s    3 1.00
             7.8682724   -0.11933240861517
             1.8812885   -0.16085421161283
             0.5442493     1.1434564825515
 s    1 1.00
             0.1687144                   1
 p    3 1.00
             7.8682724   0.068999095584993
             1.8812885    0.31642397975315
             0.5442493    0.74430825237435
 p    1 1.00
             0.1687144                   1
 d    1 1.00
                   0.8                   1

6 0
 s    3 1.00
             18.731137    0.03349459952309
             2.8253937    0.23472694665786
             0.6401217    0.81375731841339
 s    1 1.00
             0.1612778                   1

7 0
 s    6 1.00
             3047.5249  0.0018347001629433
             457.36951    0.01403730124668
             103.94869   0.068842606114048
             29.210155    0.23218442062076
              9.286663    0.46794134155879
              3.163927    0.36231203217765
 s    3 1.00
             7.8682724   -0.11933240861517
             1.8812885   -0.16085421161283
             0.5442493     1.1434564825515
 s    1 1.00
             0.1687144                   1
 p    3 1.00
             7.8682724   0.068999095584993
             1.8812885    0.31642397975315
             0.5442493    0.74430825237435
 p    1 1.00
             0.1687144                   1
 d    1 1.00
                   0.8                   1

8 0
 s    3 1.00
             18.731137    0.03349459952309
             2.8253937    0.23472694665786
             0.6401217    0.81375731841339
 s    1 1.00
             0.1612778                   1

9 0
 s    3 1.00
             18.731137    0.03349459952309
             2.8253937    0.23472694665786
             0.6401217    0.81375731841339
 s    1 1.00
             0.1612778                   1

10 0
 s    6 1.00
             3047.5249  0.0018347001629433
             457.36951    0.01403730124668
             103.94869   0.068842606114048
             29.210155    0.23218442062076
              9.286663    0.46794134155879
              3.163927    0.36231203217765
 s    3 1.00
             7.8682724   -0.11933240861517
             1.8812885   -0.16085421161283
             0.5442493     1.1434564825515
 s    1 1.00
             0.1687144                   1
 p    3 1.00
             7.8682724   0.068999095584993
             1.8812885    0.31642397975315
             0.5442493    0.74430825237435
 p    1 1.00
             0.1687144                   1
 d    1 1.00
                   0.8                   1

11 0
 s    3 1.00
             18.731137    0.03349459952309
             2.8253937    0.23472694665786
             0.6401217    0.81375731841339
 s    1 1.00
             0.1612778                   1

12 0
 s    6 1.00
             3047.5249  0.0018347001629433
             457.36951    0.01403730124668
             103.94869   0.068842606114048
             29.210155    0.23218442062076
              9.286663    0.46794134155879
              3.163927    0.36231203217765
 s    3 1.00
             7.8682724   -0.11933240861517
             1.8812885   -0.16085421161283
             0.5442493     1.1434564825515
 s    1 1.00
             0.1687144                   1
 p    3 1.00
             7.8682724   0.068999095584993
             1.8812885    0.31642397975315
             0.5442493    0.74430825237435
 p    1 1.00
             0.1687144                   1
 d    1 1.00
                   0.8                   1

13 0
 s    3 1.00
             18.731137    0.03349459952309
             2.8253937    0.23472694665786
             0.6401217    0.81375731841339
 s    1 1.00
             0.1612778                   1

14 0
 s    3 1.00
             18.731137    0.03349459952309
             2.8253937    0.23472694665786
             0.6401217    0.81375731841339
 s    1 1.00
             0.1612778                   1

15 0
 s    6 1.00
             3047.5249  0.0018347001629433
             457.36951    0.01403730124668
             103.94869   0.068842606114048
             29.210155    0.23218442062076
              9.286663    0.46794134155879
              3.163927    0.36231203217765
 s    3 1.00
             7.8682724   -0.11933240861517
             1.8812885   -0.16085421161283
             0.5442493     1.1434564825515
 s    1 1.00
             0.1687144                   1
 p    3 1.00
             7.8682724   0.068999095584993
             1.8812885    0.31642397975315
             0.5442493    0.74430825237435
 p    1 1.00
             0.1687144                   1
 d    1 1.00
                   0.8                   1

16 0
 s    6 1.00
             3047.5249  0.0018347001629433
             457.36951    0.01403730124668
             103.94869   0.068842606114048
             29.210155    0.23218442062076
              9.286663    0.46794134155879
              3.163927    0.36231203217765
 s    3 1.00
             7.8682724   -0.11933240861517
             1.8812885   -0.16085421161283
             0.5442493     1.1434564825515
 s    1 1.00
             0.1687144                   1
 p    3 1.00
             7.8682724   0.068999095584993
             1.8812885    0.31642397975315
             0.5442493    0.74430825237435
 p    1 1.00
             0.1687144                   1
 d    1 1.00
                   0.8                   1

17 0
 s    6 1.00
             3047.5249  0.0018347001629433
             457.36951    0.01403730124668
             103.94869   0.068842606114048
             29.210155    0.23218442062076
              9.286663    0.46794134155879
              3.163927    0.36231203217765
 s    3 1.00
             7.8682724   -0.11933240861517
             1.8812885   -0.16085421161283
             0.5442493     1.1434564825515
 s    1 1.00
             0.1687144                   1
 p    3 1.00
             7.8682724   0.068999095584993
             1.8812885    0.31642397975315
             0.5442493    0.74430825237435
 p    1 1.00
             0.1687144                   1
 d    1 1.00
                   0.8                   1

18 0
 s    6 1.00
             3047.5249  0.0018347001629433
             457.36951    0.01403730124668
             103.94869   0.068842606114048
             29.210155    0.23218442062076
              9.286663    0.46794134155879
              3.163927    0.36231203217765
 s    3 1.00
             7.8682724   -0.11933240861517
             1.8812885   -0.16085421161283
             0.5442493     1.1434564825515
 s    1 1.00
             0.1687144                   1
 p    3 1.00
             7.8682724   0.068999095584993
             1.8812885    0.31642397975315
             0.5442493    0.74430825237435
 p    1 1.00
             0.1687144                   1
 d    1 1.00
                   0.8                   1

19 0
 s    6 1.00
             3047.5249  0.0018347001629433
             457.36951    0.01403730124668
             103.94869   0.068842606114048
             29.210155    0.23218442062076
              9.286663    0.46794134155879
              3.163927    0.36231203217765
 s    3 1.00
             7.8682724   -0.11933240861517
             1.8812885   -0.16085421161283
             0.5442493     1.1434564825515
 s    1 1.00
             0.1687144                   1
 p    3 1.00
             7.8682724   0.068999095584993
             1.8812885    0.31642397975315
             0.5442493    0.74430825237435
 p    1 1.00
             0.1687144                   1
 d    1 1.00
                   0.8                   1

20 0
 s    6 1.00
             3047.5249  0.0018347001629433
             457.36951    0.01403730124668
             103.94869   0.068842606114048
             29.210155    0.23218442062076
              9.286663    0.46794134155879
              3.163927    0.36231203217765
 s    3 1.00
             7.8682724   -0.11933240861517
             1.8812885   -0.16085421161283
             0.5442493     1.1434564825515
 s    1 1.00
             0.1687144                   1
 p    3 1.00
             7.8682724   0.068999095584993
             1.8812885    0.31642397975315
             0.5442493    0.74430825237435
 p    1 1.00
             0.1687144                   1
 d    1 1.00
                   0.8                   1

21 0
 s    6 1.00
             3047.5249  0.0018347001629433
             457.36951    0.01403730124668
             103.94869   0.068842606114048
             29.210155    0.23218442062076
              9.286663    0.46794134155879
              3.163927    0.36231203217765
 s    3 1.00
             7.8682724   -0.11933240861517
             1.8812885   -0.16085421161283
             0.5442493     1.1434564825515
 s    1 1.00
             0.1687144                   1
 p    3 1.00
             7.8682724   0.068999095584993
             1.8812885    0.31642397975315
             0.5442493    0.74430825237435
 p    1 1.00
             0.1687144                   1
 d    1 1.00
                   0.8                   1

22 0
 s    3 1.00
             18.731137    0.03349459952309
             2.8253937    0.23472694665786
             0.6401217    0.81375731841339
 s    1 1.00
             0.1612778                   1

23 0
 s    3 1.00
             18.731137    0.03349459952309
             2.8253937    0.23472694665786
             0.6401217    0.81375731841339
 s    1 1.00
             0.1612778                   1

24 0
 s    3 1.00
             18.731137    0.03349459952309
             2.8253937    0.23472694665786
             0.6401217    0.81375731841339
 s    1 1.00
             0.1612778                   1

25 0
 s    3 1.00
             18.731137    0.03349459952309
             2.8253937    0.23472694665786
             0.6401217    0.81375731841339
 s    1 1.00
             0.1612778                   1

26 0
 s    3 1.00
             18.731137    0.03349459952309
             2.8253937    0.23472694665786
             0.6401217    0.81375731841339
 s    1 1.00
             0.1612778                   1

27 0
 s    3 1.00
             18.731137    0.03349459952309
             2.8253937    0.23472694665786
             0.6401217    0.81375731841339
 s    1 1.00
             0.1612778                   1

28 0
 s    3 1.00
             18.731137    0.03349459952309
             2.8253937    0.23472694665786
             0.6401217    0.81375731841339
 s    1 1.00
             0.1612778                   1

29 0
 s    3 1.00
             18.731137    0.03349459952309
             2.8253937    0.23472694665786
             0.6401217    0.81375731841339
 s    1 1.00
             0.1612778                   1

30 0
 s    3 1.00
             18.731137    0.03349459952309
             2.8253937    0.23472694665786
             0.6401217    0.81375731841339
 s    1 1.00
             0.1612778                   1

31 0
 s    3 1.00
             18.731137    0.03349459952309
             2.8253937    0.23472694665786
             0.6401217    0.81375731841339
 s    1 1.00
             0.1612778                   1

32 0
 s    3 1.00
             18.731137    0.03349459952309
             2.8253937    0.23472694665786
             0.6401217    0.81375731841339
 s    1 1.00
             0.1612778                   1

33 0
 s    6 1.00
             3047.5249  0.0018347001629433
             457.36951    0.01403730124668
             103.94869   0.068842606114048
             29.210155    0.23218442062076
              9.286663    0.46794134155879
              3.163927    0.36231203217765
 s    3 1.00
             7.8682724   -0.11933240861517
             1.8812885   -0.16085421161283
             0.5442493     1.1434564825515
 s    1 1.00
             0.1687144                   1
 p    3 1.00
             7.8682724   0.068999095584993
             1.8812885    0.31642397975315
             0.5442493    0.74430825237435
 p    1 1.00
             0.1687144                   1
 d    1 1.00
                   0.8                   1

34 0
 s    6 1.00
             3047.5249  0.0018347001629433
             457.36951    0.01403730124668
             103.94869   0.068842606114048
             29.210155    0.23218442062076
              9.286663    0.46794134155879
              3.163927    0.36231203217765
 s    3 1.00
             7.8682724   -0.11933240861517
             1.8812885   -0.16085421161283
             0.5442493     1.1434564825515
 s    1 1.00
             0.1687144                   1
 p    3 1.00
             7.8682724   0.068999095584993
             1.8812885    0.31642397975315
             0.5442493    0.74430825237435
 p    1 1.00
             0.1687144                   1
 d    1 1.00
                   0.8                   1

35 0
 s    3 1.00
             18.731137    0.03349459952309
             2.8253937    0.23472694665786
             0.6401217    0.81375731841339
 s    1 1.00
             0.1612778                   1

36 0
 s    6 1.00
             3047.5249  0.0018347001629433
             457.36951    0.01403730124668
             103.94869   0.068842606114048
             29.210155    0.23218442062076
              9.286663    0.46794134155879
              3.163927    0.36231203217765
 s    3 1.00
             7.8682724   -0.11933240861517
             1.8812885   -0.16085421161283
             0.5442493     1.1434564825515
 s    1 1.00
             0.1687144                   1
 p    3 1.00
             7.8682724   0.068999095584993
             1.8812885    0.31642397975315
             0.5442493    0.74430825237435
 p    1 1.00
             0.1687144                   1
 d    1 1.00
                   0.8                   1

37 0
 s    3 1.00
             18.731137    0.03349459952309
             2.8253937    0.23472694665786
             0.6401217    0.81375731841339
 s    1 1.00
             0.1612778                   1

38 0
 s    3 1.00
             18.731137    0.03349459952309
             2.8253937    0.23472694665786
             0.6401217    0.81375731841339
 s    1 1.00
             0.1612778                   1

39 0
 s    6 1.00
             3047.5249  0.0018347001629433
             457.36951    0.01403730124668
             103.94869   0.068842606114048
             29.210155    0.23218442062076
              9.286663    0.46794134155879
              3.163927    0.36231203217765
 s    3 1.00
             7.8682724   -0.11933240861517
             1.8812885   -0.16085421161283
             0.5442493     1.1434564825515
 s    1 1.00
             0.1687144                   1
 p    3 1.00
             7.8682724   0.068999095584993
             1.8812885    0.31642397975315
             0.5442493    0.74430825237435
 p    1 1.00
             0.1687144                   1
 d    1 1.00
                   0.8                   1

40 0
 s    6 1.00
             3047.5249  0.0018347001629433
             457.36951    0.01403730124668
             103.94869   0.068842606114048
             29.210155    0.23218442062076
              9.286663    0.46794134155879
              3.163927    0.36231203217765
 s    3 1.00
             7.8682724   -0.11933240861517
             1.8812885   -0.16085421161283
             0.5442493     1.1434564825515
 s    1 1.00
             0.1687144                   1
 p    3 1.00
             7.8682724   0.068999095584993
             1.8812885    0.31642397975315
             0.5442493    0.74430825237435
 p    1 1.00
             0.1687144                   1
 d    1 1.00
                   0.8                   1

41 0
 s    3 1.00
             18.731137    0.03349459952309
             2.8253937    0.23472694665786
             0.6401217    0.81375731841339
 s    1 1.00
             0.1612778                   1

42 0
 s    6 1.00
             5484.6717   0.001831099805527
             825.23495   0.013950098518422
             188.04696    0.06844509273075
               52.9645    0.23271427528445
              16.89757    0.47019295006289
             5.7996353    0.35852086192309
 s    3 1.00
             15.539616   -0.11077750382508
             3.5999336   -0.14802630511126
             1.0137618     1.1307670390447
 s    1 1.00
             0.2700058                   1
 p    3 1.00
             15.539616   0.070874299543311
             3.5999336    0.33975279781076
             1.0137618    0.72715859531445
 p    1 1.00
             0.2700058                   1
 d    1 1.00
                   0.8                   1

43 0
 s    3 1.00
             18.731137    0.03349459952309
             2.8253937    0.23472694665786
             0.6401217    0.81375731841339
 s    1 1.00
             0.1612778                   1

[5d]
[7f]
[9g]

[MO]
 Sym= A
 Ene=               0
 Spin= Alpha
 Occup=    1.00000
   1    0.0025285211276888
   2      0.29635471321366
   3      0.19903746322828
   4    -0.075994836747916
   5    -0.048454628182277
   6      0.14602296038839
   7     0.010900434603144
   8    -0.0070791325083895
   9     0.050479043091255
  10    0.0040032334064055
  11    -0.0052604308121805
  12    -0.0046787661919186
  13    0.0075309890393252
  14    0.0054595775015771
  15     0.065322543173697
  16    -0.0036523582582488
  17    -0.0085774663093757
  18     0.045234375220813
  19     0.020471849375344
  20    -0.0068914769561513
  21    -0.010796068043449
  22      0.05188299915431
  23    -0.012377271776684
  24    -0.007596093334732
  25     0.027731495622515
  26    0.0063045352099603
  27    0.0023177164063453
  28    -0.0018552006622133
  29    0.00084642940100054
  30    0.00020656406506481
  31     0.012457705724337
  32    -0.00049611732305913
  33    0.00090189367618606
  34    -0.00054594228779217
  35     0.020480418084493
  36    0.0018976424996008
  37    0.00070247778514642
  38    -0.0073474969278719
  39    -0.0066646817645474
  40    -0.0057706459624509
  41     0.002407434464998
  42    -2.8313366471315e-05
  43    -0.00088583546855795
  44    0.00021001040101346
  45    9.2305947848528e-05
  46    -0.00018935489387114
  47    0.0011004820776792
  48    0.0018712929994601
  49    -0.00049225369904552
  50     0.024750730727425
  51     0.017182891239183
  52    0.0082224242206312
  53    0.00071273523163873
  54     -0.01118015795757
  55    0.0071080225707771
  56    -0.0015306453910995
  57    -0.0065214009832043
  58    0.00015272434933647
  59    -0.00063802204627842
  60    -0.00061562342705522
  61    -0.00041513359705004
  62    0.00011542223378293
  63    0.0067329120826787
  64    0.0014804105831978
  65    5.3949768967029e-05
  66    9.5152432860399e-05
  67    2.8579731648572e-05
  68    -1.1557033327048e-05
  69    -0.00044205685775378
  70    -9.0841591908409e-05
  71    2.3753878433871e-05
  72    6.5576996356675e-05
  73    0.0001717268390035
  74    0.00052069428071188
  75    0.00019836227019362
  76    2.9408683018573e-05
  77    1.7754435905321e-05
  78    -1.1965399930524e-05
  79    -6.0654704456843e-06
  80    1.5165001742167e-05
  81    2.0305956770351e-05
  82    0.0004369146893363
  83    -7.5021480145616e-06
  84    0.00012441884045997
  85    0.0010438602540806
  86    -6.8823824847899e-05
  87    0.00015596291954807
  88    -0.00025761967855417
  89    -0.00039491818725879
  90    -0.00049690749709377
  91    -0.00038600113113766
  92    -1.7781582679769e-05
  93     5.16066373174e-05
  94    1.8324097010051e-05
  95    6.5392948186068e-06
  96    1.4482040824381e-05
  97    0.00014877766517323
  98    0.00048013772808045
  99    -0.00015480171249488
 100    -0.00034111247118056
 101    3.6680043786802e-05
 102    3.1609693939039e-05
 103    -0.00077705123965809
 104    -0.00054337166952174
 105    -0.00054751660723205
 106    0.00038858989080528
 107    0.0023861611129899
 108    -0.0014102714216927
 109    -0.0031987320089897
 110    3.6235046526296e-05
 111    8.0632698709086e-05
 112    -2.7296023478571e-05
 113    -5.5491575258307e-05
 114    3.7727544751223e-05
 115    7.7174156565307e-05
 116    -0.00017283124947018
 117    -0.002256554612892
 118    0.00012492340517445
 119    -0.00031900127966901
 120    -1.0439121335914e-05
 121    0.00053603381619287
 122    -0.00022549794432996
 123    -0.0016801790614194
 124    1.1315521891781e-05
 125    2.7760863436456e-05
 126    -6.8468368006787e-05
 127     2.08170592224e-05
 128    3.7530455082066e-05
 129    1.7501447744083e-05
 130    0.0006827053063426
 131     -0.01208218361177
 132    -0.00013034436373335
 133    -0.00019118265704117
 134    -0.00064453919107628
 135    0.0016462963881994
 136    -0.0012948574163808
 137     0.013066583356379
 138    -0.00041395290071876
 139    0.00010090233693929
 140    6.8800439467369e-05
 141    2.9921251802783e-05
 142    4.5216511501639e-05
 143    0.0001056365611211
 144    -0.00012101848464798
 145    -0.0025525719447601
 146    -4.3232230610318e-05
 147    0.00016128474701265
 148    0.00060956017983061
 149    -0.0029831902690325
 150    0.0015942084846054
 151    -0.0020028447787027
 152    9.8315964490861e-05
 153    -2.6943102648986e-05
 154    -4.2362936231646e-05
 155    -6.0120104483595e-05
 156    5.6555968913022e-05
 157    4.1796116145413e-05
 158    0.00011068619806997
 159    -0.0016718288419468
 160    7.6450369948393e-05
 161    1.3177516713316e-05
 162    3.9569046654644e-05
 163    0.00018243939442088
 164    0.00088639969527294
 165    0.00029966141764236
 166    3.2527096982145e-05
 167    -1.1658529834651e-05
 168    5.6082453232748e-06
 169    5.2629339392572e-05
 170    -7.031635346482e-06
 171    1.579268704772e-05
 172    -0.00023520771593819
 173    0.00020720319885136
 174    -1.4162991592865e-05
 175    2.7572757231475e-05
 176    0.00028785842151757
 177    0.00037393201238227
 178    -0.00073136179006635
 179    -8.6873812523729e-05
 180    5.7630026903967e-06
 181    6.4195759378761e-05
 182    2.2780338072906e-05
 183    3.1178059447964e-05
 184    -8.5974267689983e-06
 185    -2.1962366110405e-05
 186    5.9165043135269e-05
 187    0.0017843656798108
 188    9.3576311422361e-06
 189    -6.1336970895789e-05
 190    -0.00036474842399891
 191    -0.0010686356406452
 192    -0.00038360173994796
 193    -0.000588918746011
 194    1.8347588072764e-05
 195    5.0011415933883e-05
 196    2.2695042988713e-05
 197    -7.8160951669081e-06
 198    2.6707377793763e-05
 199    1.6456280699503e-05
 200    0.00036694675517451
 201    -0.00017632567870471
 202    -0.00060359466001341
 203    0.00010133230749362
 204    0.00055865798036929
 205    -5.0392030759974e-05
 206    0.00012096479627476
 207    0.00012397241780711
 208    -0.0010362792887207
 209    6.8060202775043e-05
 210    0.00028694781834903
 211    2.9204910743145e-05
 212    -7.9724950151202e-05
 213    3.4680234150576e-05
 214    -0.00011991111476625
 215    -1.5572676354494e-05
 216    -0.00059629992745789
 217    3.8039334209982e-05
 218    0.00038376116410724
 219    -8.1793539847234e-06
 220    -0.00042329695757301
 221    0.0011794936653016
 222    -0.0028572362998374
 223     0.025185173466179
 224    -0.0016984689476913
 225    -3.3711121322526e-05
 226    0.0031657195382047
 227     0.017396987145039
 228    0.0030898246693484
 229    0.0091805131076799
 230    0.00018265172760038
 231    -0.00016186362962324
 232    -0.00016634139561677
 233    0.00018153423439753
 234    0.00017440805359242
 235    -0.0081436403711605
 236     0.042470654141653
 237     0.019759542280134
 238    0.0070987123631567
 239     0.011118888362201
 240    -0.047914704626613
 241    0.0079455969750186
 242    0.0079164942160749
 243    -0.030935846213445
 244    0.0063744334562448
 245    0.0019310339146398
 246    -0.0018305058527151
 247    0.00092212711321179
 248    0.00023726523639192
 249    0.00089140492894995
 250    0.0087173586210335
 251    0.0011900182119388
 252      0.29416740675926
 253      0.18697851419568
 254     0.078686105379913
 255     0.049597938486775
 256      -0.1479248811717
 257    -0.012692821121732
 258    0.0048818058988793
 259    -0.047374706492997
 260    0.0035523899108208
 261    -0.0050631130230043
 262    -0.0047271570323059
 263    0.0071128835913604
 264    0.0057308064996003
 265     0.011749061622896
 266    0.0017102919067535
 267     0.063298792420699
 268    -0.0049975142364961
 269    0.0011482060819844
 270     0.026052622761903
 271     0.011718660820353
 272    -0.0053963095784196
 273    -0.0045577569899597
 274    0.0099673407146935
 275    -0.0015755319201774
 276    0.0043298484213074
 277    0.0010906446282001
 278    0.00018011484232817
 279    -0.00075928266147684
 280    -0.00053477829972375
 281    -0.00039346638960474
 282    6.2104836370919e-05
 283    -0.0013813340627926
 284    0.0063402698542841