[Molden Format]
made by pyscf v[2.0.1]
[Atoms] (AU)
C   1   6     0.69100024066471     0.64692934207205    -3.48223131169301
H   2   1     2.68052439830868     1.13355088658700    -3.25784032593313
C   3   6    -0.36286361513219     0.85440132524594    -5.97030179418974
H   4   1    -2.35448549047279     0.36322488579172    -6.17995817793143
C   5   6     0.93697958957450     1.61209284601821    -8.05828437677121
H   6   1     2.82520634269342     2.40231158819155    -7.83223822317356
C   7   6    -0.04591716574067     1.43050675384137   -10.57963800872440
H   8   1    -1.93966227025444     0.63380613673234   -10.77641154630544
H   9   1     1.55630230933075    -1.92953025305990    12.99630010416247
C   10   6     0.75233899775814    -2.21270439606481    11.10705728102219
H   11   1    -0.43433408177274    -3.90944857546550    11.22216085340412
C   12   6     2.86362581178706    -2.63237380607947     9.17926416456045
H   13   1     4.39038949912609    -1.24955421540245     9.49899813497433
H   14   1     3.74629220191363    -4.48798724300892     9.47414880959024
C   15   6     2.02478325613682    -2.42177285709634     6.44560829588644
C   16   6     3.88048732735477    -3.58795445234514     4.61402886975252
C   17   6    -0.18412382258602    -1.30464291234259     5.76021113872346
C   18   6    -2.10044360464350    -0.26837831858460     7.71610340967100
C   19   6    -3.08956938670431     2.35282328359417     6.88693925039594
C   20   6    -4.37372924086464    -2.09766595989678     7.93610724222001
C   21   6    -0.83850430601230     0.06372213486173    10.33002307638377
H   22   1     0.38411922151109     1.74281358582432    10.27380136542181
H   23   1    -2.30980003007874     0.45460143924521    11.73986301809809
H   24   1     4.58527064644668    -5.38706904487420     5.36778158031719
H   25   1     5.54944938085014    -2.37631462192748     4.35398898413318
H   26   1     3.06633019150423    -3.94118377050688     2.75255466040884
H   27   1    -4.17727778763735     2.26573369139522     5.12914900961283
H   28   1    -1.52662344944051     3.68001877445626     6.59540397144508
H   29   1    -4.32916174397830     3.13643051467482     8.35225460090378
H   30   1    -5.32329548508442    -2.36691813602939     6.11583672749896
H   31   1    -5.77989366602257    -1.33896741843465     9.25748940450990
H   32   1    -3.79310905208926    -3.96389819310853     8.61386170102686
C   33   6    -1.01100794811226    -1.06331657314144     3.11929490449947
C   34   6     0.37686231036534    -0.33275864505552     1.09165013605873
H   35   1    -3.01671213906703    -1.40297922279997     2.77827895090944
C   36   6    -0.64382707979370    -0.11591880174385    -1.42063131251064
H   37   1     2.35569259782137     0.17174499283897     1.33641070251401
H   38   1    -2.63317482980319    -0.60229203511219    -1.66119700387645
C   39   6     1.17709071185639     2.16235266520763   -12.71162929579923
C   40   6     0.01149368127442     1.89967079998079   -15.19747007607967
H   41   1     3.06674924318564     2.97042403350516   -12.64854490967844
O   42   8     1.00001917973751     2.51860460578581   -17.18758625638360
H   43   1    -1.92257659968242     1.06364005135718   -15.17290072571517
[GTO]
1 0
 s    6 1.00
             3047.5249  0.0018347001629433
             457.36951    0.01403730124668
             103.94869   0.068842606114048
             29.210155    0.23218442062076
              9.286663    0.46794134155879
              3.163927    0.36231203217765
 s    3 1.00
             7.8682724   -0.11933240861517
             1.8812885   -0.16085421161283
             0.5442493     1.1434564825515
 s    1 1.00
             0.1687144                   1
 p    3 1.00
             7.8682724   0.068999095584993
             1.8812885    0.31642397975315
             0.5442493    0.74430825237435
 p    1 1.00
             0.1687144                   1
 d    1 1.00
                   0.8                   1

2 0
 s    3 1.00
             18.731137    0.03349459952309
             2.8253937    0.23472694665786
             0.6401217    0.81375731841339
 s    1 1.00
             0.1612778                   1

3 0
 s    6 1.00
             3047.5249  0.0018347001629433
             457.36951    0.01403730124668
             103.94869   0.068842606114048
             29.210155    0.23218442062076
              9.286663    0.46794134155879
              3.163927    0.36231203217765
 s    3 1.00
             7.8682724   -0.11933240861517
             1.8812885   -0.16085421161283
             0.5442493     1.1434564825515
 s    1 1.00
             0.1687144                   1
 p    3 1.00
             7.8682724   0.068999095584993
             1.8812885    0.31642397975315
             0.5442493    0.74430825237435
 p    1 1.00
             0.1687144                   1
 d    1 1.00
                   0.8                   1

4 0
 s    3 1.00
             18.731137    0.03349459952309
             2.8253937    0.23472694665786
             0.6401217    0.81375731841339
 s    1 1.00
             0.1612778                   1

5 0
 s    6 1.00
             3047.5249  0.0018347001629433
             457.36951    0.01403730124668
             103.94869   0.068842606114048
             29.210155    0.23218442062076
              9.286663    0.46794134155879
              3.163927    0.36231203217765
 s    3 1.00
             7.8682724   -0.11933240861517
             1.8812885   -0.16085421161283
             0.5442493     1.1434564825515
 s    1 1.00
             0.1687144                   1
 p    3 1.00
             7.8682724   0.068999095584993
             1.8812885    0.31642397975315
             0.5442493    0.74430825237435
 p    1 1.00
             0.1687144                   1
 d    1 1.00
                   0.8                   1

6 0
 s    3 1.00
             18.731137    0.03349459952309
             2.8253937    0.23472694665786
             0.6401217    0.81375731841339
 s    1 1.00
             0.1612778                   1

7 0
 s    6 1.00
             3047.5249  0.0018347001629433
             457.36951    0.01403730124668
             103.94869   0.068842606114048
             29.210155    0.23218442062076
              9.286663    0.46794134155879
              3.163927    0.36231203217765
 s    3 1.00
             7.8682724   -0.11933240861517
             1.8812885   -0.16085421161283
             0.5442493     1.1434564825515
 s    1 1.00
             0.1687144                   1
 p    3 1.00
             7.8682724   0.068999095584993
             1.8812885    0.31642397975315
             0.5442493    0.74430825237435
 p    1 1.00
             0.1687144                   1
 d    1 1.00
                   0.8                   1

8 0
 s    3 1.00
             18.731137    0.03349459952309
             2.8253937    0.23472694665786
             0.6401217    0.81375731841339
 s    1 1.00
             0.1612778                   1

9 0
 s    3 1.00
             18.731137    0.03349459952309
             2.8253937    0.23472694665786
             0.6401217    0.81375731841339
 s    1 1.00
             0.1612778                   1

10 0
 s    6 1.00
             3047.5249  0.0018347001629433
             457.36951    0.01403730124668
             103.94869   0.068842606114048
             29.210155    0.23218442062076
              9.286663    0.46794134155879
              3.163927    0.36231203217765
 s    3 1.00
             7.8682724   -0.11933240861517
             1.8812885   -0.16085421161283
             0.5442493     1.1434564825515
 s    1 1.00
             0.1687144                   1
 p    3 1.00
             7.8682724   0.068999095584993
             1.8812885    0.31642397975315
             0.5442493    0.74430825237435
 p    1 1.00
             0.1687144                   1
 d    1 1.00
                   0.8                   1

11 0
 s    3 1.00
             18.731137    0.03349459952309
             2.8253937    0.23472694665786
             0.6401217    0.81375731841339
 s    1 1.00
             0.1612778                   1

12 0
 s    6 1.00
             3047.5249  0.0018347001629433
             457.36951    0.01403730124668
             103.94869   0.068842606114048
             29.210155    0.23218442062076
              9.286663    0.46794134155879
              3.163927    0.36231203217765
 s    3 1.00
             7.8682724   -0.11933240861517
             1.8812885   -0.16085421161283
             0.5442493     1.1434564825515
 s    1 1.00
             0.1687144                   1
 p    3 1.00
             7.8682724   0.068999095584993
             1.8812885    0.31642397975315
             0.5442493    0.74430825237435
 p    1 1.00
             0.1687144                   1
 d    1 1.00
                   0.8                   1

13 0
 s    3 1.00
             18.731137    0.03349459952309
             2.8253937    0.23472694665786
             0.6401217    0.81375731841339
 s    1 1.00
             0.1612778                   1

14 0
 s    3 1.00
             18.731137    0.03349459952309
             2.8253937    0.23472694665786
             0.6401217    0.81375731841339
 s    1 1.00
             0.1612778                   1

15 0
 s    6 1.00
             3047.5249  0.0018347001629433
             457.36951    0.01403730124668
             103.94869   0.068842606114048
             29.210155    0.23218442062076
              9.286663    0.46794134155879
              3.163927    0.36231203217765
 s    3 1.00
             7.8682724   -0.11933240861517
             1.8812885   -0.16085421161283
             0.5442493     1.1434564825515
 s    1 1.00
             0.1687144                   1
 p    3 1.00
             7.8682724   0.068999095584993
             1.8812885    0.31642397975315
             0.5442493    0.74430825237435
 p    1 1.00
             0.1687144                   1
 d    1 1.00
                   0.8                   1

16 0
 s    6 1.00
             3047.5249  0.0018347001629433
             457.36951    0.01403730124668
             103.94869   0.068842606114048
             29.210155    0.23218442062076
              9.286663    0.46794134155879
              3.163927    0.36231203217765
 s    3 1.00
             7.8682724   -0.11933240861517
             1.8812885   -0.16085421161283
             0.5442493     1.1434564825515
 s    1 1.00
             0.1687144                   1
 p    3 1.00
             7.8682724   0.068999095584993
             1.8812885    0.31642397975315
             0.5442493    0.74430825237435
 p    1 1.00
             0.1687144                   1
 d    1 1.00
                   0.8                   1

17 0
 s    6 1.00
             3047.5249  0.0018347001629433
             457.36951    0.01403730124668
             103.94869   0.068842606114048
             29.210155    0.23218442062076
              9.286663    0.46794134155879
              3.163927    0.36231203217765
 s    3 1.00
             7.8682724   -0.11933240861517
             1.8812885   -0.16085421161283
             0.5442493     1.1434564825515
 s    1 1.00
             0.1687144                   1
 p    3 1.00
             7.8682724   0.068999095584993
             1.8812885    0.31642397975315
             0.5442493    0.74430825237435
 p    1 1.00
             0.1687144                   1
 d    1 1.00
                   0.8                   1

18 0
 s    6 1.00
             3047.5249  0.0018347001629433
             457.36951    0.01403730124668
             103.94869   0.068842606114048
             29.210155    0.23218442062076
              9.286663    0.46794134155879
              3.163927    0.36231203217765
 s    3 1.00
             7.8682724   -0.11933240861517
             1.8812885   -0.16085421161283
             0.5442493     1.1434564825515
 s    1 1.00
             0.1687144                   1
 p    3 1.00
             7.8682724   0.068999095584993
             1.8812885    0.31642397975315
             0.5442493    0.74430825237435
 p    1 1.00
             0.1687144                   1
 d    1 1.00
                   0.8                   1

19 0
 s    6 1.00
             3047.5249  0.0018347001629433
             457.36951    0.01403730124668
             103.94869   0.068842606114048
             29.210155    0.23218442062076
              9.286663    0.46794134155879
              3.163927    0.36231203217765
 s    3 1.00
             7.8682724   -0.11933240861517
             1.8812885   -0.16085421161283
             0.5442493     1.1434564825515
 s    1 1.00
             0.1687144                   1
 p    3 1.00
             7.8682724   0.068999095584993
             1.8812885    0.31642397975315
             0.5442493    0.74430825237435
 p    1 1.00
             0.1687144                   1
 d    1 1.00
                   0.8                   1

20 0
 s    6 1.00
             3047.5249  0.0018347001629433
             457.36951    0.01403730124668
             103.94869   0.068842606114048
             29.210155    0.23218442062076
              9.286663    0.46794134155879
              3.163927    0.36231203217765
 s    3 1.00
             7.8682724   -0.11933240861517
             1.8812885   -0.16085421161283
             0.5442493     1.1434564825515
 s    1 1.00
             0.1687144                   1
 p    3 1.00
             7.8682724   0.068999095584993
             1.8812885    0.31642397975315
             0.5442493    0.74430825237435
 p    1 1.00
             0.1687144                   1
 d    1 1.00
                   0.8                   1

21 0
 s    6 1.00
             3047.5249  0.0018347001629433
             457.36951    0.01403730124668
             103.94869   0.068842606114048
             29.210155    0.23218442062076
              9.286663    0.46794134155879
              3.163927    0.36231203217765
 s    3 1.00
             7.8682724   -0.11933240861517
             1.8812885   -0.16085421161283
             0.5442493     1.1434564825515
 s    1 1.00
             0.1687144                   1
 p    3 1.00
             7.8682724   0.068999095584993
             1.8812885    0.31642397975315
             0.5442493    0.74430825237435
 p    1 1.00
             0.1687144                   1
 d    1 1.00
                   0.8                   1

22 0
 s    3 1.00
             18.731137    0.03349459952309
             2.8253937    0.23472694665786
             0.6401217    0.81375731841339
 s    1 1.00
             0.1612778                   1

23 0
 s    3 1.00
             18.731137    0.03349459952309
             2.8253937    0.23472694665786
             0.6401217    0.81375731841339
 s    1 1.00
             0.1612778                   1

24 0
 s    3 1.00
             18.731137    0.03349459952309
             2.8253937    0.23472694665786
             0.6401217    0.81375731841339
 s    1 1.00
             0.1612778                   1

25 0
 s    3 1.00
             18.731137    0.03349459952309
             2.8253937    0.23472694665786
             0.6401217    0.81375731841339
 s    1 1.00
             0.1612778                   1

26 0
 s    3 1.00
             18.731137    0.03349459952309
             2.8253937    0.23472694665786
             0.6401217    0.81375731841339
 s    1 1.00
             0.1612778                   1

27 0
 s    3 1.00
             18.731137    0.03349459952309
             2.8253937    0.23472694665786
             0.6401217    0.81375731841339
 s    1 1.00
             0.1612778                   1

28 0
 s    3 1.00
             18.731137    0.03349459952309
             2.8253937    0.23472694665786
             0.6401217    0.81375731841339
 s    1 1.00
             0.1612778                   1

29 0
 s    3 1.00
             18.731137    0.03349459952309
             2.8253937    0.23472694665786
             0.6401217    0.81375731841339
 s    1 1.00
             0.1612778                   1

30 0
 s    3 1.00
             18.731137    0.03349459952309
             2.8253937    0.23472694665786
             0.6401217    0.81375731841339
 s    1 1.00
             0.1612778                   1

31 0
 s    3 1.00
             18.731137    0.03349459952309
             2.8253937    0.23472694665786
             0.6401217    0.81375731841339
 s    1 1.00
             0.1612778                   1

32 0
 s    3 1.00
             18.731137    0.03349459952309
             2.8253937    0.23472694665786
             0.6401217    0.81375731841339
 s    1 1.00
             0.1612778                   1

33 0
 s    6 1.00
             3047.5249  0.0018347001629433
             457.36951    0.01403730124668
             103.94869   0.068842606114048
             29.210155    0.23218442062076
              9.286663    0.46794134155879
              3.163927    0.36231203217765
 s    3 1.00
             7.8682724   -0.11933240861517
             1.8812885   -0.16085421161283
             0.5442493     1.1434564825515
 s    1 1.00
             0.1687144                   1
 p    3 1.00
             7.8682724   0.068999095584993
             1.8812885    0.31642397975315
             0.5442493    0.74430825237435
 p    1 1.00
             0.1687144                   1
 d    1 1.00
                   0.8                   1

34 0
 s    6 1.00
             3047.5249  0.0018347001629433
             457.36951    0.01403730124668
             103.94869   0.068842606114048
             29.210155    0.23218442062076
              9.286663    0.46794134155879
              3.163927    0.36231203217765
 s    3 1.00
             7.8682724   -0.11933240861517
             1.8812885   -0.16085421161283
             0.5442493     1.1434564825515
 s    1 1.00
             0.1687144                   1
 p    3 1.00
             7.8682724   0.068999095584993
             1.8812885    0.31642397975315
             0.5442493    0.74430825237435
 p    1 1.00
             0.1687144                   1
 d    1 1.00
                   0.8                   1

35 0
 s    3 1.00
             18.731137    0.03349459952309
             2.8253937    0.23472694665786
             0.6401217    0.81375731841339
 s    1 1.00
             0.1612778                   1

36 0
 s    6 1.00
             3047.5249  0.0018347001629433
             457.36951    0.01403730124668
             103.94869   0.068842606114048
             29.210155    0.23218442062076
              9.286663    0.46794134155879
              3.163927    0.36231203217765
 s    3 1.00
             7.8682724   -0.11933240861517
             1.8812885   -0.16085421161283
             0.5442493     1.1434564825515
 s    1 1.00
             0.1687144                   1
 p    3 1.00
             7.8682724   0.068999095584993
             1.8812885    0.31642397975315
             0.5442493    0.74430825237435
 p    1 1.00
             0.1687144                   1
 d    1 1.00
                   0.8                   1

37 0
 s    3 1.00
             18.731137    0.03349459952309
             2.8253937    0.23472694665786
             0.6401217    0.81375731841339
 s    1 1.00
             0.1612778                   1

38 0
 s    3 1.00
             18.731137    0.03349459952309
             2.8253937    0.23472694665786
             0.6401217    0.81375731841339
 s    1 1.00
             0.1612778                   1

39 0
 s    6 1.00
             3047.5249  0.0018347001629433
             457.36951    0.01403730124668
             103.94869   0.068842606114048
             29.210155    0.23218442062076
              9.286663    0.46794134155879
              3.163927    0.36231203217765
 s    3 1.00
             7.8682724   -0.11933240861517
             1.8812885   -0.16085421161283
             0.5442493     1.1434564825515
 s    1 1.00
             0.1687144                   1
 p    3 1.00
             7.8682724   0.068999095584993
             1.8812885    0.31642397975315
             0.5442493    0.74430825237435
 p    1 1.00
             0.1687144                   1
 d    1 1.00
                   0.8                   1

40 0
 s    6 1.00
             3047.5249  0.0018347001629433
             457.36951    0.01403730124668
             103.94869   0.068842606114048
             29.210155    0.23218442062076
              9.286663    0.46794134155879
              3.163927    0.36231203217765
 s    3 1.00
             7.8682724   -0.11933240861517
             1.8812885   -0.16085421161283
             0.5442493     1.1434564825515
 s    1 1.00
             0.1687144                   1
 p    3 1.00
             7.8682724   0.068999095584993
             1.8812885    0.31642397975315
             0.5442493    0.74430825237435
 p    1 1.00
             0.1687144                   1
 d    1 1.00
                   0.8                   1

41 0
 s    3 1.00
             18.731137    0.03349459952309
             2.8253937    0.23472694665786
             0.6401217    0.81375731841339
 s    1 1.00
             0.1612778                   1

42 0
 s    6 1.00
             5484.6717   0.001831099805527
             825.23495   0.013950098518422
             188.04696    0.06844509273075
               52.9645    0.23271427528445
              16.89757    0.47019295006289
             5.7996353    0.35852086192309
 s    3 1.00
             15.539616   -0.11077750382508
             3.5999336   -0.14802630511126
             1.0137618     1.1307670390447
 s    1 1.00
             0.2700058                   1
 p    3 1.00
             15.539616   0.070874299543311
             3.5999336    0.33975279781076
             1.0137618    0.72715859531445
 p    1 1.00
             0.2700058                   1
 d    1 1.00
                   0.8                   1

43 0
 s    3 1.00
             18.731137    0.03349459952309
             2.8253937    0.23472694665786
             0.6401217    0.81375731841339
 s    1 1.00
             0.1612778                   1

[5d]
[7f]
[9g]

[MO]
 Sym= A
 Ene=               0
 Spin= Alpha
 Occup=    1.00000
   1    -1.2725357065217e-05
   2    -6.6557883775321e-05
   3    0.00033589083468069
   4    -9.0879623435714e-06
   5    -2.8775273333236e-05
   6    1.8291419529563e-05
   7    9.9330786458674e-05
   8    0.0003811396942957
   9    -0.0014409426171457
  10    2.2164382721739e-05
  11    5.786479554612e-05
  12    6.9409694098045e-06
  13    1.6104857774233e-05
  14    -3.0301503990431e-06
  15    -6.8474177664773e-05
  16    0.00012938343578844
  17    -0.00024658137938664
  18    -0.00033599819220514
  19    0.00056893953963659
  20    5.8162675022789e-05
  21    -5.7391479023309e-06
  22    0.00021560242070788
  23    -0.00058641387716387
  24    9.5812913313979e-05
  25    -0.0013129032390837
  26    -8.2243418198561e-05
  27    -8.4897471762143e-07
  28    1.1716651790264e-05
  29    0.00011213148485349
  30    0.00011345640665871
  31    -0.00013557136204477
  32    -0.00058084554992013
  33    0.0094265713428563
  34    -0.0013827964605081
  35    0.0082176852851045
  36    0.00046934005426089
  37    7.1115373949262e-05
  38    0.0013198318533204
  39    0.00021457027965368
  40    0.0004993094782917
  41    -0.0045662978905817
  42    -0.0010827860068266
  43    -0.00096275985184718
  44    -0.00021446791123817
  45    -0.00022007456119256
  46    -9.816317057276e-05
  47    -0.0004609635421001
  48    -0.00076520131787516
  49      0.99483301821431
  50     0.038522051755321
  51    -0.030918883795472
  52    0.0007727974577155
  53    0.00033420172880075
  54    -0.00016443835518649
  55    -0.0035881173528508
  56    -0.0014806381620681
  57    -0.00063909807641959
  58    0.00090038127848245
  59    -0.0003175733280498
  60    -0.00031661349466078
  61    0.00017027559914834
  62    0.00023355479680948
  63    -0.0013080141908516
  64    0.0041756709218445
  65    -5.2521653404928e-07
  66    -4.8872566483852e-07
  67    -6.0614178099038e-08
  68    -9.3902640106446e-07
  69    4.150641117145e-06
  70    2.6441949995529e-07
  71    -7.5675465236761e-07
  72    2.5814370631614e-07
  73    2.2102480868646e-06
  74    3.6623779556515e-06
  75    8.343386991259e-07
  76    -3.3116213948945e-08
  77    -1.5360005601521e-07
  78    1.4055232085484e-07
  79    1.5893525140024e-07
  80    -1.2221592159939e-07
  81    5.1100419429562e-07
  82     8.17132109676e-07
  83    -2.4465935086446e-08
  84    -5.9881603604666e-07
  85    -2.5906882220315e-05
  86    1.5274240666676e-06
  87    3.2278934471763e-07
  88    1.6411681361522e-06
  89    7.2083465895094e-06
  90    -1.0814345042479e-05
  91    5.1169071748727e-06
  92    4.4997750200915e-07
  93    -6.2715778976926e-07
  94    7.5004148262988e-07
  95    1.0508654368189e-08
  96    -2.5393035446902e-07
  97    1.623276999682e-06
  98    2.2267919711555e-06
  99    -2.2069791980987e-07
 100    -3.5935737310446e-06
 101    -6.4031488556678e-08
 102    -5.5407952559344e-07
 103    2.0565283993714e-05
 104    1.7228003238598e-07
 105    -2.8854224137345e-06
 106    -1.5868021949841e-06
 107    -4.5381913421349e-05
 108    3.7848918947391e-05
 109    6.5806594678702e-05
 110    -1.4483290629932e-06
 111    -5.4919055140977e-07
 112    3.7479063759152e-07
 113    2.352306265477e-07
 114    -1.0895433561662e-06
 115    -1.0648793429218e-06
 116    -8.9161019382939e-06
 117    7.2019715456023e-05
 118    -9.3422039789621e-07
 119    3.0943503153064e-07
 120    1.8292972823438e-06
 121    -1.9687049383805e-05
 122    1.308671020388e-05
 123    9.3757002420394e-06
 124    -6.5193721719414e-08
 125    -9.5827122882843e-07
 126    2.5829208799232e-07
 127    7.6475963188706e-07
 128    -6.8060992035802e-07
 129    -2.020030220742e-06
 130    -1.3639359271281e-05
 131    0.00010877001852096
 132    4.4275815514414e-07
 133    -1.471647070653e-07
 134    3.3306046513517e-06
 135    -5.1178003006563e-05
 136    -1.5306410108584e-06
 137    -0.00016851061106561
 138    4.3705395490309e-06
 139    3.2254133985721e-06
 140    2.4029176464195e-07
 141    6.0397748521113e-07
 142    4.6092578825349e-07
 143    -8.8982860061623e-07
 144    -1.0789755829554e-05
 145    4.359402321624e-05
 146    3.7117235209404e-07
 147    1.0770752599889e-06
 148    3.7195980324947e-06
 149    2.0005156307834e-05
 150    -8.2814158035407e-06
 151    -2.3466706509878e-05
 152    -1.8758006631951e-06
 153    -1.2467319288477e-06
 154    -4.2262477231968e-07
 155    1.294521018266e-06
 156    -1.7669914610713e-06
 157    3.7488348722558e-07
 158    2.4190363084688e-06
 159    -9.2124251525287e-06
 160    1.1094317089179e-06
 161    5.6181080940112e-07
 162    -5.3065867648837e-07
 163    -1.229276561116e-05
 164    4.2117750776214e-06
 165    5.366104525464e-06
 166    1.3452292327995e-06
 167    -6.0048604149266e-07
 168    -2.2178787667169e-07
 169    1.0306631454241e-07
 170    5.7290201326781e-07
 171    1.1595323873707e-07
 172    -2.268833434451e-08
 173    -1.0593920798809e-05
 174    -2.2604881997441e-06
 175    -6.1683979084936e-07
 176    1.7372616300014e-06
 177    5.3689762639077e-06
 178    3.4608741151173e-06
 179    9.6988210973258e-07
 180    2.6559223081043e-08
 181    8.4111714112614e-07
 182    3.9083702825523e-07
 183    -5.8391826589248e-07
 184    5.5299466923798e-07
 185    -8.1173025346969e-07
 186    -6.562652346816e-06
 187    1.6088199233919e-05
 188    -7.2409443201967e-07
 189    5.9045253983778e-08
 190    1.2382938706357e-06
 191    1.3599245076787e-06
 192    -9.5400201340634e-07
 193    -1.4790081103411e-05
 194    6.4735644209457e-07
 195    2.6487430798664e-07
 196    6.2937764591225e-07
 197    1.8020925691415e-07
 198    -1.5410367870272e-07
 199    -1.5414795242812e-06
 200    -1.9135415796757e-06
 201    -4.7766181162895e-07
 202    5.1768426460427e-06
 203    -2.5905624976099e-06
 204    1.0864311871793e-06
 205    -8.4092208375899e-07
 206    -6.6549660852956e-06
 207    -1.371873392786e-07
 208    -8.9678088812402e-06
 209    2.2867377546892e-06
 210    -3.4121029080496e-06
 211    1.7429859101093e-06
 212    4.6477040489061e-06
 213    -3.3661621260183e-07
 214    -4.8466370874456e-06
 215    -2.0546977996236e-06
 216    1.3611247525896e-05
 217     9.21336560731e-07
 218    3.1790239637108e-06
 219    7.3353343800052e-07
 220    1.3229597322408e-06
 221    -1.9269762190217e-06
 222    -2.5018209543842e-05
 223    6.5108223664431e-05
 224    3.7365868691231e-06
 225    7.2683953874564e-07
 226    1.109615788835e-05
 227    1.676383088186e-05
 228    5.4913194373915e-05
 229    -0.00024844940554885
 230    5.8784140318081e-07
 231    -9.8686785876304e-06
 232    -4.1254775793219e-06
 233    5.1639216369236e-06
 234    4.5854838886475e-06
 235    -4.1233678951287e-06
 236    -2.774382557043e-05
 237    -0.00014280842002313
 238    -1.0040393349854e-05
 239    -1.2270130805034e-06
 240    1.2166061037736e-05
 241    -5.683156058384e-06
 242    3.4783751321444e-05
 243    -0.00014003348172453
 244    -9.744117538402e-07
 245    1.5859685878707e-05
 246    1.3188070365365e-06
 247    7.3074844397687e-06
 248    -4.9401347424695e-07
 249    -9.5955017185986e-06
 250    -1.1695246763786e-05
 251    1.549773153009e-06
 252    -4.7635765834269e-05
 253    0.00084900539560823
 254    -6.9664899845412e-06
 255    3.9976814995663e-06
 256    5.4012374349292e-06
 257    0.0005293723215288
 258    0.00019593385481407
 259    -0.00046855244049922
 260    6.2202663187828e-06
 261    -3.1894787299991e-05
 262    -1.1259332064349e-05
 263    1.722909860808e-05
 264    1.2521451196274e-05
 265    -1.5098480182642e-05
 266    4.1088224155316e-05
 267    -1.3723575909281e-05
 268    0.00024101978977845
 269    0.00012889569484671
 270    -0.0023196548203828
 271    0.0093366266901377
 272    0.00091057043909515
 273    0.0005393623820024
 274    -0.0015435923415382
 275    -0.00032493196329285
 276    -0.00054079594145469
 277    0.0042089577309497
 278    -0.00072783290540843
 279      0.00111154431293
 280    0.00065167079172923