[Molden Format]
made by pyscf v[2.0.1]
[Atoms] (AU)
C   1   6     0.69100024069495     0.64692934212497    -3.48223131168734
H   2   1     2.68052439835215     1.13355088667581    -3.25784032595959
C   3   6    -0.36286361514353     0.85440132525350    -5.97030179416329
H   4   1    -2.35448549056350     0.36322488588432    -6.17995817799568
C   5   6     0.93697958950647     1.61209284601065    -8.05828437675987
H   6   1     2.92721069186250     2.10853558287052    -7.87534295441726
C   7   6    -0.17413039189613     1.80008207487984   -10.52534301739428
H   8   1    -2.16943049770440     1.29533627648343   -10.67939296478009
H   9   1     1.55630230933264    -1.92953025311848    12.99630010417381
C   10   6     0.75233899783373    -2.21270439606859    11.10705728099195
H   11   1    -0.43433408176896    -3.90944857543337    11.22216085348160
C   12   6     2.86362581169447    -2.63237380608325     9.17926416459635
H   13   1     4.39038949906562    -1.24955421532309     9.49899813488174
H   14   1     3.74629220184371    -4.48798724298246     9.47414880962803
C   15   6     2.02478325622942    -2.42177285713224     6.44560829586187
C   16   6     3.88048732732831    -3.58795445236593     4.61402886975252
C   17   6    -0.18412382264649    -1.30464291231236     5.76021113881606
C   18   6    -2.10044360460382    -0.26837831862807     7.71610340970501
C   19   6    -3.08956938678556     2.35282328352614     6.88693925042618
C   20   6    -4.37372924094212    -2.09766595985142     7.93610724215954
C   21   6    -0.83850430593104     0.06372213486551    10.33002307643668
H   22   1     0.38411922142983     1.74281358590180    10.27380136539346
H   23   1    -2.30980003011276     0.45460143923765    11.73986301804329
H   24   1     4.58527064636731    -5.38706904479673     5.36778158023404
H   25   1     5.54944938091628    -2.37631462201630     4.35398898404058
H   26   1     3.06633019144754    -3.94118377051822     2.75255466032570
H   27   1    -4.17727778763546     2.26573369145191     5.12914900957504
H   28   1    -1.52662344935358     3.68001877441469     6.59540397151878
H   29   1    -4.32916174393862     3.13643051473529     8.35225460094913
H   30   1    -5.32329548507875    -2.36691813603695     6.11583672741581
H   31   1    -5.77989366598289    -1.33896741838552     9.25748940451935
H   32   1    -3.79310905209871    -3.96389819308585     8.61386170106276
C   33   6    -1.01100794815762    -1.06331657313199     3.11929490450892
C   34   6     0.37686231029920    -0.33275864510088     1.09165013596992
H   35   1    -3.01671213911428    -1.40297922289257     2.77827895090755
C   36   6    -0.64382707979748    -0.11591880174763    -1.42063131255788
H   37   1     2.35569259790262     0.17174499287298     1.33641070253857
H   38   1    -2.63317482972383    -0.60229203504227    -1.66119700396716
C   39   6     1.04406642127022     2.54697835791677   -12.65486785204246
C   40   6    -0.25769856063703     2.67711278008941   -15.08293200861523
H   41   1     3.03094671002655     3.07573165426063   -12.63261900496242
O   42   8     0.71886931482866     3.33224024015006   -17.06735820381613
H   43   1    -2.28855418566595     2.11893682007881   -15.01778643592878
[GTO]
1 0
 s    6 1.00
             3047.5249  0.0018347001629433
             457.36951    0.01403730124668
             103.94869   0.068842606114048
             29.210155    0.23218442062076
              9.286663    0.46794134155879
              3.163927    0.36231203217765
 s    3 1.00
             7.8682724   -0.11933240861517
             1.8812885   -0.16085421161283
             0.5442493     1.1434564825515
 s    1 1.00
             0.1687144                   1
 p    3 1.00
             7.8682724   0.068999095584993
             1.8812885    0.31642397975315
             0.5442493    0.74430825237435
 p    1 1.00
             0.1687144                   1
 d    1 1.00
                   0.8                   1

2 0
 s    3 1.00
             18.731137    0.03349459952309
             2.8253937    0.23472694665786
             0.6401217    0.81375731841339
 s    1 1.00
             0.1612778                   1

3 0
 s    6 1.00
             3047.5249  0.0018347001629433
             457.36951    0.01403730124668
             103.94869   0.068842606114048
             29.210155    0.23218442062076
              9.286663    0.46794134155879
              3.163927    0.36231203217765
 s    3 1.00
             7.8682724   -0.11933240861517
             1.8812885   -0.16085421161283
             0.5442493     1.1434564825515
 s    1 1.00
             0.1687144                   1
 p    3 1.00
             7.8682724   0.068999095584993
             1.8812885    0.31642397975315
             0.5442493    0.74430825237435
 p    1 1.00
             0.1687144                   1
 d    1 1.00
                   0.8                   1

4 0
 s    3 1.00
             18.731137    0.03349459952309
             2.8253937    0.23472694665786
             0.6401217    0.81375731841339
 s    1 1.00
             0.1612778                   1

5 0
 s    6 1.00
             3047.5249  0.0018347001629433
             457.36951    0.01403730124668
             103.94869   0.068842606114048
             29.210155    0.23218442062076
              9.286663    0.46794134155879
              3.163927    0.36231203217765
 s    3 1.00
             7.8682724   -0.11933240861517
             1.8812885   -0.16085421161283
             0.5442493     1.1434564825515
 s    1 1.00
             0.1687144                   1
 p    3 1.00
             7.8682724   0.068999095584993
             1.8812885    0.31642397975315
             0.5442493    0.74430825237435
 p    1 1.00
             0.1687144                   1
 d    1 1.00
                   0.8                   1

6 0
 s    3 1.00
             18.731137    0.03349459952309
             2.8253937    0.23472694665786
             0.6401217    0.81375731841339
 s    1 1.00
             0.1612778                   1

7 0
 s    6 1.00
             3047.5249  0.0018347001629433
             457.36951    0.01403730124668
             103.94869   0.068842606114048
             29.210155    0.23218442062076
              9.286663    0.46794134155879
              3.163927    0.36231203217765
 s    3 1.00
             7.8682724   -0.11933240861517
             1.8812885   -0.16085421161283
             0.5442493     1.1434564825515
 s    1 1.00
             0.1687144                   1
 p    3 1.00
             7.8682724   0.068999095584993
             1.8812885    0.31642397975315
             0.5442493    0.74430825237435
 p    1 1.00
             0.1687144                   1
 d    1 1.00
                   0.8                   1

8 0
 s    3 1.00
             18.731137    0.03349459952309
             2.8253937    0.23472694665786
             0.6401217    0.81375731841339
 s    1 1.00
             0.1612778                   1

9 0
 s    3 1.00
             18.731137    0.03349459952309
             2.8253937    0.23472694665786
             0.6401217    0.81375731841339
 s    1 1.00
             0.1612778                   1

10 0
 s    6 1.00
             3047.5249  0.0018347001629433
             457.36951    0.01403730124668
             103.94869   0.068842606114048
             29.210155    0.23218442062076
              9.286663    0.46794134155879
              3.163927    0.36231203217765
 s    3 1.00
             7.8682724   -0.11933240861517
             1.8812885   -0.16085421161283
             0.5442493     1.1434564825515
 s    1 1.00
             0.1687144                   1
 p    3 1.00
             7.8682724   0.068999095584993
             1.8812885    0.31642397975315
             0.5442493    0.74430825237435
 p    1 1.00
             0.1687144                   1
 d    1 1.00
                   0.8                   1

11 0
 s    3 1.00
             18.731137    0.03349459952309
             2.8253937    0.23472694665786
             0.6401217    0.81375731841339
 s    1 1.00
             0.1612778                   1

12 0
 s    6 1.00
             3047.5249  0.0018347001629433
             457.36951    0.01403730124668
             103.94869   0.068842606114048
             29.210155    0.23218442062076
              9.286663    0.46794134155879
              3.163927    0.36231203217765
 s    3 1.00
             7.8682724   -0.11933240861517
             1.8812885   -0.16085421161283
             0.5442493     1.1434564825515
 s    1 1.00
             0.1687144                   1
 p    3 1.00
             7.8682724   0.068999095584993
             1.8812885    0.31642397975315
             0.5442493    0.74430825237435
 p    1 1.00
             0.1687144                   1
 d    1 1.00
                   0.8                   1

13 0
 s    3 1.00
             18.731137    0.03349459952309
             2.8253937    0.23472694665786
             0.6401217    0.81375731841339
 s    1 1.00
             0.1612778                   1

14 0
 s    3 1.00
             18.731137    0.03349459952309
             2.8253937    0.23472694665786
             0.6401217    0.81375731841339
 s    1 1.00
             0.1612778                   1

15 0
 s    6 1.00
             3047.5249  0.0018347001629433
             457.36951    0.01403730124668
             103.94869   0.068842606114048
             29.210155    0.23218442062076
              9.286663    0.46794134155879
              3.163927    0.36231203217765
 s    3 1.00
             7.8682724   -0.11933240861517
             1.8812885   -0.16085421161283
             0.5442493     1.1434564825515
 s    1 1.00
             0.1687144                   1
 p    3 1.00
             7.8682724   0.068999095584993
             1.8812885    0.31642397975315
             0.5442493    0.74430825237435
 p    1 1.00
             0.1687144                   1
 d    1 1.00
                   0.8                   1

16 0
 s    6 1.00
             3047.5249  0.0018347001629433
             457.36951    0.01403730124668
             103.94869   0.068842606114048
             29.210155    0.23218442062076
              9.286663    0.46794134155879
              3.163927    0.36231203217765
 s    3 1.00
             7.8682724   -0.11933240861517
             1.8812885   -0.16085421161283
             0.5442493     1.1434564825515
 s    1 1.00
             0.1687144                   1
 p    3 1.00
             7.8682724   0.068999095584993
             1.8812885    0.31642397975315
             0.5442493    0.74430825237435
 p    1 1.00
             0.1687144                   1
 d    1 1.00
                   0.8                   1

17 0
 s    6 1.00
             3047.5249  0.0018347001629433
             457.36951    0.01403730124668
             103.94869   0.068842606114048
             29.210155    0.23218442062076
              9.286663    0.46794134155879
              3.163927    0.36231203217765
 s    3 1.00
             7.8682724   -0.11933240861517
             1.8812885   -0.16085421161283
             0.5442493     1.1434564825515
 s    1 1.00
             0.1687144                   1
 p    3 1.00
             7.8682724   0.068999095584993
             1.8812885    0.31642397975315
             0.5442493    0.74430825237435
 p    1 1.00
             0.1687144                   1
 d    1 1.00
                   0.8                   1

18 0
 s    6 1.00
             3047.5249  0.0018347001629433
             457.36951    0.01403730124668
             103.94869   0.068842606114048
             29.210155    0.23218442062076
              9.286663    0.46794134155879
              3.163927    0.36231203217765
 s    3 1.00
             7.8682724   -0.11933240861517
             1.8812885   -0.16085421161283
             0.5442493     1.1434564825515
 s    1 1.00
             0.1687144                   1
 p    3 1.00
             7.8682724   0.068999095584993
             1.8812885    0.31642397975315
             0.5442493    0.74430825237435
 p    1 1.00
             0.1687144                   1
 d    1 1.00
                   0.8                   1

19 0
 s    6 1.00
             3047.5249  0.0018347001629433
             457.36951    0.01403730124668
             103.94869   0.068842606114048
             29.210155    0.23218442062076
              9.286663    0.46794134155879
              3.163927    0.36231203217765
 s    3 1.00
             7.8682724   -0.11933240861517
             1.8812885   -0.16085421161283
             0.5442493     1.1434564825515
 s    1 1.00
             0.1687144                   1
 p    3 1.00
             7.8682724   0.068999095584993
             1.8812885    0.31642397975315
             0.5442493    0.74430825237435
 p    1 1.00
             0.1687144                   1
 d    1 1.00
                   0.8                   1

20 0
 s    6 1.00
             3047.5249  0.0018347001629433
             457.36951    0.01403730124668
             103.94869   0.068842606114048
             29.210155    0.23218442062076
              9.286663    0.46794134155879
              3.163927    0.36231203217765
 s    3 1.00
             7.8682724   -0.11933240861517
             1.8812885   -0.16085421161283
             0.5442493     1.1434564825515
 s    1 1.00
             0.1687144                   1
 p    3 1.00
             7.8682724   0.068999095584993
             1.8812885    0.31642397975315
             0.5442493    0.74430825237435
 p    1 1.00
             0.1687144                   1
 d    1 1.00
                   0.8                   1

21 0
 s    6 1.00
             3047.5249  0.0018347001629433
             457.36951    0.01403730124668
             103.94869   0.068842606114048
             29.210155    0.23218442062076
              9.286663    0.46794134155879
              3.163927    0.36231203217765
 s    3 1.00
             7.8682724   -0.11933240861517
             1.8812885   -0.16085421161283
             0.5442493     1.1434564825515
 s    1 1.00
             0.1687144                   1
 p    3 1.00
             7.8682724   0.068999095584993
             1.8812885    0.31642397975315
             0.5442493    0.74430825237435
 p    1 1.00
             0.1687144                   1
 d    1 1.00
                   0.8                   1

22 0
 s    3 1.00
             18.731137    0.03349459952309
             2.8253937    0.23472694665786
             0.6401217    0.81375731841339
 s    1 1.00
             0.1612778                   1

23 0
 s    3 1.00
             18.731137    0.03349459952309
             2.8253937    0.23472694665786
             0.6401217    0.81375731841339
 s    1 1.00
             0.1612778                   1

24 0
 s    3 1.00
             18.731137    0.03349459952309
             2.8253937    0.23472694665786
             0.6401217    0.81375731841339
 s    1 1.00
             0.1612778                   1

25 0
 s    3 1.00
             18.731137    0.03349459952309
             2.8253937    0.23472694665786
             0.6401217    0.81375731841339
 s    1 1.00
             0.1612778                   1

26 0
 s    3 1.00
             18.731137    0.03349459952309
             2.8253937    0.23472694665786
             0.6401217    0.81375731841339
 s    1 1.00
             0.1612778                   1

27 0
 s    3 1.00
             18.731137    0.03349459952309
             2.8253937    0.23472694665786
             0.6401217    0.81375731841339
 s    1 1.00
             0.1612778                   1

28 0
 s    3 1.00
             18.731137    0.03349459952309
             2.8253937    0.23472694665786
             0.6401217    0.81375731841339
 s    1 1.00
             0.1612778                   1

29 0
 s    3 1.00
             18.731137    0.03349459952309
             2.8253937    0.23472694665786
             0.6401217    0.81375731841339
 s    1 1.00
             0.1612778                   1

30 0
 s    3 1.00
             18.731137    0.03349459952309
             2.8253937    0.23472694665786
             0.6401217    0.81375731841339
 s    1 1.00
             0.1612778                   1

31 0
 s    3 1.00
             18.731137    0.03349459952309
             2.8253937    0.23472694665786
             0.6401217    0.81375731841339
 s    1 1.00
             0.1612778                   1

32 0
 s    3 1.00
             18.731137    0.03349459952309
             2.8253937    0.23472694665786
             0.6401217    0.81375731841339
 s    1 1.00
             0.1612778                   1

33 0
 s    6 1.00
             3047.5249  0.0018347001629433
             457.36951    0.01403730124668
             103.94869   0.068842606114048
             29.210155    0.23218442062076
              9.286663    0.46794134155879
              3.163927    0.36231203217765
 s    3 1.00
             7.8682724   -0.11933240861517
             1.8812885   -0.16085421161283
             0.5442493     1.1434564825515
 s    1 1.00
             0.1687144                   1
 p    3 1.00
             7.8682724   0.068999095584993
             1.8812885    0.31642397975315
             0.5442493    0.74430825237435
 p    1 1.00
             0.1687144                   1
 d    1 1.00
                   0.8                   1

34 0
 s    6 1.00
             3047.5249  0.0018347001629433
             457.36951    0.01403730124668
             103.94869   0.068842606114048
             29.210155    0.23218442062076
              9.286663    0.46794134155879
              3.163927    0.36231203217765
 s    3 1.00
             7.8682724   -0.11933240861517
             1.8812885   -0.16085421161283
             0.5442493     1.1434564825515
 s    1 1.00
             0.1687144                   1
 p    3 1.00
             7.8682724   0.068999095584993
             1.8812885    0.31642397975315
             0.5442493    0.74430825237435
 p    1 1.00
             0.1687144                   1
 d    1 1.00
                   0.8                   1

35 0
 s    3 1.00
             18.731137    0.03349459952309
             2.8253937    0.23472694665786
             0.6401217    0.81375731841339
 s    1 1.00
             0.1612778                   1

36 0
 s    6 1.00
             3047.5249  0.0018347001629433
             457.36951    0.01403730124668
             103.94869   0.068842606114048
             29.210155    0.23218442062076
              9.286663    0.46794134155879
              3.163927    0.36231203217765
 s    3 1.00
             7.8682724   -0.11933240861517
             1.8812885   -0.16085421161283
             0.5442493     1.1434564825515
 s    1 1.00
             0.1687144                   1
 p    3 1.00
             7.8682724   0.068999095584993
             1.8812885    0.31642397975315
             0.5442493    0.74430825237435
 p    1 1.00
             0.1687144                   1
 d    1 1.00
                   0.8                   1

37 0
 s    3 1.00
             18.731137    0.03349459952309
             2.8253937    0.23472694665786
             0.6401217    0.81375731841339
 s    1 1.00
             0.1612778                   1

38 0
 s    3 1.00
             18.731137    0.03349459952309
             2.8253937    0.23472694665786
             0.6401217    0.81375731841339
 s    1 1.00
             0.1612778                   1

39 0
 s    6 1.00
             3047.5249  0.0018347001629433
             457.36951    0.01403730124668
             103.94869   0.068842606114048
             29.210155    0.23218442062076
              9.286663    0.46794134155879
              3.163927    0.36231203217765
 s    3 1.00
             7.8682724   -0.11933240861517
             1.8812885   -0.16085421161283
             0.5442493     1.1434564825515
 s    1 1.00
             0.1687144                   1
 p    3 1.00
             7.8682724   0.068999095584993
             1.8812885    0.31642397975315
             0.5442493    0.74430825237435
 p    1 1.00
             0.1687144                   1
 d    1 1.00
                   0.8                   1

40 0
 s    6 1.00
             3047.5249  0.0018347001629433
             457.36951    0.01403730124668
             103.94869   0.068842606114048
             29.210155    0.23218442062076
              9.286663    0.46794134155879
              3.163927    0.36231203217765
 s    3 1.00
             7.8682724   -0.11933240861517
             1.8812885   -0.16085421161283
             0.5442493     1.1434564825515
 s    1 1.00
             0.1687144                   1
 p    3 1.00
             7.8682724   0.068999095584993
             1.8812885    0.31642397975315
             0.5442493    0.74430825237435
 p    1 1.00
             0.1687144                   1
 d    1 1.00
                   0.8                   1

41 0
 s    3 1.00
             18.731137    0.03349459952309
             2.8253937    0.23472694665786
             0.6401217    0.81375731841339
 s    1 1.00
             0.1612778                   1

42 0
 s    6 1.00
             5484.6717   0.001831099805527
             825.23495   0.013950098518422
             188.04696    0.06844509273075
               52.9645    0.23271427528445
              16.89757    0.47019295006289
             5.7996353    0.35852086192309
 s    3 1.00
             15.539616   -0.11077750382508
             3.5999336   -0.14802630511126
             1.0137618     1.1307670390447
 s    1 1.00
             0.2700058                   1
 p    3 1.00
             15.539616   0.070874299543311
             3.5999336    0.33975279781076
             1.0137618    0.72715859531445
 p    1 1.00
             0.2700058                   1
 d    1 1.00
                   0.8                   1

43 0
 s    3 1.00
             18.731137    0.03349459952309
             2.8253937    0.23472694665786
             0.6401217    0.81375731841339
 s    1 1.00
             0.1612778                   1

[5d]
[7f]
[9g]

[MO]
 Sym= A
 Ene=               0
 Spin= Alpha
 Occup=    1.00000
   1    -1.2908436672961e-05
   2    -7.1472027476138e-05
   3    0.00038520830036419
   4    -1.7137568672702e-05
   5    -9.3764215492205e-06
   6    2.4770556426104e-05
   7    0.00014643693286036
   8    0.00035427110587156
   9      -0.0016049578816
  10    2.3600745886834e-05
  11    6.1513311396187e-05
  12    5.7393356200604e-06
  13    1.6084057468827e-05
  14    -4.040621192845e-06
  15    -7.654538998462e-05
  16    0.00012503959086517
  17    -0.00012357467651257
  18    -0.00031710921623429
  19    0.00041376757430523
  20    7.7229420737421e-05
  21    -2.1951099853781e-05
  22    0.00021496442003684
  23    -0.00074969471103396
  24    6.6523160150656e-05
  25    -0.0013538658573779
  26    -8.9897852893778e-05
  27    -2.9516778994026e-06
  28    -1.1128140518422e-06
  29    0.00013606489731943
  30    7.8969231192305e-05
  31    -0.00014478137776647
  32    -0.00066112722995269
  33    0.0093391300624317
  34    -0.0013911732413865
  35    0.0083362932342771
  36    0.00052957371558465
  37    -0.00011303193613128
  38    0.0012958596633058
  39    8.9636424169572e-05
  40    0.00089955379738076
  41    -0.0044509471627079
  42    -0.00099610021733159
  43    -0.0010533471084803
  44    0.00011406020575718
  45    -0.00028033375799266
  46    5.4781290522645e-05
  47    -0.00046312645451011
  48    -0.00079859632905647
  49      0.99483435403224
  50     0.038528459187902
  51    -0.030914326896182
  52    0.00079889814075094
  53    0.00024910565216374
  54    -0.00017394459432424
  55    -0.0037697077543698
  56    -0.00089797488143134
  57    -0.00058199550051416
  58    0.00086900447722724
  59    -0.00028414030048613
  60    -0.00043570408691968
  61    0.00018135551080361
  62    0.00019010196841211
  63    -0.0013069193072232
  64    0.0041894896335009
  65    -6.2486038575315e-07
  66    -4.586169659051e-07
  67    -1.1121027350177e-07
  68    -1.137632865168e-06
  69    5.093203222788e-06
  70    5.9380040354237e-07
  71    -9.4072342572266e-07
  72    1.5552149033947e-07
  73    2.3945473602294e-06
  74    3.3435510663892e-06
  75    6.7629696715943e-07
  76    -1.3219614960948e-08
  77    -1.9055391110379e-07
  78    1.9303115034967e-07
  79    1.9740068259457e-07
  80    -1.3723622517451e-07
  81    4.2970200506157e-07
  82    4.7217298016036e-07
  83    -2.1331591216401e-09
  84    -2.1046342833671e-07
  85    -2.6660871514208e-05
  86    1.255596438646e-06
  87    1.9918026304196e-07
  88    1.7155109004417e-06
  89    8.3515858627791e-06
  90    -1.200887027075e-05
  91    4.4690985640574e-06
  92    4.5782080403801e-07
  93    -7.6685517266314e-07
  94    8.1000825110146e-07
  95    -6.705064449078e-08
  96    -2.8397784061141e-07
  97    1.376006447669e-06
  98    1.7209026260679e-06
  99    -1.3299504812589e-07
 100    -3.4991471382944e-06
 101    -1.5736463787006e-07
 102    -1.7671487945183e-06
 103    3.9503503549957e-05
 104    9.6898591055415e-07
 105    -1.5260658132635e-06
 106    -1.7804590856403e-06
 107    -5.2391046569966e-05
 108    4.3867221396661e-05
 109    6.238348504296e-05
 110    -1.3123646803414e-06
 111    -4.063547285113e-07
 112    3.1247332937296e-07
 113    4.5755204205698e-07
 114    -1.3712183966128e-06
 115    -9.9671990150446e-07
 116    -8.9107829833219e-06
 117    7.3276468651493e-05
 118    -1.0750211258956e-06
 119    7.5507749714732e-07
 120    1.8862760878249e-06
 121    -1.7932933759664e-05
 122    9.2842970565233e-06
 123    1.0721539007752e-05
 124    3.8046053810184e-08
 125    -8.551960697019e-07
 126    1.015830237623e-07
 127    5.2982416366152e-07
 128    -6.9975803531172e-07
 129    -2.0901536891683e-06
 130    -1.3994940403305e-05
 131    0.00011345464760444
 132    1.3705486425597e-06
 133    2.9989949061821e-07
 134    3.1318877761204e-06
 135    -7.1225997111904e-05
 136    7.5406238104417e-06
 137    -0.00017364684727129
 138    4.8328776122982e-06
 139    3.1165025000533e-06
 140    6.7364146297193e-07
 141    5.4047934634836e-07
 142    7.5088987081518e-07
 143    -8.0052886141785e-07
 144    -9.6701025468417e-06
 145    3.2113358076812e-05
 146    6.1753339316546e-07
 147    1.166735278684e-06
 148    3.7816745874454e-06
 149    1.6764443718099e-05
 150    -7.6465934145661e-06
 151    -2.1013405821659e-05
 152    -2.221845878503e-06
 153    -1.1068245016483e-06
 154    -6.0396807647983e-07
 155    1.3700611492738e-06
 156    -1.7555430885904e-06
 157    3.7885089431591e-07
 158    2.6856927430685e-06
 159    -8.6033090582948e-06
 160    1.1775216175388e-06
 161    5.6491682666258e-07
 162    -6.5204847409909e-07
 163    -1.2820802396581e-05
 164    3.9425433507383e-06
 165    5.0384337928276e-06
 166    1.3195732415615e-06
 167    -4.5074718258831e-07
 168    -2.1532194263823e-07
 169    7.3680577664175e-08
 170    5.8871502437621e-07
 171    1.3077596598269e-07
 172    3.8475775724968e-07
 173    -1.1949040767277e-05
 174    -2.251903268302e-06
 175    -6.1140001305086e-07
 176    1.9230502942196e-06
 177    6.1917996022528e-06
 178    3.7445668362405e-06
 179    1.1895235675031e-06
 180    2.4315074590509e-08
 181    9.3058830536335e-07
 182    2.8636993478973e-07
 183    -5.7964785585294e-07
 184    6.4620079204022e-07
 185    -8.901245263727e-07
 186    -7.5112721520063e-06
 187    1.9559484598463e-05
 188    -9.4512082190364e-07
 189    7.7031174590856e-08
 190    1.4773908193608e-06
 191    2.597990040101e-06
 192    -1.2203823308252e-06
 193    -1.7183373374712e-05
 194    8.6329024349622e-07
 195    2.9341293202694e-07
 196    6.8056550927409e-07
 197    9.5254350260453e-08
 198    -1.4318825605879e-07
 199    -1.9393072853751e-06
 200    -2.4436749754278e-06
 201    -2.5616377340148e-07
 202    6.1159298422096e-06
 203    -2.7484255570101e-06
 204    -6.8768583914921e-07
 205    -7.2410363465059e-07
 206    -7.2843864553713e-06
 207    7.4086781495106e-07
 208    -1.1368283046962e-05
 209    2.4370382741908e-06
 210    -3.6458257331836e-06
 211    1.7370485674077e-06
 212    5.0392018389011e-06
 213    -3.1545412990594e-07
 214    -5.2452800974664e-06
 215    -2.434004690476e-06
 216    1.5639554375542e-05
 217    1.1276881915107e-06
 218    3.1966937405683e-06
 219    8.5388399033146e-07
 220    1.3867158834148e-06
 221    -2.2502458048223e-06
 222    -2.8172567470622e-05
 223    8.4546613520871e-05
 224    4.4812886920896e-06
 225    -8.1590612082972e-07
 226    1.1385701338234e-05
 227    2.2674415613775e-05
 228    5.6174129523898e-05
 229    -0.0002769505890708
 230    8.9744967267673e-07
 231    -1.0574768008162e-05
 232    -4.9346743600571e-06
 233    5.4884468615786e-06
 234    5.0810846100658e-06
 235    -3.869615899006e-06
 236    -2.6807736784035e-05
 237    -0.00020187877151227
 238    -9.732505924474e-06
 239    -4.9960304603566e-06
 240    1.3064899200916e-05
 241    1.0616286824519e-05
 242    2.6311934179802e-05
 243    -0.00013829784526626
 244    -1.8803680327847e-06
 245    1.6540484772123e-05
 246    3.4702423794437e-06
 247    7.2178243999919e-06
 248    8.2055702572109e-07
 249    -1.003489661436e-05
 250    -1.4410200234499e-05
 251    1.209328015795e-06
 252    -5.2293535995283e-05
 253    0.00096158354830059
 254    -7.1355413866581e-06
 255    -2.2846889368411e-06
 256    1.8539102322108e-06
 257    0.00058349680292319
 258    0.00024991751623059
 259    -0.00047238221591363
 260    6.5113995574297e-06
 261    -3.1635217982714e-05
 262    -1.5178431403365e-05
 263    1.5513283805518e-05
 264    1.6692263649064e-05
 265    -1.6885321300833e-05
 266    4.6184695274043e-05
 267    -1.2788619668721e-05
 268    0.00026479858696427
 269    0.0001292245905634
 270    -0.0023180441112368
 271     0.009305815164042
 272    0.0009075526797505
 273    0.00054806400850159
 274    -0.0015439071125008
 275    -0.00019872820563202
 276    -0.00087343144403626
 277    0.0041594717364292
 278    -0.00072817278447497
 279    0.0011144406217562
 280    0.00065139244963802