[Molden Format]
made by pyscf v[2.0.1]
[Atoms] (AU)
C   1   6     0.69100024066471     0.64692934207205    -3.48223131169301
H   2   1     2.68052439830868     1.13355088658700    -3.25784032593313
C   3   6    -0.36286361513219     0.85440132524594    -5.97030179418974
H   4   1    -2.35448549047279     0.36322488579172    -6.17995817793143
C   5   6     0.93697958957450     1.61209284601821    -8.05828437677121
H   6   1    -0.10682308805726     2.30253989392639    -9.69373588628611
C   7   6     3.64263503193718     1.55467149193689    -8.23832629511906
H   8   1     4.66272936056768     0.85936926442728    -6.58433578959761
H   9   1     1.55630230933075    -1.92953025305990    12.99630010416247
C   10   6     0.75233899775814    -2.21270439606481    11.10705728102219
H   11   1    -0.43433408177274    -3.90944857546550    11.22216085340412
C   12   6     2.86362581178706    -2.63237380607947     9.17926416456045
H   13   1     4.39038949912609    -1.24955421540245     9.49899813497433
H   14   1     3.74629220191363    -4.48798724300892     9.47414880959024
C   15   6     2.02478325613682    -2.42177285709634     6.44560829588644
C   16   6     3.88048732735477    -3.58795445234514     4.61402886975252
C   17   6    -0.18412382258602    -1.30464291234259     5.76021113872346
C   18   6    -2.10044360464350    -0.26837831858460     7.71610340967100
C   19   6    -3.08956938670431     2.35282328359417     6.88693925039594
C   20   6    -4.37372924086464    -2.09766595989678     7.93610724222001
C   21   6    -0.83850430601230     0.06372213486173    10.33002307638377
H   22   1     0.38411922151109     1.74281358582432    10.27380136542181
H   23   1    -2.30980003007874     0.45460143924521    11.73986301809809
H   24   1     4.58527064644668    -5.38706904487420     5.36778158031719
H   25   1     5.54944938085014    -2.37631462192748     4.35398898413318
H   26   1     3.06633019150423    -3.94118377050688     2.75255466040884
H   27   1    -4.17727778763735     2.26573369139522     5.12914900961283
H   28   1    -1.52662344944051     3.68001877445626     6.59540397144508
H   29   1    -4.32916174397830     3.13643051467482     8.35225460090378
H   30   1    -5.32329548508442    -2.36691813602939     6.11583672749896
H   31   1    -5.77989366602257    -1.33896741843465     9.25748940450990
H   32   1    -3.79310905208926    -3.96389819310853     8.61386170102686
C   33   6    -1.01100794811226    -1.06331657314144     3.11929490449947
C   34   6     0.37686231036534    -0.33275864505552     1.09165013605873
H   35   1    -3.01671213906703    -1.40297922279997     2.77827895090944
C   36   6    -0.64382707979370    -0.11591880174385    -1.42063131251064
H   37   1     2.35569259782137     0.17174499283897     1.33641070251401
H   38   1    -2.63317482980319    -0.60229203511219    -1.66119700387645
C   39   6     5.01588399354044     2.28654094702299   -10.27677863573407
C   40   6     7.77080404832789     2.15450646451281   -10.27454889780196
H   41   1     4.11782812209845     2.99683739506263   -11.98462609656630
O   42   8     9.12060555425099     2.77825484064970   -12.03801083010553
H   43   1     8.60983853061047     1.41663292301779    -8.48800399433497
[GTO]
1 0
 s    6 1.00
             3047.5249  0.0018347001629433
             457.36951    0.01403730124668
             103.94869   0.068842606114048
             29.210155    0.23218442062076
              9.286663    0.46794134155879
              3.163927    0.36231203217765
 s    3 1.00
             7.8682724   -0.11933240861517
             1.8812885   -0.16085421161283
             0.5442493     1.1434564825515
 s    1 1.00
             0.1687144                   1
 p    3 1.00
             7.8682724   0.068999095584993
             1.8812885    0.31642397975315
             0.5442493    0.74430825237435
 p    1 1.00
             0.1687144                   1
 d    1 1.00
                   0.8                   1

2 0
 s    3 1.00
             18.731137    0.03349459952309
             2.8253937    0.23472694665786
             0.6401217    0.81375731841339
 s    1 1.00
             0.1612778                   1

3 0
 s    6 1.00
             3047.5249  0.0018347001629433
             457.36951    0.01403730124668
             103.94869   0.068842606114048
             29.210155    0.23218442062076
              9.286663    0.46794134155879
              3.163927    0.36231203217765
 s    3 1.00
             7.8682724   -0.11933240861517
             1.8812885   -0.16085421161283
             0.5442493     1.1434564825515
 s    1 1.00
             0.1687144                   1
 p    3 1.00
             7.8682724   0.068999095584993
             1.8812885    0.31642397975315
             0.5442493    0.74430825237435
 p    1 1.00
             0.1687144                   1
 d    1 1.00
                   0.8                   1

4 0
 s    3 1.00
             18.731137    0.03349459952309
             2.8253937    0.23472694665786
             0.6401217    0.81375731841339
 s    1 1.00
             0.1612778                   1

5 0
 s    6 1.00
             3047.5249  0.0018347001629433
             457.36951    0.01403730124668
             103.94869   0.068842606114048
             29.210155    0.23218442062076
              9.286663    0.46794134155879
              3.163927    0.36231203217765
 s    3 1.00
             7.8682724   -0.11933240861517
             1.8812885   -0.16085421161283
             0.5442493     1.1434564825515
 s    1 1.00
             0.1687144                   1
 p    3 1.00
             7.8682724   0.068999095584993
             1.8812885    0.31642397975315
             0.5442493    0.74430825237435
 p    1 1.00
             0.1687144                   1
 d    1 1.00
                   0.8                   1

6 0
 s    3 1.00
             18.731137    0.03349459952309
             2.8253937    0.23472694665786
             0.6401217    0.81375731841339
 s    1 1.00
             0.1612778                   1

7 0
 s    6 1.00
             3047.5249  0.0018347001629433
             457.36951    0.01403730124668
             103.94869   0.068842606114048
             29.210155    0.23218442062076
              9.286663    0.46794134155879
              3.163927    0.36231203217765
 s    3 1.00
             7.8682724   -0.11933240861517
             1.8812885   -0.16085421161283
             0.5442493     1.1434564825515
 s    1 1.00
             0.1687144                   1
 p    3 1.00
             7.8682724   0.068999095584993
             1.8812885    0.31642397975315
             0.5442493    0.74430825237435
 p    1 1.00
             0.1687144                   1
 d    1 1.00
                   0.8                   1

8 0
 s    3 1.00
             18.731137    0.03349459952309
             2.8253937    0.23472694665786
             0.6401217    0.81375731841339
 s    1 1.00
             0.1612778                   1

9 0
 s    3 1.00
             18.731137    0.03349459952309
             2.8253937    0.23472694665786
             0.6401217    0.81375731841339
 s    1 1.00
             0.1612778                   1

10 0
 s    6 1.00
             3047.5249  0.0018347001629433
             457.36951    0.01403730124668
             103.94869   0.068842606114048
             29.210155    0.23218442062076
              9.286663    0.46794134155879
              3.163927    0.36231203217765
 s    3 1.00
             7.8682724   -0.11933240861517
             1.8812885   -0.16085421161283
             0.5442493     1.1434564825515
 s    1 1.00
             0.1687144                   1
 p    3 1.00
             7.8682724   0.068999095584993
             1.8812885    0.31642397975315
             0.5442493    0.74430825237435
 p    1 1.00
             0.1687144                   1
 d    1 1.00
                   0.8                   1

11 0
 s    3 1.00
             18.731137    0.03349459952309
             2.8253937    0.23472694665786
             0.6401217    0.81375731841339
 s    1 1.00
             0.1612778                   1

12 0
 s    6 1.00
             3047.5249  0.0018347001629433
             457.36951    0.01403730124668
             103.94869   0.068842606114048
             29.210155    0.23218442062076
              9.286663    0.46794134155879
              3.163927    0.36231203217765
 s    3 1.00
             7.8682724   -0.11933240861517
             1.8812885   -0.16085421161283
             0.5442493     1.1434564825515
 s    1 1.00
             0.1687144                   1
 p    3 1.00
             7.8682724   0.068999095584993
             1.8812885    0.31642397975315
             0.5442493    0.74430825237435
 p    1 1.00
             0.1687144                   1
 d    1 1.00
                   0.8                   1

13 0
 s    3 1.00
             18.731137    0.03349459952309
             2.8253937    0.23472694665786
             0.6401217    0.81375731841339
 s    1 1.00
             0.1612778                   1

14 0
 s    3 1.00
             18.731137    0.03349459952309
             2.8253937    0.23472694665786
             0.6401217    0.81375731841339
 s    1 1.00
             0.1612778                   1

15 0
 s    6 1.00
             3047.5249  0.0018347001629433
             457.36951    0.01403730124668
             103.94869   0.068842606114048
             29.210155    0.23218442062076
              9.286663    0.46794134155879
              3.163927    0.36231203217765
 s    3 1.00
             7.8682724   -0.11933240861517
             1.8812885   -0.16085421161283
             0.5442493     1.1434564825515
 s    1 1.00
             0.1687144                   1
 p    3 1.00
             7.8682724   0.068999095584993
             1.8812885    0.31642397975315
             0.5442493    0.74430825237435
 p    1 1.00
             0.1687144                   1
 d    1 1.00
                   0.8                   1

16 0
 s    6 1.00
             3047.5249  0.0018347001629433
             457.36951    0.01403730124668
             103.94869   0.068842606114048
             29.210155    0.23218442062076
              9.286663    0.46794134155879
              3.163927    0.36231203217765
 s    3 1.00
             7.8682724   -0.11933240861517
             1.8812885   -0.16085421161283
             0.5442493     1.1434564825515
 s    1 1.00
             0.1687144                   1
 p    3 1.00
             7.8682724   0.068999095584993
             1.8812885    0.31642397975315
             0.5442493    0.74430825237435
 p    1 1.00
             0.1687144                   1
 d    1 1.00
                   0.8                   1

17 0
 s    6 1.00
             3047.5249  0.0018347001629433
             457.36951    0.01403730124668
             103.94869   0.068842606114048
             29.210155    0.23218442062076
              9.286663    0.46794134155879
              3.163927    0.36231203217765
 s    3 1.00
             7.8682724   -0.11933240861517
             1.8812885   -0.16085421161283
             0.5442493     1.1434564825515
 s    1 1.00
             0.1687144                   1
 p    3 1.00
             7.8682724   0.068999095584993
             1.8812885    0.31642397975315
             0.5442493    0.74430825237435
 p    1 1.00
             0.1687144                   1
 d    1 1.00
                   0.8                   1

18 0
 s    6 1.00
             3047.5249  0.0018347001629433
             457.36951    0.01403730124668
             103.94869   0.068842606114048
             29.210155    0.23218442062076
              9.286663    0.46794134155879
              3.163927    0.36231203217765
 s    3 1.00
             7.8682724   -0.11933240861517
             1.8812885   -0.16085421161283
             0.5442493     1.1434564825515
 s    1 1.00
             0.1687144                   1
 p    3 1.00
             7.8682724   0.068999095584993
             1.8812885    0.31642397975315
             0.5442493    0.74430825237435
 p    1 1.00
             0.1687144                   1
 d    1 1.00
                   0.8                   1

19 0
 s    6 1.00
             3047.5249  0.0018347001629433
             457.36951    0.01403730124668
             103.94869   0.068842606114048
             29.210155    0.23218442062076
              9.286663    0.46794134155879
              3.163927    0.36231203217765
 s    3 1.00
             7.8682724   -0.11933240861517
             1.8812885   -0.16085421161283
             0.5442493     1.1434564825515
 s    1 1.00
             0.1687144                   1
 p    3 1.00
             7.8682724   0.068999095584993
             1.8812885    0.31642397975315
             0.5442493    0.74430825237435
 p    1 1.00
             0.1687144                   1
 d    1 1.00
                   0.8                   1

20 0
 s    6 1.00
             3047.5249  0.0018347001629433
             457.36951    0.01403730124668
             103.94869   0.068842606114048
             29.210155    0.23218442062076
              9.286663    0.46794134155879
              3.163927    0.36231203217765
 s    3 1.00
             7.8682724   -0.11933240861517
             1.8812885   -0.16085421161283
             0.5442493     1.1434564825515
 s    1 1.00
             0.1687144                   1
 p    3 1.00
             7.8682724   0.068999095584993
             1.8812885    0.31642397975315
             0.5442493    0.74430825237435
 p    1 1.00
             0.1687144                   1
 d    1 1.00
                   0.8                   1

21 0
 s    6 1.00
             3047.5249  0.0018347001629433
             457.36951    0.01403730124668
             103.94869   0.068842606114048
             29.210155    0.23218442062076
              9.286663    0.46794134155879
              3.163927    0.36231203217765
 s    3 1.00
             7.8682724   -0.11933240861517
             1.8812885   -0.16085421161283
             0.5442493     1.1434564825515
 s    1 1.00
             0.1687144                   1
 p    3 1.00
             7.8682724   0.068999095584993
             1.8812885    0.31642397975315
             0.5442493    0.74430825237435
 p    1 1.00
             0.1687144                   1
 d    1 1.00
                   0.8                   1

22 0
 s    3 1.00
             18.731137    0.03349459952309
             2.8253937    0.23472694665786
             0.6401217    0.81375731841339
 s    1 1.00
             0.1612778                   1

23 0
 s    3 1.00
             18.731137    0.03349459952309
             2.8253937    0.23472694665786
             0.6401217    0.81375731841339
 s    1 1.00
             0.1612778                   1

24 0
 s    3 1.00
             18.731137    0.03349459952309
             2.8253937    0.23472694665786
             0.6401217    0.81375731841339
 s    1 1.00
             0.1612778                   1

25 0
 s    3 1.00
             18.731137    0.03349459952309
             2.8253937    0.23472694665786
             0.6401217    0.81375731841339
 s    1 1.00
             0.1612778                   1

26 0
 s    3 1.00
             18.731137    0.03349459952309
             2.8253937    0.23472694665786
             0.6401217    0.81375731841339
 s    1 1.00
             0.1612778                   1

27 0
 s    3 1.00
             18.731137    0.03349459952309
             2.8253937    0.23472694665786
             0.6401217    0.81375731841339
 s    1 1.00
             0.1612778                   1

28 0
 s    3 1.00
             18.731137    0.03349459952309
             2.8253937    0.23472694665786
             0.6401217    0.81375731841339
 s    1 1.00
             0.1612778                   1

29 0
 s    3 1.00
             18.731137    0.03349459952309
             2.8253937    0.23472694665786
             0.6401217    0.81375731841339
 s    1 1.00
             0.1612778                   1

30 0
 s    3 1.00
             18.731137    0.03349459952309
             2.8253937    0.23472694665786
             0.6401217    0.81375731841339
 s    1 1.00
             0.1612778                   1

31 0
 s    3 1.00
             18.731137    0.03349459952309
             2.8253937    0.23472694665786
             0.6401217    0.81375731841339
 s    1 1.00
             0.1612778                   1

32 0
 s    3 1.00
             18.731137    0.03349459952309
             2.8253937    0.23472694665786
             0.6401217    0.81375731841339
 s    1 1.00
             0.1612778                   1

33 0
 s    6 1.00
             3047.5249  0.0018347001629433
             457.36951    0.01403730124668
             103.94869   0.068842606114048
             29.210155    0.23218442062076
              9.286663    0.46794134155879
              3.163927    0.36231203217765
 s    3 1.00
             7.8682724   -0.11933240861517
             1.8812885   -0.16085421161283
             0.5442493     1.1434564825515
 s    1 1.00
             0.1687144                   1
 p    3 1.00
             7.8682724   0.068999095584993
             1.8812885    0.31642397975315
             0.5442493    0.74430825237435
 p    1 1.00
             0.1687144                   1
 d    1 1.00
                   0.8                   1

34 0
 s    6 1.00
             3047.5249  0.0018347001629433
             457.36951    0.01403730124668
             103.94869   0.068842606114048
             29.210155    0.23218442062076
              9.286663    0.46794134155879
              3.163927    0.36231203217765
 s    3 1.00
             7.8682724   -0.11933240861517
             1.8812885   -0.16085421161283
             0.5442493     1.1434564825515
 s    1 1.00
             0.1687144                   1
 p    3 1.00
             7.8682724   0.068999095584993
             1.8812885    0.31642397975315
             0.5442493    0.74430825237435
 p    1 1.00
             0.1687144                   1
 d    1 1.00
                   0.8                   1

35 0
 s    3 1.00
             18.731137    0.03349459952309
             2.8253937    0.23472694665786
             0.6401217    0.81375731841339
 s    1 1.00
             0.1612778                   1

36 0
 s    6 1.00
             3047.5249  0.0018347001629433
             457.36951    0.01403730124668
             103.94869   0.068842606114048
             29.210155    0.23218442062076
              9.286663    0.46794134155879
              3.163927    0.36231203217765
 s    3 1.00
             7.8682724   -0.11933240861517
             1.8812885   -0.16085421161283
             0.5442493     1.1434564825515
 s    1 1.00
             0.1687144                   1
 p    3 1.00
             7.8682724   0.068999095584993
             1.8812885    0.31642397975315
             0.5442493    0.74430825237435
 p    1 1.00
             0.1687144                   1
 d    1 1.00
                   0.8                   1

37 0
 s    3 1.00
             18.731137    0.03349459952309
             2.8253937    0.23472694665786
             0.6401217    0.81375731841339
 s    1 1.00
             0.1612778                   1

38 0
 s    3 1.00
             18.731137    0.03349459952309
             2.8253937    0.23472694665786
             0.6401217    0.81375731841339
 s    1 1.00
             0.1612778                   1

39 0
 s    6 1.00
             3047.5249  0.0018347001629433
             457.36951    0.01403730124668
             103.94869   0.068842606114048
             29.210155    0.23218442062076
              9.286663    0.46794134155879
              3.163927    0.36231203217765
 s    3 1.00
             7.8682724   -0.11933240861517
             1.8812885   -0.16085421161283
             0.5442493     1.1434564825515
 s    1 1.00
             0.1687144                   1
 p    3 1.00
             7.8682724   0.068999095584993
             1.8812885    0.31642397975315
             0.5442493    0.74430825237435
 p    1 1.00
             0.1687144                   1
 d    1 1.00
                   0.8                   1

40 0
 s    6 1.00
             3047.5249  0.0018347001629433
             457.36951    0.01403730124668
             103.94869   0.068842606114048
             29.210155    0.23218442062076
              9.286663    0.46794134155879
              3.163927    0.36231203217765
 s    3 1.00
             7.8682724   -0.11933240861517
             1.8812885   -0.16085421161283
             0.5442493     1.1434564825515
 s    1 1.00
             0.1687144                   1
 p    3 1.00
             7.8682724   0.068999095584993
             1.8812885    0.31642397975315
             0.5442493    0.74430825237435
 p    1 1.00
             0.1687144                   1
 d    1 1.00
                   0.8                   1

41 0
 s    3 1.00
             18.731137    0.03349459952309
             2.8253937    0.23472694665786
             0.6401217    0.81375731841339
 s    1 1.00
             0.1612778                   1

42 0
 s    6 1.00
             5484.6717   0.001831099805527
             825.23495   0.013950098518422
             188.04696    0.06844509273075
               52.9645    0.23271427528445
              16.89757    0.47019295006289
             5.7996353    0.35852086192309
 s    3 1.00
             15.539616   -0.11077750382508
             3.5999336   -0.14802630511126
             1.0137618     1.1307670390447
 s    1 1.00
             0.2700058                   1
 p    3 1.00
             15.539616   0.070874299543311
             3.5999336    0.33975279781076
             1.0137618    0.72715859531445
 p    1 1.00
             0.2700058                   1
 d    1 1.00
                   0.8                   1

43 0
 s    3 1.00
             18.731137    0.03349459952309
             2.8253937    0.23472694665786
             0.6401217    0.81375731841339
 s    1 1.00
             0.1612778                   1

[5d]
[7f]
[9g]

[MO]
 Sym= A
 Ene=               0
 Spin= Alpha
 Occup=    1.00000
   1    -0.00049508767132921
   2    -7.9854656666381e-05
   3    -0.00083497441703811
   4    -6.0817560484693e-05
   5    -8.6425538874216e-05
   6    0.00011136174369814
   7    0.00098972277505009
   8    0.0007237091689134
   9    -0.0012097971625365
  10    -5.9744474427854e-05
  11    9.2687358156613e-05
  12    2.3174555420538e-05
  13    2.2652690368277e-05
  14    -1.1771698969208e-05
  15    -8.8905015800001e-05
  16    -0.00077600417277095
  17    0.00020179509821779
  18    -0.00036212092764623
  19    0.0011965035574944
  20    -0.00017282656498802
  21    -2.0174151261237e-05
  22    0.0001063657218054
  23    -1.2606762955345e-05
  24    0.00010092171382251
  25    -0.00081372122990104
  26    7.9920051085448e-05
  27    7.0456062094606e-05
  28    -0.00010901135419959
  29    5.8105137722433e-05
  30    -5.5591877132299e-05
  31    -4.6276970172591e-05
  32    2.6403871206746e-05
  33    0.0093844385612364
  34    -0.0013084435534818
  35    0.0076010772292987
  36    -0.0013748602960648
  37    1.4935487781783e-05
  38    0.00014248185412833
  39    0.0041395758120112
  40    0.00062751375915467
  41    -0.0020506206604346
  42    0.0007490371593971
  43    4.0943105862285e-05
  44    2.1599794358275e-06
  45    -0.0013137381416423
  46    9.879400500495e-05
  47    -0.00045965809886754
  48    -0.00056995288573902
  49      0.99482939598231
  50     0.038526539247107
  51    -0.030920726108958
  52    -0.00017566810608305
  53    0.00027737866647826
  54    -0.00075272842148558
  55    0.0017968215565203
  56    -0.0012056800827651
  57    0.0028655077195635
  58    0.00014113782934712
  59    -0.00072818768532182
  60    -0.00035401449551663
  61    0.00062332183942642
  62    0.00022549003190254
  63    -0.0013327745980138
  64    0.0045008555096779
  65    -7.6886612084308e-07
  66    -1.835047123642e-08
  67    -9.4155572555777e-08
  68    -2.0199467374239e-06
  69    5.1418528948745e-06
  70    1.0780719072616e-06
  71    -1.7117937536904e-06
  72    8.6536063963747e-07
  73    4.4742336810608e-06
  74    5.9031118684076e-06
  75    1.3378829133903e-07
  76    -1.1054103753045e-07
  77    -3.0621413543211e-07
  78    3.4224162397696e-07
  79    2.7675500233855e-07
  80    -1.757552829458e-07
  81     7.46532158547e-07
  82    2.0547207162339e-06
  83    1.775806635153e-07
  84    -6.1950389046743e-08
  85    -4.973610695352e-05
  86    3.1065805882125e-06
  87    4.5812267437577e-08
  88    3.496559189611e-06
  89    1.4783228047202e-05
  90    -2.2285341444784e-05
  91    9.3426511277883e-06
  92    7.2371767789828e-07
  93    -1.5350450496814e-06
  94    1.9537630590143e-06
  95    -7.6793424160876e-08
  96    -4.2372453810642e-07
  97    3.229174056157e-06
  98    4.0429735483175e-06
  99    -1.6612828950737e-07
 100    -5.6639871457186e-06
 101    -6.7288655256253e-07
 102    -3.9483599184598e-06
 103    0.00011404231828155
 104    1.8600679788714e-07
 105    -3.7351324244254e-06
 106    -4.0392506820112e-06
 107    -0.00011335267965305
 108    9.6102756333207e-05
 109    0.00010510312975089
 110    -1.9068271476085e-06
 111    -6.8083577404521e-07
 112    1.8555359421051e-07
 113    3.2316519842243e-07
 114    -3.1765264800678e-06
 115    -1.2326658300572e-06
 116    -9.9479867699136e-06
 117    0.00011545564332167
 118    -3.1537030894801e-06
 119    3.5438754762124e-06
 120    6.2257265097675e-07
 121    -2.1687171168596e-05
 122    5.6487767661472e-06
 123    4.1152415871502e-05
 124    2.0713681297276e-07
 125    -2.0276677932483e-06
 126    -5.0898645033353e-07
 127    5.1881145626679e-07
 128    -1.7418307528118e-06
 129    -3.0183997575815e-06
 130    -2.4248293088432e-05
 131    0.00018999396933202
 132    5.2112415141582e-06
 133    1.5135632682719e-06
 134    7.1256319120596e-06
 135    -0.00017968300300202
 136    1.0110299683682e-05
 137    -0.00032623322087823
 138    9.6195185897224e-06
 139    6.8204639750458e-06
 140    2.0071976944869e-06
 141    9.7194060900667e-07
 142    1.788672740679e-06
 143    -1.7531550406304e-06
 144    -1.956777063935e-05
 145    5.8217638567481e-05
 146    -2.8433123917538e-07
 147    4.0541289970538e-07
 148    6.7666429549843e-06
 149    4.0530802158701e-05
 150    1.9238994771374e-06
 151    -2.9570435353603e-05
 152    -4.3172302138957e-06
 153    -1.6466599998231e-06
 154    -1.7109355411087e-06
 155    2.6284043324485e-06
 156    -3.59325578158e-06
 157    7.2787159873463e-07
 158    4.9282941541441e-06
 159    -1.9563874071753e-05
 160    1.9392586522325e-06
 161    8.9054283724515e-07
 162    -8.5993517598203e-07
 163    -2.7252810727928e-05
 164    9.0502505176679e-06
 165    4.717214907726e-06
 166    2.6512523497453e-06
 167    -9.498959867519e-07
 168    6.2319815277561e-08
 169    -1.8407356247127e-07
 170    1.7220898385854e-06
 171    1.8484974134082e-07
 172    -1.1042952814348e-06
 173    4.6108602822042e-07
 174    -1.6593640338896e-06
 175    -7.512032966748e-07
 176    3.4760977057838e-06
 177    1.3469244621243e-06
 178    9.1253849153293e-06
 179    -1.2118163190829e-06
 180    9.5697440597725e-08
 181    1.904727972145e-06
 182    6.5429236970212e-07
 183    -9.9813991673363e-07
 184    9.5427265718678e-07
 185    -1.5941845344117e-06
 186    -1.4855019046271e-05
 187    2.8905422906229e-05
 188    -1.2865126464196e-06
 189    5.6749763489129e-07
 190    3.7833281135886e-06
 191    5.2901971865561e-06
 192    -7.4246736656685e-06
 193    -2.8320331316971e-05
 194    1.2349429201628e-06
 195    5.8727915997746e-07
 196    1.7795313468746e-06
 197    1.037776365712e-07
 198    -1.9360631410482e-07
 199    -3.4742983404442e-06
 200    -1.2819069284159e-06
 201    -6.2406977680414e-07
 202    1.2201918116877e-05
 203    -6.0068118739408e-06
 204    -1.015779326642e-05
 205    3.5940921740116e-06
 206    -1.909224986915e-05
 207    3.1661660155062e-07
 208    6.3434989315378e-06
 209    4.5990553952302e-06
 210    -1.1707524659986e-05
 211    3.550065157441e-06
 212    8.9781169720477e-06
 213    -5.0175723935469e-07
 214    -8.5919916819648e-06
 215    -1.9897381266764e-06
 216    6.6836447106351e-06
 217    8.0361474155714e-07
 218    4.8062722792064e-07
 219    1.6481747316874e-06
 220    3.0875872229812e-06
 221    -4.0256302404406e-06
 222    -3.9043873880771e-05
 223    5.3380814929504e-05
 224    3.6688822364776e-06
 225    -3.724481856734e-06
 226    2.0044527420684e-05
 227    8.6025348811838e-05
 228    0.00011550948214689
 229    -0.00051097925108679
 230    -1.1726457955862e-06
 231    -2.1487804797173e-05
 232    -8.7068867106197e-06
 233    1.0837565138483e-05
 234    8.9597025883778e-06
 235    3.2233538931088e-06
 236    1.4033743155531e-05
 237    -0.00037094285795862
 238    2.3617264302834e-06
 239    -6.7196777157849e-07
 240    1.899666848341e-05
 241    -6.3910955358618e-05
 242    5.1166650376139e-05
 243    -0.00022911937184438
 244    -1.3498621143752e-05
 245    2.4423662082942e-05
 246    5.9168306983481e-06
 247    6.3375856995541e-06
 248    -6.2854043683487e-06
 249    -2.2726927714888e-05
 250    5.2840523589985e-05
 251    -1.7284062322106e-05
 252    -0.00014242608945238
 253    0.0017208015381623
 254    -6.8428372469846e-06
 255    1.3776614971312e-05
 256    -9.2451209998147e-06
 257    0.00060499977452672
 258    0.0002606358605803
 259    -0.0010448568597465
 260    4.5041128838605e-05
 261    -5.5392817582564e-05
 262    -2.6993566594363e-05
 263    2.5393270329672e-05
 264    1.5746177004322e-05
 265    -2.1694700612923e-05
 266     0.000192265066227
 267    -1.5823893298264e-05
 268    7.6493145523013e-05
 269    0.00012460351106386
 270    -0.0023378134983751
 271    0.0094933504141944
 272    0.00096765108452674
 273    0.00054004570408591
 274    -0.001500163481309
 275    -0.003378471884797
 276    -0.00069085881249874
 277    0.0021853744060363
 278    -0.00080266608435311
 279    0.0010723038289772
 280    0.00068054865201337
 281    -0.00022815455414084