[Molden Format]
made by pyscf v[2.0.1]
[Atoms] (AU)
C   1   6     0.69100024066471     0.64692934207205    -3.48223131169301
H   2   1     2.68052439830868     1.13355088658700    -3.25784032593313
C   3   6    -0.36286361513219     0.85440132524594    -5.97030179418974
H   4   1    -2.35448549047279     0.36322488579172    -6.17995817793143
C   5   6     0.93697958957450     1.61209284601821    -8.05828437677121
H   6   1     1.52220939200985     3.58023657898303    -8.21595213017833
C   7   6     1.59282573286669    -0.05175011382745   -10.09734693546315
H   8   1     0.99474836942587    -2.01839690080961    -9.91207388765078
H   9   1     1.55630230933075    -1.92953025305990    12.99630010416247
C   10   6     0.75233899775814    -2.21270439606481    11.10705728102219
H   11   1    -0.43433408177274    -3.90944857546550    11.22216085340412
C   12   6     2.86362581178706    -2.63237380607947     9.17926416456045
H   13   1     4.39038949912609    -1.24955421540245     9.49899813497433
H   14   1     3.74629220191363    -4.48798724300892     9.47414880959024
C   15   6     2.02478325613682    -2.42177285709634     6.44560829588644
C   16   6     3.88048732735477    -3.58795445234514     4.61402886975252
C   17   6    -0.18412382258602    -1.30464291234259     5.76021113872346
C   18   6    -2.10044360464350    -0.26837831858460     7.71610340967100
C   19   6    -3.08956938670431     2.35282328359417     6.88693925039594
C   20   6    -4.37372924086464    -2.09766595989678     7.93610724222001
C   21   6    -0.83850430601230     0.06372213486173    10.33002307638377
H   22   1     0.38411922151109     1.74281358582432    10.27380136542181
H   23   1    -2.30980003007874     0.45460143924521    11.73986301809809
H   24   1     4.58527064644668    -5.38706904487420     5.36778158031719
H   25   1     5.54944938085014    -2.37631462192748     4.35398898413318
H   26   1     3.06633019150423    -3.94118377050688     2.75255466040884
H   27   1    -4.17727778763735     2.26573369139522     5.12914900961283
H   28   1    -1.52662344944051     3.68001877445626     6.59540397144508
H   29   1    -4.32916174397830     3.13643051467482     8.35225460090378
H   30   1    -5.32329548508442    -2.36691813602939     6.11583672749896
H   31   1    -5.77989366602257    -1.33896741843465     9.25748940450990
H   32   1    -3.79310905208926    -3.96389819310853     8.61386170102686
C   33   6    -1.01100794811226    -1.06331657314144     3.11929490449947
C   34   6     0.37686231036534    -0.33275864505552     1.09165013605873
H   35   1    -3.01671213906703    -1.40297922279997     2.77827895090944
C   36   6    -0.64382707979370    -0.11591880174385    -1.42063131251064
H   37   1     2.35569259782137     0.17174499283897     1.33641070251401
H   38   1    -2.63317482980319    -0.60229203511219    -1.66119700387645
C   39   6     2.88089126504443     0.61821658123040   -12.21129238571255
C   40   6     3.45664863859100    -1.22033421200677   -14.18493293343049
H   41   1     3.53070761900678     2.54536442784122   -12.51396089296279
O   42   8     4.60321296142939    -0.74877588551315   -16.13014426558594
H   43   1     2.75622344406002    -3.16930929543288   -13.79624335354022
[GTO]
1 0
 s    6 1.00
             3047.5249  0.0018347001629433
             457.36951    0.01403730124668
             103.94869   0.068842606114048
             29.210155    0.23218442062076
              9.286663    0.46794134155879
              3.163927    0.36231203217765
 s    3 1.00
             7.8682724   -0.11933240861517
             1.8812885   -0.16085421161283
             0.5442493     1.1434564825515
 s    1 1.00
             0.1687144                   1
 p    3 1.00
             7.8682724   0.068999095584993
             1.8812885    0.31642397975315
             0.5442493    0.74430825237435
 p    1 1.00
             0.1687144                   1
 d    1 1.00
                   0.8                   1

2 0
 s    3 1.00
             18.731137    0.03349459952309
             2.8253937    0.23472694665786
             0.6401217    0.81375731841339
 s    1 1.00
             0.1612778                   1

3 0
 s    6 1.00
             3047.5249  0.0018347001629433
             457.36951    0.01403730124668
             103.94869   0.068842606114048
             29.210155    0.23218442062076
              9.286663    0.46794134155879
              3.163927    0.36231203217765
 s    3 1.00
             7.8682724   -0.11933240861517
             1.8812885   -0.16085421161283
             0.5442493     1.1434564825515
 s    1 1.00
             0.1687144                   1
 p    3 1.00
             7.8682724   0.068999095584993
             1.8812885    0.31642397975315
             0.5442493    0.74430825237435
 p    1 1.00
             0.1687144                   1
 d    1 1.00
                   0.8                   1

4 0
 s    3 1.00
             18.731137    0.03349459952309
             2.8253937    0.23472694665786
             0.6401217    0.81375731841339
 s    1 1.00
             0.1612778                   1

5 0
 s    6 1.00
             3047.5249  0.0018347001629433
             457.36951    0.01403730124668
             103.94869   0.068842606114048
             29.210155    0.23218442062076
              9.286663    0.46794134155879
              3.163927    0.36231203217765
 s    3 1.00
             7.8682724   -0.11933240861517
             1.8812885   -0.16085421161283
             0.5442493     1.1434564825515
 s    1 1.00
             0.1687144                   1
 p    3 1.00
             7.8682724   0.068999095584993
             1.8812885    0.31642397975315
             0.5442493    0.74430825237435
 p    1 1.00
             0.1687144                   1
 d    1 1.00
                   0.8                   1

6 0
 s    3 1.00
             18.731137    0.03349459952309
             2.8253937    0.23472694665786
             0.6401217    0.81375731841339
 s    1 1.00
             0.1612778                   1

7 0
 s    6 1.00
             3047.5249  0.0018347001629433
             457.36951    0.01403730124668
             103.94869   0.068842606114048
             29.210155    0.23218442062076
              9.286663    0.46794134155879
              3.163927    0.36231203217765
 s    3 1.00
             7.8682724   -0.11933240861517
             1.8812885   -0.16085421161283
             0.5442493     1.1434564825515
 s    1 1.00
             0.1687144                   1
 p    3 1.00
             7.8682724   0.068999095584993
             1.8812885    0.31642397975315
             0.5442493    0.74430825237435
 p    1 1.00
             0.1687144                   1
 d    1 1.00
                   0.8                   1

8 0
 s    3 1.00
             18.731137    0.03349459952309
             2.8253937    0.23472694665786
             0.6401217    0.81375731841339
 s    1 1.00
             0.1612778                   1

9 0
 s    3 1.00
             18.731137    0.03349459952309
             2.8253937    0.23472694665786
             0.6401217    0.81375731841339
 s    1 1.00
             0.1612778                   1

10 0
 s    6 1.00
             3047.5249  0.0018347001629433
             457.36951    0.01403730124668
             103.94869   0.068842606114048
             29.210155    0.23218442062076
              9.286663    0.46794134155879
              3.163927    0.36231203217765
 s    3 1.00
             7.8682724   -0.11933240861517
             1.8812885   -0.16085421161283
             0.5442493     1.1434564825515
 s    1 1.00
             0.1687144                   1
 p    3 1.00
             7.8682724   0.068999095584993
             1.8812885    0.31642397975315
             0.5442493    0.74430825237435
 p    1 1.00
             0.1687144                   1
 d    1 1.00
                   0.8                   1

11 0
 s    3 1.00
             18.731137    0.03349459952309
             2.8253937    0.23472694665786
             0.6401217    0.81375731841339
 s    1 1.00
             0.1612778                   1

12 0
 s    6 1.00
             3047.5249  0.0018347001629433
             457.36951    0.01403730124668
             103.94869   0.068842606114048
             29.210155    0.23218442062076
              9.286663    0.46794134155879
              3.163927    0.36231203217765
 s    3 1.00
             7.8682724   -0.11933240861517
             1.8812885   -0.16085421161283
             0.5442493     1.1434564825515
 s    1 1.00
             0.1687144                   1
 p    3 1.00
             7.8682724   0.068999095584993
             1.8812885    0.31642397975315
             0.5442493    0.74430825237435
 p    1 1.00
             0.1687144                   1
 d    1 1.00
                   0.8                   1

13 0
 s    3 1.00
             18.731137    0.03349459952309
             2.8253937    0.23472694665786
             0.6401217    0.81375731841339
 s    1 1.00
             0.1612778                   1

14 0
 s    3 1.00
             18.731137    0.03349459952309
             2.8253937    0.23472694665786
             0.6401217    0.81375731841339
 s    1 1.00
             0.1612778                   1

15 0
 s    6 1.00
             3047.5249  0.0018347001629433
             457.36951    0.01403730124668
             103.94869   0.068842606114048
             29.210155    0.23218442062076
              9.286663    0.46794134155879
              3.163927    0.36231203217765
 s    3 1.00
             7.8682724   -0.11933240861517
             1.8812885   -0.16085421161283
             0.5442493     1.1434564825515
 s    1 1.00
             0.1687144                   1
 p    3 1.00
             7.8682724   0.068999095584993
             1.8812885    0.31642397975315
             0.5442493    0.74430825237435
 p    1 1.00
             0.1687144                   1
 d    1 1.00
                   0.8                   1

16 0
 s    6 1.00
             3047.5249  0.0018347001629433
             457.36951    0.01403730124668
             103.94869   0.068842606114048
             29.210155    0.23218442062076
              9.286663    0.46794134155879
              3.163927    0.36231203217765
 s    3 1.00
             7.8682724   -0.11933240861517
             1.8812885   -0.16085421161283
             0.5442493     1.1434564825515
 s    1 1.00
             0.1687144                   1
 p    3 1.00
             7.8682724   0.068999095584993
             1.8812885    0.31642397975315
             0.5442493    0.74430825237435
 p    1 1.00
             0.1687144                   1
 d    1 1.00
                   0.8                   1

17 0
 s    6 1.00
             3047.5249  0.0018347001629433
             457.36951    0.01403730124668
             103.94869   0.068842606114048
             29.210155    0.23218442062076
              9.286663    0.46794134155879
              3.163927    0.36231203217765
 s    3 1.00
             7.8682724   -0.11933240861517
             1.8812885   -0.16085421161283
             0.5442493     1.1434564825515
 s    1 1.00
             0.1687144                   1
 p    3 1.00
             7.8682724   0.068999095584993
             1.8812885    0.31642397975315
             0.5442493    0.74430825237435
 p    1 1.00
             0.1687144                   1
 d    1 1.00
                   0.8                   1

18 0
 s    6 1.00
             3047.5249  0.0018347001629433
             457.36951    0.01403730124668
             103.94869   0.068842606114048
             29.210155    0.23218442062076
              9.286663    0.46794134155879
              3.163927    0.36231203217765
 s    3 1.00
             7.8682724   -0.11933240861517
             1.8812885   -0.16085421161283
             0.5442493     1.1434564825515
 s    1 1.00
             0.1687144                   1
 p    3 1.00
             7.8682724   0.068999095584993
             1.8812885    0.31642397975315
             0.5442493    0.74430825237435
 p    1 1.00
             0.1687144                   1
 d    1 1.00
                   0.8                   1

19 0
 s    6 1.00
             3047.5249  0.0018347001629433
             457.36951    0.01403730124668
             103.94869   0.068842606114048
             29.210155    0.23218442062076
              9.286663    0.46794134155879
              3.163927    0.36231203217765
 s    3 1.00
             7.8682724   -0.11933240861517
             1.8812885   -0.16085421161283
             0.5442493     1.1434564825515
 s    1 1.00
             0.1687144                   1
 p    3 1.00
             7.8682724   0.068999095584993
             1.8812885    0.31642397975315
             0.5442493    0.74430825237435
 p    1 1.00
             0.1687144                   1
 d    1 1.00
                   0.8                   1

20 0
 s    6 1.00
             3047.5249  0.0018347001629433
             457.36951    0.01403730124668
             103.94869   0.068842606114048
             29.210155    0.23218442062076
              9.286663    0.46794134155879
              3.163927    0.36231203217765
 s    3 1.00
             7.8682724   -0.11933240861517
             1.8812885   -0.16085421161283
             0.5442493     1.1434564825515
 s    1 1.00
             0.1687144                   1
 p    3 1.00
             7.8682724   0.068999095584993
             1.8812885    0.31642397975315
             0.5442493    0.74430825237435
 p    1 1.00
             0.1687144                   1
 d    1 1.00
                   0.8                   1

21 0
 s    6 1.00
             3047.5249  0.0018347001629433
             457.36951    0.01403730124668
             103.94869   0.068842606114048
             29.210155    0.23218442062076
              9.286663    0.46794134155879
              3.163927    0.36231203217765
 s    3 1.00
             7.8682724   -0.11933240861517
             1.8812885   -0.16085421161283
             0.5442493     1.1434564825515
 s    1 1.00
             0.1687144                   1
 p    3 1.00
             7.8682724   0.068999095584993
             1.8812885    0.31642397975315
             0.5442493    0.74430825237435
 p    1 1.00
             0.1687144                   1
 d    1 1.00
                   0.8                   1

22 0
 s    3 1.00
             18.731137    0.03349459952309
             2.8253937    0.23472694665786
             0.6401217    0.81375731841339
 s    1 1.00
             0.1612778                   1

23 0
 s    3 1.00
             18.731137    0.03349459952309
             2.8253937    0.23472694665786
             0.6401217    0.81375731841339
 s    1 1.00
             0.1612778                   1

24 0
 s    3 1.00
             18.731137    0.03349459952309
             2.8253937    0.23472694665786
             0.6401217    0.81375731841339
 s    1 1.00
             0.1612778                   1

25 0
 s    3 1.00
             18.731137    0.03349459952309
             2.8253937    0.23472694665786
             0.6401217    0.81375731841339
 s    1 1.00
             0.1612778                   1

26 0
 s    3 1.00
             18.731137    0.03349459952309
             2.8253937    0.23472694665786
             0.6401217    0.81375731841339
 s    1 1.00
             0.1612778                   1

27 0
 s    3 1.00
             18.731137    0.03349459952309
             2.8253937    0.23472694665786
             0.6401217    0.81375731841339
 s    1 1.00
             0.1612778                   1

28 0
 s    3 1.00
             18.731137    0.03349459952309
             2.8253937    0.23472694665786
             0.6401217    0.81375731841339
 s    1 1.00
             0.1612778                   1

29 0
 s    3 1.00
             18.731137    0.03349459952309
             2.8253937    0.23472694665786
             0.6401217    0.81375731841339
 s    1 1.00
             0.1612778                   1

30 0
 s    3 1.00
             18.731137    0.03349459952309
             2.8253937    0.23472694665786
             0.6401217    0.81375731841339
 s    1 1.00
             0.1612778                   1

31 0
 s    3 1.00
             18.731137    0.03349459952309
             2.8253937    0.23472694665786
             0.6401217    0.81375731841339
 s    1 1.00
             0.1612778                   1

32 0
 s    3 1.00
             18.731137    0.03349459952309
             2.8253937    0.23472694665786
             0.6401217    0.81375731841339
 s    1 1.00
             0.1612778                   1

33 0
 s    6 1.00
             3047.5249  0.0018347001629433
             457.36951    0.01403730124668
             103.94869   0.068842606114048
             29.210155    0.23218442062076
              9.286663    0.46794134155879
              3.163927    0.36231203217765
 s    3 1.00
             7.8682724   -0.11933240861517
             1.8812885   -0.16085421161283
             0.5442493     1.1434564825515
 s    1 1.00
             0.1687144                   1
 p    3 1.00
             7.8682724   0.068999095584993
             1.8812885    0.31642397975315
             0.5442493    0.74430825237435
 p    1 1.00
             0.1687144                   1
 d    1 1.00
                   0.8                   1

34 0
 s    6 1.00
             3047.5249  0.0018347001629433
             457.36951    0.01403730124668
             103.94869   0.068842606114048
             29.210155    0.23218442062076
              9.286663    0.46794134155879
              3.163927    0.36231203217765
 s    3 1.00
             7.8682724   -0.11933240861517
             1.8812885   -0.16085421161283
             0.5442493     1.1434564825515
 s    1 1.00
             0.1687144                   1
 p    3 1.00
             7.8682724   0.068999095584993
             1.8812885    0.31642397975315
             0.5442493    0.74430825237435
 p    1 1.00
             0.1687144                   1
 d    1 1.00
                   0.8                   1

35 0
 s    3 1.00
             18.731137    0.03349459952309
             2.8253937    0.23472694665786
             0.6401217    0.81375731841339
 s    1 1.00
             0.1612778                   1

36 0
 s    6 1.00
             3047.5249  0.0018347001629433
             457.36951    0.01403730124668
             103.94869   0.068842606114048
             29.210155    0.23218442062076
              9.286663    0.46794134155879
              3.163927    0.36231203217765
 s    3 1.00
             7.8682724   -0.11933240861517
             1.8812885   -0.16085421161283
             0.5442493     1.1434564825515
 s    1 1.00
             0.1687144                   1
 p    3 1.00
             7.8682724   0.068999095584993
             1.8812885    0.31642397975315
             0.5442493    0.74430825237435
 p    1 1.00
             0.1687144                   1
 d    1 1.00
                   0.8                   1

37 0
 s    3 1.00
             18.731137    0.03349459952309
             2.8253937    0.23472694665786
             0.6401217    0.81375731841339
 s    1 1.00
             0.1612778                   1

38 0
 s    3 1.00
             18.731137    0.03349459952309
             2.8253937    0.23472694665786
             0.6401217    0.81375731841339
 s    1 1.00
             0.1612778                   1

39 0
 s    6 1.00
             3047.5249  0.0018347001629433
             457.36951    0.01403730124668
             103.94869   0.068842606114048
             29.210155    0.23218442062076
              9.286663    0.46794134155879
              3.163927    0.36231203217765
 s    3 1.00
             7.8682724   -0.11933240861517
             1.8812885   -0.16085421161283
             0.5442493     1.1434564825515
 s    1 1.00
             0.1687144                   1
 p    3 1.00
             7.8682724   0.068999095584993
             1.8812885    0.31642397975315
             0.5442493    0.74430825237435
 p    1 1.00
             0.1687144                   1
 d    1 1.00
                   0.8                   1

40 0
 s    6 1.00
             3047.5249  0.0018347001629433
             457.36951    0.01403730124668
             103.94869   0.068842606114048
             29.210155    0.23218442062076
              9.286663    0.46794134155879
              3.163927    0.36231203217765
 s    3 1.00
             7.8682724   -0.11933240861517
             1.8812885   -0.16085421161283
             0.5442493     1.1434564825515
 s    1 1.00
             0.1687144                   1
 p    3 1.00
             7.8682724   0.068999095584993
             1.8812885    0.31642397975315
             0.5442493    0.74430825237435
 p    1 1.00
             0.1687144                   1
 d    1 1.00
                   0.8                   1

41 0
 s    3 1.00
             18.731137    0.03349459952309
             2.8253937    0.23472694665786
             0.6401217    0.81375731841339
 s    1 1.00
             0.1612778                   1

42 0
 s    6 1.00
             5484.6717   0.001831099805527
             825.23495   0.013950098518422
             188.04696    0.06844509273075
               52.9645    0.23271427528445
              16.89757    0.47019295006289
             5.7996353    0.35852086192309
 s    3 1.00
             15.539616   -0.11077750382508
             3.5999336   -0.14802630511126
             1.0137618     1.1307670390447
 s    1 1.00
             0.2700058                   1
 p    3 1.00
             15.539616   0.070874299543311
             3.5999336    0.33975279781076
             1.0137618    0.72715859531445
 p    1 1.00
             0.2700058                   1
 d    1 1.00
                   0.8                   1

43 0
 s    3 1.00
             18.731137    0.03349459952309
             2.8253937    0.23472694665786
             0.6401217    0.81375731841339
 s    1 1.00
             0.1612778                   1

[5d]
[7f]
[9g]

[MO]
 Sym= A
 Ene=               0
 Spin= Alpha
 Occup=    1.00000
   1    0.0025364309812111
   2      0.29529195615053
   3      0.19720357683294
   4    -0.075819229469645
   5    -0.049442444861932
   6      0.14546251133525
   7     0.011419544741112
   8    -0.0069346791546676
   9     0.050129985032208
  10    0.0038537265433569
  11    -0.0050424816587764
  12    -0.0046073356243387
  13    0.0073060173425358
  14    0.0058266290705495
  15     0.065041976089139
  16    -0.0037215808163223
  17    -0.0084605614014611
  18     0.045041127047459
  19     0.021272170983409
  20    -0.0064676769446618
  21    -0.012279539986315
  22     0.051344470960731
  23     -0.01169169053792
  24    -0.0078199675854485
  25     0.028107526420398
  26    0.0062987913516809
  27      0.00226317384917
  28    -0.0019452511024553
  29    0.00086507788953324
  30    0.00022565086295356
  31      0.01243593396443
  32    -0.00014458039481044
  33    0.0005507667877116
  34    0.00097166482289849
  35     0.022326268659459
  36    0.0023204155314139
  37     0.001019342206733
  38    -0.0086331820156828
  39    -0.0065650628657574
  40    -0.0070447115065268
  41    -0.0011519181152191
  42    0.00036423958597553
  43    -0.0008668371510305
  44    0.00048500897691321
  45    -8.0414478347042e-05
  46    5.5592673327971e-05
  47     0.001876049348064
  48    0.0039291872807483
  49    -0.00021151625912449
  50     0.032921486188882
  51     0.015633868643871
  52    0.0093725651205802
  53    0.0026637779447971
  54    -0.016660678900889
  55    0.0044443112595422
  56    -0.0045588382305261
  57    -0.0082734129505961
  58    0.00013831317874036
  59    -0.00081399435963822
  60    -0.00043437365905856
  61    -0.00048126704560584
  62    0.00067447111293847
  63    0.0077019848618289
  64    0.00071194478896551
  65    2.8608704633571e-05
  66    -2.2169560080773e-05
  67    1.4471404046779e-05
  68    4.1217906659484e-05
  69    -0.00044241170914886
  70    -3.5194194141241e-06
  71    -2.2612722491185e-05
  72    4.7376311291219e-09
  73    0.00027360053225743
  74    0.0003584736924019
  75    0.00028863452827121
  76    2.8770672522775e-05
  77    1.0760011704117e-05
  78    -9.6633739763021e-06
  79    -9.2260970200017e-06
  80    9.0203749471227e-06
  81    6.272343274093e-06
  82    0.00033151263551065
  83    -2.7288483821826e-05
  84    0.00014571227453344
  85    0.0013138186976632
  86    -0.00019282340146084
  87    7.3581082220899e-05
  88    -0.00030431650501685
  89    -0.00047472607468732
  90    -0.00042018105043506
  91    -0.00055484954495195
  92    -4.7519186903011e-06
  93    2.4725081207554e-05
  94    -1.562974063968e-05
  95    -5.6055820984061e-06
  96    -1.1728373976266e-05
  97    -7.6370548055692e-05
  98    4.2682646970532e-05
  99    -4.564338512301e-05
 100    -0.00010917250952018
 101    9.4497250474164e-05
 102    -7.5089565685146e-05
 103    -0.0013762099987252
 104    7.4814234518132e-05
 105    0.00024523296668738
 106    0.00040943865534852
 107    0.0027688337152041
 108    -0.00066161873955135
 109    -0.0032458472055994
 110    3.7557876184174e-05
 111    8.5255037595865e-05
 112    -2.6338738818332e-05
 113    -6.2755869262288e-05
 114    2.7732403884782e-05
 115    8.2907800744868e-05
 116    -0.00022191705555753
 117    -0.0021776439621559
 118    0.00011144442659321
 119    -0.00038514939215414
 120    6.5626958411544e-05
 121    0.00043460559425792
 122    -0.00013277422016104
 123    -0.001534163646353
 124    1.4411212375024e-05
 125    5.1064612642633e-05
 126    -5.1034488869846e-05
 127    -7.7299825127004e-06
 128    1.0605694879809e-05
 129    2.7869633907155e-05
 130    0.00065118796377901
 131    -0.012122038415393
 132    -0.00016106042965045
 133    -6.8753526896328e-05
 134    -0.00055673142259472
 135    0.0017844413954834
 136    -0.0013355286430448
 137     0.012997039578608
 138    -0.00038887650012651
 139    7.8438791275302e-05
 140    0.00014934117764387
 141    6.3763456636478e-05
 142    9.3158999568898e-05
 143    4.7151961215488e-05
 144    -1.0157911980843e-05
 145    -0.0020772842225887
 146    0.00012193722948282
 147    0.00010281061066445
 148    0.00034008988806918
 149    -0.0027357090957414
 150     0.001714569375209
 151    -0.0022395925675272
 152    8.5377676015252e-05
 153    -3.3759609610334e-05
 154    -4.2589119792846e-05
 155    -5.5020793532097e-05
 156    5.3644452240454e-05
 157    1.2045353557287e-05
 158    0.00019758545880954
 159    -0.0016108610972412
 160    4.5629112731234e-05
 161    -6.8799188040182e-07
 162    -9.8720302250912e-05
 163    -8.4742389993045e-06
 164    0.0010154821286349
 165    0.00026333480234433
 166    2.2395325883976e-05
 167    2.4602212154719e-07
 168    1.2007960363055e-06
 169    5.4946512583494e-05
 170    -7.513601202083e-06
 171    1.2520522104751e-05
 172    -0.00024649046596305
 173    0.00035117711343775
 174    -1.6462240420009e-05
 175    1.0990365486427e-05
 176    0.00032219589538792
 177    0.00043100541452601
 178    -0.00077109197449364
 179    -8.7436146636625e-05
 180    3.9343835300161e-06
 181    5.3209197364565e-05
 182     1.93075197586e-05
 183    3.4427468684604e-05
 184    -8.1996855048713e-06
 185    -5.8104007068004e-06
 186    6.4265989305302e-06
 187    0.0017774452642292
 188    2.2387860797346e-05
 189    -4.9024458016919e-05
 190    -0.00022558319612686
 191    -0.00094270128312861
 192    -0.00047089733255921
 193    -0.00049745421208232
 194    2.5575827179747e-05
 195    3.5774590956205e-05
 196    2.8850465211167e-05
 197    -5.6650991936815e-06
 198    2.1198223474544e-05
 199    -1.9840334703482e-05
 200    0.00031835605747886
 201    -7.8848295176654e-05
 202    -0.00038203835016181
 203    0.00023808221570584
 204    0.00085630481241666
 205    -0.00022872273343128
 206    -0.00021090588642928
 207    0.00016354731372993
 208    -0.0008439595044327
 209    0.0001331093704898
 210    0.00021905240514912
 211    4.4948823616916e-05
 212    -9.6754018214017e-05
 213    -1.8491226875469e-05
 214    -0.00029197298591594
 215    -5.921624575144e-05
 216    -0.00066610587871103
 217    7.6281550990991e-05
 218    0.00048043543791188
 219    -8.8335848620463e-06
 220    -0.00049903491160664
 221    0.0011473879270659
 222    -0.0027841713616253
 223     0.025184653460966
 224    -0.0012763878232612
 225    -0.0016529797113777
 226    0.0027681345476276
 227     0.017730248196093
 228    0.0016141905379136
 229    0.0088609302637312
 230    0.00017239037744913
 231    -0.00016309864284105
 232    -0.00016947826207202
 233    0.00018616166685294
 234    0.0001770461303894
 235    -0.0080735871363199
 236     0.042098883499102
 237     0.019845276479635
 238    0.0068998430591509
 239     0.011479230271602
 240    -0.047521565923655
 241    0.0076064119761673
 242    0.0083622399101034
 243    -0.030886024922173
 244    0.0063387158607933
 245    0.0019474214299229
 246    -0.0019873086025176
 247    0.00089135710172573
 248    0.00020533692531257
 249    0.00087518564930705
 250    0.0087628910876831
 251    0.0012121428599298
 252      0.29314537414381
 253      0.18754930597605
 254     0.078126782500827
 255     0.050702715507338
 256     -0.14740084590077
 257    -0.012961526915278
 258    0.0069954636312851
 259    -0.047986628435058
 260    0.0036768968690515
 261    -0.0051665340593329
 262    -0.0042594137790432
 263    0.0074159965827215
 264    0.0053651038834855
 265     0.011561790864243
 266    0.0016496676371116
 267     0.063127300363557
 268    -0.0050513695159494
 269    0.0010825461535727
 270     0.033606839785582
 271     0.020686054377774
 272    -0.0094809946996057
 273    -0.0041188536999072
 274     0.014267105863418
 275    -0.0023025269929743
 276    0.0046863494153986
 277    0.0051940785315646
 278    0.00038090108459343
 279    -0.001031399758995
 280    -0.00042521656884182
 281    -0.00049405683903844
 282    0.0006650469807964
 283    -0.0013449307873243
 284    0.0063463548072024