[Molden Format]
made by pyscf v[2.0.1]
[Atoms] (AU)
C   1   6     0.69100024066471     0.64692934207205    -3.48223131169301
H   2   1     2.68052439830868     1.13355088658700    -3.25784032593313
C   3   6    -0.36286361513219     0.85440132524594    -5.97030179418974
H   4   1    -2.35448549047279     0.36322488579172    -6.17995817793143
C   5   6     0.93697958957450     1.61209284601821    -8.05828437677121
H   6   1     0.30646242799847     3.28538583431710    -9.07979378939352
C   7   6     3.12235401223615     0.31857752265429    -9.01077606594223
H   8   1     3.73232478675010    -1.35404880050347    -7.96675544506269
H   9   1     1.55630230933075    -1.92953025305990    12.99630010416247
C   10   6     0.75233899775814    -2.21270439606481    11.10705728102219
H   11   1    -0.43433408177274    -3.90944857546550    11.22216085340412
C   12   6     2.86362581178706    -2.63237380607947     9.17926416456045
H   13   1     4.39038949912609    -1.24955421540245     9.49899813497433
H   14   1     3.74629220191363    -4.48798724300892     9.47414880959024
C   15   6     2.02478325613682    -2.42177285709634     6.44560829588644
C   16   6     3.88048732735477    -3.58795445234514     4.61402886975252
C   17   6    -0.18412382258602    -1.30464291234259     5.76021113872346
C   18   6    -2.10044360464350    -0.26837831858460     7.71610340967100
C   19   6    -3.08956938670431     2.35282328359417     6.88693925039594
C   20   6    -4.37372924086464    -2.09766595989678     7.93610724222001
C   21   6    -0.83850430601230     0.06372213486173    10.33002307638377
H   22   1     0.38411922151109     1.74281358582432    10.27380136542181
H   23   1    -2.30980003007874     0.45460143924521    11.73986301809809
H   24   1     4.58527064644668    -5.38706904487420     5.36778158031719
H   25   1     5.54944938085014    -2.37631462192748     4.35398898413318
H   26   1     3.06633019150423    -3.94118377050688     2.75255466040884
H   27   1    -4.17727778763735     2.26573369139522     5.12914900961283
H   28   1    -1.52662344944051     3.68001877445626     6.59540397144508
H   29   1    -4.32916174397830     3.13643051467482     8.35225460090378
H   30   1    -5.32329548508442    -2.36691813602939     6.11583672749896
H   31   1    -5.77989366602257    -1.33896741843465     9.25748940450990
H   32   1    -3.79310905208926    -3.96389819310853     8.61386170102686
C   33   6    -1.01100794811226    -1.06331657314144     3.11929490449947
C   34   6     0.37686231036534    -0.33275864505552     1.09165013605873
H   35   1    -3.01671213906703    -1.40297922279997     2.77827895090944
C   36   6    -0.64382707979370    -0.11591880174385    -1.42063131251064
H   37   1     2.35569259782137     0.17174499283897     1.33641070251401
H   38   1    -2.63317482980319    -0.60229203511219    -1.66119700387645
C   39   6     4.47307059082302     1.00138906809445   -11.08105785168909
C   40   6     6.67463726557562    -0.44413475967984   -11.89995199897600
H   41   1     3.96718229655089     2.64690253849906   -12.20539356366280
O   42   8     7.97152342098443     0.06042731610533   -13.73960618931333
H   43   1     7.12379765531873    -2.11255344586070   -10.69379572801653
[GTO]
1 0
 s    6 1.00
             3047.5249  0.0018347001629433
             457.36951    0.01403730124668
             103.94869   0.068842606114048
             29.210155    0.23218442062076
              9.286663    0.46794134155879
              3.163927    0.36231203217765
 s    3 1.00
             7.8682724   -0.11933240861517
             1.8812885   -0.16085421161283
             0.5442493     1.1434564825515
 s    1 1.00
             0.1687144                   1
 p    3 1.00
             7.8682724   0.068999095584993
             1.8812885    0.31642397975315
             0.5442493    0.74430825237435
 p    1 1.00
             0.1687144                   1
 d    1 1.00
                   0.8                   1

2 0
 s    3 1.00
             18.731137    0.03349459952309
             2.8253937    0.23472694665786
             0.6401217    0.81375731841339
 s    1 1.00
             0.1612778                   1

3 0
 s    6 1.00
             3047.5249  0.0018347001629433
             457.36951    0.01403730124668
             103.94869   0.068842606114048
             29.210155    0.23218442062076
              9.286663    0.46794134155879
              3.163927    0.36231203217765
 s    3 1.00
             7.8682724   -0.11933240861517
             1.8812885   -0.16085421161283
             0.5442493     1.1434564825515
 s    1 1.00
             0.1687144                   1
 p    3 1.00
             7.8682724   0.068999095584993
             1.8812885    0.31642397975315
             0.5442493    0.74430825237435
 p    1 1.00
             0.1687144                   1
 d    1 1.00
                   0.8                   1

4 0
 s    3 1.00
             18.731137    0.03349459952309
             2.8253937    0.23472694665786
             0.6401217    0.81375731841339
 s    1 1.00
             0.1612778                   1

5 0
 s    6 1.00
             3047.5249  0.0018347001629433
             457.36951    0.01403730124668
             103.94869   0.068842606114048
             29.210155    0.23218442062076
              9.286663    0.46794134155879
              3.163927    0.36231203217765
 s    3 1.00
             7.8682724   -0.11933240861517
             1.8812885   -0.16085421161283
             0.5442493     1.1434564825515
 s    1 1.00
             0.1687144                   1
 p    3 1.00
             7.8682724   0.068999095584993
             1.8812885    0.31642397975315
             0.5442493    0.74430825237435
 p    1 1.00
             0.1687144                   1
 d    1 1.00
                   0.8                   1

6 0
 s    3 1.00
             18.731137    0.03349459952309
             2.8253937    0.23472694665786
             0.6401217    0.81375731841339
 s    1 1.00
             0.1612778                   1

7 0
 s    6 1.00
             3047.5249  0.0018347001629433
             457.36951    0.01403730124668
             103.94869   0.068842606114048
             29.210155    0.23218442062076
              9.286663    0.46794134155879
              3.163927    0.36231203217765
 s    3 1.00
             7.8682724   -0.11933240861517
             1.8812885   -0.16085421161283
             0.5442493     1.1434564825515
 s    1 1.00
             0.1687144                   1
 p    3 1.00
             7.8682724   0.068999095584993
             1.8812885    0.31642397975315
             0.5442493    0.74430825237435
 p    1 1.00
             0.1687144                   1
 d    1 1.00
                   0.8                   1

8 0
 s    3 1.00
             18.731137    0.03349459952309
             2.8253937    0.23472694665786
             0.6401217    0.81375731841339
 s    1 1.00
             0.1612778                   1

9 0
 s    3 1.00
             18.731137    0.03349459952309
             2.8253937    0.23472694665786
             0.6401217    0.81375731841339
 s    1 1.00
             0.1612778                   1

10 0
 s    6 1.00
             3047.5249  0.0018347001629433
             457.36951    0.01403730124668
             103.94869   0.068842606114048
             29.210155    0.23218442062076
              9.286663    0.46794134155879
              3.163927    0.36231203217765
 s    3 1.00
             7.8682724   -0.11933240861517
             1.8812885   -0.16085421161283
             0.5442493     1.1434564825515
 s    1 1.00
             0.1687144                   1
 p    3 1.00
             7.8682724   0.068999095584993
             1.8812885    0.31642397975315
             0.5442493    0.74430825237435
 p    1 1.00
             0.1687144                   1
 d    1 1.00
                   0.8                   1

11 0
 s    3 1.00
             18.731137    0.03349459952309
             2.8253937    0.23472694665786
             0.6401217    0.81375731841339
 s    1 1.00
             0.1612778                   1

12 0
 s    6 1.00
             3047.5249  0.0018347001629433
             457.36951    0.01403730124668
             103.94869   0.068842606114048
             29.210155    0.23218442062076
              9.286663    0.46794134155879
              3.163927    0.36231203217765
 s    3 1.00
             7.8682724   -0.11933240861517
             1.8812885   -0.16085421161283
             0.5442493     1.1434564825515
 s    1 1.00
             0.1687144                   1
 p    3 1.00
             7.8682724   0.068999095584993
             1.8812885    0.31642397975315
             0.5442493    0.74430825237435
 p    1 1.00
             0.1687144                   1
 d    1 1.00
                   0.8                   1

13 0
 s    3 1.00
             18.731137    0.03349459952309
             2.8253937    0.23472694665786
             0.6401217    0.81375731841339
 s    1 1.00
             0.1612778                   1

14 0
 s    3 1.00
             18.731137    0.03349459952309
             2.8253937    0.23472694665786
             0.6401217    0.81375731841339
 s    1 1.00
             0.1612778                   1

15 0
 s    6 1.00
             3047.5249  0.0018347001629433
             457.36951    0.01403730124668
             103.94869   0.068842606114048
             29.210155    0.23218442062076
              9.286663    0.46794134155879
              3.163927    0.36231203217765
 s    3 1.00
             7.8682724   -0.11933240861517
             1.8812885   -0.16085421161283
             0.5442493     1.1434564825515
 s    1 1.00
             0.1687144                   1
 p    3 1.00
             7.8682724   0.068999095584993
             1.8812885    0.31642397975315
             0.5442493    0.74430825237435
 p    1 1.00
             0.1687144                   1
 d    1 1.00
                   0.8                   1

16 0
 s    6 1.00
             3047.5249  0.0018347001629433
             457.36951    0.01403730124668
             103.94869   0.068842606114048
             29.210155    0.23218442062076
              9.286663    0.46794134155879
              3.163927    0.36231203217765
 s    3 1.00
             7.8682724   -0.11933240861517
             1.8812885   -0.16085421161283
             0.5442493     1.1434564825515
 s    1 1.00
             0.1687144                   1
 p    3 1.00
             7.8682724   0.068999095584993
             1.8812885    0.31642397975315
             0.5442493    0.74430825237435
 p    1 1.00
             0.1687144                   1
 d    1 1.00
                   0.8                   1

17 0
 s    6 1.00
             3047.5249  0.0018347001629433
             457.36951    0.01403730124668
             103.94869   0.068842606114048
             29.210155    0.23218442062076
              9.286663    0.46794134155879
              3.163927    0.36231203217765
 s    3 1.00
             7.8682724   -0.11933240861517
             1.8812885   -0.16085421161283
             0.5442493     1.1434564825515
 s    1 1.00
             0.1687144                   1
 p    3 1.00
             7.8682724   0.068999095584993
             1.8812885    0.31642397975315
             0.5442493    0.74430825237435
 p    1 1.00
             0.1687144                   1
 d    1 1.00
                   0.8                   1

18 0
 s    6 1.00
             3047.5249  0.0018347001629433
             457.36951    0.01403730124668
             103.94869   0.068842606114048
             29.210155    0.23218442062076
              9.286663    0.46794134155879
              3.163927    0.36231203217765
 s    3 1.00
             7.8682724   -0.11933240861517
             1.8812885   -0.16085421161283
             0.5442493     1.1434564825515
 s    1 1.00
             0.1687144                   1
 p    3 1.00
             7.8682724   0.068999095584993
             1.8812885    0.31642397975315
             0.5442493    0.74430825237435
 p    1 1.00
             0.1687144                   1
 d    1 1.00
                   0.8                   1

19 0
 s    6 1.00
             3047.5249  0.0018347001629433
             457.36951    0.01403730124668
             103.94869   0.068842606114048
             29.210155    0.23218442062076
              9.286663    0.46794134155879
              3.163927    0.36231203217765
 s    3 1.00
             7.8682724   -0.11933240861517
             1.8812885   -0.16085421161283
             0.5442493     1.1434564825515
 s    1 1.00
             0.1687144                   1
 p    3 1.00
             7.8682724   0.068999095584993
             1.8812885    0.31642397975315
             0.5442493    0.74430825237435
 p    1 1.00
             0.1687144                   1
 d    1 1.00
                   0.8                   1

20 0
 s    6 1.00
             3047.5249  0.0018347001629433
             457.36951    0.01403730124668
             103.94869   0.068842606114048
             29.210155    0.23218442062076
              9.286663    0.46794134155879
              3.163927    0.36231203217765
 s    3 1.00
             7.8682724   -0.11933240861517
             1.8812885   -0.16085421161283
             0.5442493     1.1434564825515
 s    1 1.00
             0.1687144                   1
 p    3 1.00
             7.8682724   0.068999095584993
             1.8812885    0.31642397975315
             0.5442493    0.74430825237435
 p    1 1.00
             0.1687144                   1
 d    1 1.00
                   0.8                   1

21 0
 s    6 1.00
             3047.5249  0.0018347001629433
             457.36951    0.01403730124668
             103.94869   0.068842606114048
             29.210155    0.23218442062076
              9.286663    0.46794134155879
              3.163927    0.36231203217765
 s    3 1.00
             7.8682724   -0.11933240861517
             1.8812885   -0.16085421161283
             0.5442493     1.1434564825515
 s    1 1.00
             0.1687144                   1
 p    3 1.00
             7.8682724   0.068999095584993
             1.8812885    0.31642397975315
             0.5442493    0.74430825237435
 p    1 1.00
             0.1687144                   1
 d    1 1.00
                   0.8                   1

22 0
 s    3 1.00
             18.731137    0.03349459952309
             2.8253937    0.23472694665786
             0.6401217    0.81375731841339
 s    1 1.00
             0.1612778                   1

23 0
 s    3 1.00
             18.731137    0.03349459952309
             2.8253937    0.23472694665786
             0.6401217    0.81375731841339
 s    1 1.00
             0.1612778                   1

24 0
 s    3 1.00
             18.731137    0.03349459952309
             2.8253937    0.23472694665786
             0.6401217    0.81375731841339
 s    1 1.00
             0.1612778                   1

25 0
 s    3 1.00
             18.731137    0.03349459952309
             2.8253937    0.23472694665786
             0.6401217    0.81375731841339
 s    1 1.00
             0.1612778                   1

26 0
 s    3 1.00
             18.731137    0.03349459952309
             2.8253937    0.23472694665786
             0.6401217    0.81375731841339
 s    1 1.00
             0.1612778                   1

27 0
 s    3 1.00
             18.731137    0.03349459952309
             2.8253937    0.23472694665786
             0.6401217    0.81375731841339
 s    1 1.00
             0.1612778                   1

28 0
 s    3 1.00
             18.731137    0.03349459952309
             2.8253937    0.23472694665786
             0.6401217    0.81375731841339
 s    1 1.00
             0.1612778                   1

29 0
 s    3 1.00
             18.731137    0.03349459952309
             2.8253937    0.23472694665786
             0.6401217    0.81375731841339
 s    1 1.00
             0.1612778                   1

30 0
 s    3 1.00
             18.731137    0.03349459952309
             2.8253937    0.23472694665786
             0.6401217    0.81375731841339
 s    1 1.00
             0.1612778                   1

31 0
 s    3 1.00
             18.731137    0.03349459952309
             2.8253937    0.23472694665786
             0.6401217    0.81375731841339
 s    1 1.00
             0.1612778                   1

32 0
 s    3 1.00
             18.731137    0.03349459952309
             2.8253937    0.23472694665786
             0.6401217    0.81375731841339
 s    1 1.00
             0.1612778                   1

33 0
 s    6 1.00
             3047.5249  0.0018347001629433
             457.36951    0.01403730124668
             103.94869   0.068842606114048
             29.210155    0.23218442062076
              9.286663    0.46794134155879
              3.163927    0.36231203217765
 s    3 1.00
             7.8682724   -0.11933240861517
             1.8812885   -0.16085421161283
             0.5442493     1.1434564825515
 s    1 1.00
             0.1687144                   1
 p    3 1.00
             7.8682724   0.068999095584993
             1.8812885    0.31642397975315
             0.5442493    0.74430825237435
 p    1 1.00
             0.1687144                   1
 d    1 1.00
                   0.8                   1

34 0
 s    6 1.00
             3047.5249  0.0018347001629433
             457.36951    0.01403730124668
             103.94869   0.068842606114048
             29.210155    0.23218442062076
              9.286663    0.46794134155879
              3.163927    0.36231203217765
 s    3 1.00
             7.8682724   -0.11933240861517
             1.8812885   -0.16085421161283
             0.5442493     1.1434564825515
 s    1 1.00
             0.1687144                   1
 p    3 1.00
             7.8682724   0.068999095584993
             1.8812885    0.31642397975315
             0.5442493    0.74430825237435
 p    1 1.00
             0.1687144                   1
 d    1 1.00
                   0.8                   1

35 0
 s    3 1.00
             18.731137    0.03349459952309
             2.8253937    0.23472694665786
             0.6401217    0.81375731841339
 s    1 1.00
             0.1612778                   1

36 0
 s    6 1.00
             3047.5249  0.0018347001629433
             457.36951    0.01403730124668
             103.94869   0.068842606114048
             29.210155    0.23218442062076
              9.286663    0.46794134155879
              3.163927    0.36231203217765
 s    3 1.00
             7.8682724   -0.11933240861517
             1.8812885   -0.16085421161283
             0.5442493     1.1434564825515
 s    1 1.00
             0.1687144                   1
 p    3 1.00
             7.8682724   0.068999095584993
             1.8812885    0.31642397975315
             0.5442493    0.74430825237435
 p    1 1.00
             0.1687144                   1
 d    1 1.00
                   0.8                   1

37 0
 s    3 1.00
             18.731137    0.03349459952309
             2.8253937    0.23472694665786
             0.6401217    0.81375731841339
 s    1 1.00
             0.1612778                   1

38 0
 s    3 1.00
             18.731137    0.03349459952309
             2.8253937    0.23472694665786
             0.6401217    0.81375731841339
 s    1 1.00
             0.1612778                   1

39 0
 s    6 1.00
             3047.5249  0.0018347001629433
             457.36951    0.01403730124668
             103.94869   0.068842606114048
             29.210155    0.23218442062076
              9.286663    0.46794134155879
              3.163927    0.36231203217765
 s    3 1.00
             7.8682724   -0.11933240861517
             1.8812885   -0.16085421161283
             0.5442493     1.1434564825515
 s    1 1.00
             0.1687144                   1
 p    3 1.00
             7.8682724   0.068999095584993
             1.8812885    0.31642397975315
             0.5442493    0.74430825237435
 p    1 1.00
             0.1687144                   1
 d    1 1.00
                   0.8                   1

40 0
 s    6 1.00
             3047.5249  0.0018347001629433
             457.36951    0.01403730124668
             103.94869   0.068842606114048
             29.210155    0.23218442062076
              9.286663    0.46794134155879
              3.163927    0.36231203217765
 s    3 1.00
             7.8682724   -0.11933240861517
             1.8812885   -0.16085421161283
             0.5442493     1.1434564825515
 s    1 1.00
             0.1687144                   1
 p    3 1.00
             7.8682724   0.068999095584993
             1.8812885    0.31642397975315
             0.5442493    0.74430825237435
 p    1 1.00
             0.1687144                   1
 d    1 1.00
                   0.8                   1

41 0
 s    3 1.00
             18.731137    0.03349459952309
             2.8253937    0.23472694665786
             0.6401217    0.81375731841339
 s    1 1.00
             0.1612778                   1

42 0
 s    6 1.00
             5484.6717   0.001831099805527
             825.23495   0.013950098518422
             188.04696    0.06844509273075
               52.9645    0.23271427528445
              16.89757    0.47019295006289
             5.7996353    0.35852086192309
 s    3 1.00
             15.539616   -0.11077750382508
             3.5999336   -0.14802630511126
             1.0137618     1.1307670390447
 s    1 1.00
             0.2700058                   1
 p    3 1.00
             15.539616   0.070874299543311
             3.5999336    0.33975279781076
             1.0137618    0.72715859531445
 p    1 1.00
             0.2700058                   1
 d    1 1.00
                   0.8                   1

43 0
 s    3 1.00
             18.731137    0.03349459952309
             2.8253937    0.23472694665786
             0.6401217    0.81375731841339
 s    1 1.00
             0.1612778                   1

[5d]
[7f]
[9g]

[MO]
 Sym= A
 Ene=               0
 Spin= Alpha
 Occup=    1.00000
   1     0.015777696226559
   2    -0.0011140346644722
   3    0.0078509859669376
   4    0.0004990125553148
   5    -0.00021902052849684
   6    0.0012667841933216
   7    0.00058199521803346
   8    0.0014520890366019
   9    -0.0048748330568803
  10    -0.0010048015808741
  11    -0.0010190377334201
  12    0.00012399445867588
  13    -0.00023751454971139
  14    6.1113343916932e-05
  15    -0.00045961528863908
  16    -0.0010604365328814
  17       0.9945819693231
  18     0.038991112051584
  19    -0.030472051887542
  20     0.001013719827245
  21    0.00023486552290086
  22    -0.00039596303781169
  23    -0.003742687859426
  24    -0.0011797268652968
  25    -0.00060758236245981
  26    0.00078453802097024
  27    -0.00030372612362389
  28    -0.00034947036572432
  29    0.00022846973120227
  30    0.00025229862580047
  31    -0.0013384056461329
  32    0.0041046372955901
  33      0.02009058003811
  34    -0.00058558356919775
  35    0.0034793540736371
  36    0.00094958765616458
  37    0.00043122118429343
  38    -0.0013579681552118
  39    -0.0032224504566716
  40    0.0018615490217338
  41    0.0031089356427868
  42    -0.00060225499257339
  43    0.0012347022439621
  44      0.00062334498277
  45    -0.00043657178860285
  46    -0.00044018317727393
  47    -0.00052960976706773
  48    -0.00032400872052564
  49    -0.00044548966739315
  50    -0.00046983109317074
  51    -0.00097954340225976
  52    0.00037816983972373
  53    0.00012496463129233
  54    -0.00027884260759936
  55    -0.0053557893295526
  56    -0.00042884000487502
  57     0.004913260914337
  58    -0.00016485363810864
  59    8.4924964835058e-05
  60    -3.4869309882153e-05
  61    -2.5499635378111e-05
  62    -0.0002821203497823
  63    -0.00042840392637565
  64    5.2743217081984e-05
  65    -2.3326722454108e-06
  66    -5.3660216744274e-06
  67    1.6244721643185e-07
  68    7.3948868872753e-07
  69    -9.1472109093235e-07
  70    5.4723194955893e-07
  71    -3.7028507794325e-06
  72    -2.5545693609556e-07
  73    1.3207903331909e-05
  74    2.7486147375837e-05
  75    1.2248638622373e-05
  76    -2.1553795289224e-07
  77    -3.5268238196986e-08
  78    -3.2307926697945e-08
  79    3.277795762207e-07
  80    1.0555716815395e-07
  81    3.0187205103697e-06
  82    1.5244100539946e-05
  83    -9.1189369743379e-08
  84    -6.7877835552174e-07
  85    -4.9382471882261e-05
  86    3.9565197035364e-06
  87    3.6989371476521e-06
  88    3.7090738477795e-06
  89    1.3333249958129e-05
  90    -5.7005582988573e-05
  91    6.8732785139795e-06
  92    1.6754408321393e-06
  93    -1.843575290885e-06
  94    3.0632139240916e-06
  95    -3.8329733025409e-07
  96    -9.6366646703507e-07
  97    6.8688256607353e-06
  98    1.3862798160433e-05
  99    -3.7334835274842e-06
 100    -1.8961453604681e-05
 101    -1.436804902152e-07
 102    -5.0440383203767e-06
 103    0.0001073715398068
 104    -3.1053699677504e-06
 105    -1.1661375198886e-05
 106    -9.0203355701749e-07
 107    -0.0001352762776115
 108    0.00014358950309134
 109    0.00013398097187952
 110    -6.8692127198506e-06
 111    -7.2700580180984e-07
 112    2.2259871896739e-07
 113    2.7910141342383e-08
 114    -3.4001565756126e-06
 115    -3.5419315432265e-06
 116    -3.3040737883033e-05
 117    0.00021777353185277
 118    -1.1663948169515e-06
 119    -3.4598003372634e-07
 120    5.3923102582149e-06
 121    -5.3461844234158e-05
 122    3.1648975906246e-05
 123    1.7686408758527e-05
 124    1.0038124512627e-06
 125    -3.1788007781054e-06
 126    -1.693026614915e-06
 127    1.6773884899121e-06
 128    -2.0940721369794e-06
 129    -4.7464276520972e-06
 130    -4.7152064025782e-05
 131    6.0447672777926e-05
 132    -2.853691192647e-07
 133    -4.9815948617832e-06
 134    2.2891218052215e-05
 135    -0.00020987641662859
 136    -1.2163270629507e-05
 137    -0.00031023627512619
 138    4.4028777488614e-06
 139    1.3174614940038e-05
 140    3.3220721425816e-06
 141    5.1856554427838e-06
 142    5.7871116516266e-06
 143    -2.5731569572996e-06
 144    -3.0682779619466e-05
 145    8.495330663108e-05
 146    2.1007746739873e-06
 147    5.3775513363926e-06
 148    1.0733309539393e-05
 149    2.2729276692119e-05
 150    -2.2013956698634e-06
 151    -8.2857251277136e-05
 152    -4.2019035005225e-06
 153    -4.9579418927743e-06
 154    -1.8911038148518e-06
 155    3.4525088752099e-06
 156    -3.4307394392047e-06
 157    1.4816534854842e-06
 158    1.1642698864641e-05
 159    -4.1845642347022e-05
 160    5.2005163372497e-06
 161    1.8252616599636e-08
 162    -1.9820408218555e-06
 163    -4.4759789209494e-05
 164    2.789631476619e-05
 165    1.3824222870121e-05
 166    4.234862268005e-06
 167    -1.4218179977503e-06
 168    -4.0737865036099e-07
 169    1.285894352342e-06
 170    1.4582721675911e-06
 171    -8.1095542808565e-07
 172    -1.5332623711038e-05
 173    3.1973672031252e-05
 174    -4.2233326811027e-06
 175    -1.1063631157363e-07
 176    1.0112564047037e-05
 177    -3.6217664232908e-06
 178    -6.4170707219606e-06
 179    -2.8951714887692e-05
 180    1.6510749633542e-06
 181    4.2840907956602e-06
 182    1.4034515535226e-06
 183    -1.0001033248129e-06
 184    1.0622521855658e-06
 185    -2.6994916058884e-06
 186    -2.2297509871639e-05
 187    6.7861964992473e-05
 188    -1.075439083153e-06
 189    4.0746886214433e-07
 190    3.5707228313894e-06
 191    -1.2846329345771e-05
 192    -1.2198347775078e-05
 193    -5.6911331619686e-05
 194    2.0072371721327e-06
 195    1.567559979883e-06
 196    2.2427749055539e-06
 197    1.6445128026983e-07
 198    4.535375658445e-07
 199    -5.1629293903271e-06
 200    3.6874413743515e-06
 201    -3.2282589656573e-06
 202    1.3450289770564e-05
 203    -9.5065373143393e-06
 204    6.1498668011715e-06
 205    -1.6393786896232e-06
 206    -2.7888475942232e-05
 207    6.2902023473029e-06
 208    -5.1157400801763e-05
 209    1.0516139012594e-05
 210    -2.2777181291228e-05
 211    6.1581357270065e-06
 212    1.3867704940414e-05
 213    -8.8188686774059e-07
 214    -1.9455722434587e-05
 215    -8.3747259381235e-07
 216    -4.1389164716492e-05
 217    3.7257859228143e-07
 218    1.040248678125e-05
 219    -6.318509524931e-07
 220    -3.6997985178572e-06
 221    -7.1926853610086e-06
 222    -7.09155798597e-05
 223    0.00083453038440619
 224    -1.43117655096e-05
 225    -1.2576391973654e-06
 226    5.3383113237933e-06
 227    0.00064228111001821
 228    0.00028199345714775
 229    -0.00066779953721813
 230    1.6170082900084e-06
 231    -3.7408374558528e-05
 232    -1.5921209154716e-05
 233    1.9958899479236e-05
 234    1.9249063205405e-05
 235    -1.8219830609641e-05
 236    -8.2664780110373e-05
 237    0.00019026177599389
 238    -3.1669199178168e-05
 239    -6.2256108771026e-07
 240    1.9658824112353e-05
 241    0.00016108311595697
 242    0.00038916756860222
 243    -0.0016144376584921
 244    1.8128472635945e-05
 245    6.8727420820885e-05
 246    1.0287255699436e-06
 247    1.9262043949336e-05
 248    -9.4977773045481e-06
 249    -2.668671666146e-05
 250    0.0003253770425447
 251    1.667952785026e-05
 252    -0.00035655831730544
 253     0.001135807503171
 254    5.7622936687086e-05
 255    -4.2677248576184e-06
 256    0.00023694832157819
 257    -0.00043596231260357
 258    5.1001957006985e-05
 259    -0.0016878236441493
 260    -8.4245762778768e-05
 261    -7.4360513663226e-06
 262    1.0428608190546e-05
 263    0.00014854708130668
 264    6.3806109689053e-05
 265    -0.00010271551802367
 266    0.00018411099853636
 267    -0.00014573931142884
 268    -0.00062811057366513
 269    -5.1654743168352e-05
 270    -0.00046624563647863
 271    0.0061652554171045
 272    -0.00012747180137814
 273    4.0361677414592e-05
 274    6.096041201525e-05
 275    -0.00093149895488905
 276    -0.0018681919942279
 277    0.0031843960748416
 278    0.00011630753822078
 279    -0.00013776110128397
 280    -0.00010973260415262