[Molden Format]
made by pyscf v[2.0.1]
[Atoms] (AU)
C   1   6     0.69100024066471     0.64692934207205    -3.48223131169301
H   2   1     2.68052439830868     1.13355088658700    -3.25784032593313
C   3   6    -0.36286361513219     0.85440132524594    -5.97030179418974
H   4   1    -2.35448549047279     0.36322488579172    -6.17995817793143
C   5   6     0.93697958957450     1.61209284601821    -8.05828437677121
H   6   1     0.14022243979667     3.08603065646166    -9.25562650474843
C   7   6     3.33155915073320     0.56926267114995    -8.78956929307971
H   8   1     4.10661901770469    -0.90506612570738    -7.57081623325171
H   9   1     1.55630230933075    -1.92953025305990    12.99630010416247
C   10   6     0.75233899775814    -2.21270439606481    11.10705728102219
H   11   1    -0.43433408177274    -3.90944857546550    11.22216085340412
C   12   6     2.86362581178706    -2.63237380607947     9.17926416456045
H   13   1     4.39038949912609    -1.24955421540245     9.49899813497433
H   14   1     3.74629220191363    -4.48798724300892     9.47414880959024
C   15   6     2.02478325613682    -2.42177285709634     6.44560829588644
C   16   6     3.88048732735477    -3.58795445234514     4.61402886975252
C   17   6    -0.18412382258602    -1.30464291234259     5.76021113872346
C   18   6    -2.10044360464350    -0.26837831858460     7.71610340967100
C   19   6    -3.08956938670431     2.35282328359417     6.88693925039594
C   20   6    -4.37372924086464    -2.09766595989678     7.93610724222001
C   21   6    -0.83850430601230     0.06372213486173    10.33002307638377
H   22   1     0.38411922151109     1.74281358582432    10.27380136542181
H   23   1    -2.30980003007874     0.45460143924521    11.73986301809809
H   24   1     4.58527064644668    -5.38706904487420     5.36778158031719
H   25   1     5.54944938085014    -2.37631462192748     4.35398898413318
H   26   1     3.06633019150423    -3.94118377050688     2.75255466040884
H   27   1    -4.17727778763735     2.26573369139522     5.12914900961283
H   28   1    -1.52662344944051     3.68001877445626     6.59540397144508
H   29   1    -4.32916174397830     3.13643051467482     8.35225460090378
H   30   1    -5.32329548508442    -2.36691813602939     6.11583672749896
H   31   1    -5.77989366602257    -1.33896741843465     9.25748940450990
H   32   1    -3.79310905208926    -3.96389819310853     8.61386170102686
C   33   6    -1.01100794811226    -1.06331657314144     3.11929490449947
C   34   6     0.37686231036534    -0.33275864505552     1.09165013605873
H   35   1    -3.01671213906703    -1.40297922279997     2.77827895090944
C   36   6    -0.64382707979370    -0.11591880174385    -1.42063131251064
H   37   1     2.35569259782137     0.17174499283897     1.33641070251401
H   38   1    -2.63317482980319    -0.60229203511219    -1.66119700387645
C   39   6     4.69106502259275     1.26188352336463   -10.85081981009206
C   40   6     7.11506387067225     0.08270412537969   -11.43459041306820
H   41   1     4.02727424636240     2.71762167762249   -12.14232148362751
O   42   8     8.43283181269616     0.61123359193353   -13.25254761350674
H   43   1     7.72125158488297    -1.39686243822724   -10.06214800755086
[GTO]
1 0
 s    6 1.00
             3047.5249  0.0018347001629433
             457.36951    0.01403730124668
             103.94869   0.068842606114048
             29.210155    0.23218442062076
              9.286663    0.46794134155879
              3.163927    0.36231203217765
 s    3 1.00
             7.8682724   -0.11933240861517
             1.8812885   -0.16085421161283
             0.5442493     1.1434564825515
 s    1 1.00
             0.1687144                   1
 p    3 1.00
             7.8682724   0.068999095584993
             1.8812885    0.31642397975315
             0.5442493    0.74430825237435
 p    1 1.00
             0.1687144                   1
 d    1 1.00
                   0.8                   1

2 0
 s    3 1.00
             18.731137    0.03349459952309
             2.8253937    0.23472694665786
             0.6401217    0.81375731841339
 s    1 1.00
             0.1612778                   1

3 0
 s    6 1.00
             3047.5249  0.0018347001629433
             457.36951    0.01403730124668
             103.94869   0.068842606114048
             29.210155    0.23218442062076
              9.286663    0.46794134155879
              3.163927    0.36231203217765
 s    3 1.00
             7.8682724   -0.11933240861517
             1.8812885   -0.16085421161283
             0.5442493     1.1434564825515
 s    1 1.00
             0.1687144                   1
 p    3 1.00
             7.8682724   0.068999095584993
             1.8812885    0.31642397975315
             0.5442493    0.74430825237435
 p    1 1.00
             0.1687144                   1
 d    1 1.00
                   0.8                   1

4 0
 s    3 1.00
             18.731137    0.03349459952309
             2.8253937    0.23472694665786
             0.6401217    0.81375731841339
 s    1 1.00
             0.1612778                   1

5 0
 s    6 1.00
             3047.5249  0.0018347001629433
             457.36951    0.01403730124668
             103.94869   0.068842606114048
             29.210155    0.23218442062076
              9.286663    0.46794134155879
              3.163927    0.36231203217765
 s    3 1.00
             7.8682724   -0.11933240861517
             1.8812885   -0.16085421161283
             0.5442493     1.1434564825515
 s    1 1.00
             0.1687144                   1
 p    3 1.00
             7.8682724   0.068999095584993
             1.8812885    0.31642397975315
             0.5442493    0.74430825237435
 p    1 1.00
             0.1687144                   1
 d    1 1.00
                   0.8                   1

6 0
 s    3 1.00
             18.731137    0.03349459952309
             2.8253937    0.23472694665786
             0.6401217    0.81375731841339
 s    1 1.00
             0.1612778                   1

7 0
 s    6 1.00
             3047.5249  0.0018347001629433
             457.36951    0.01403730124668
             103.94869   0.068842606114048
             29.210155    0.23218442062076
              9.286663    0.46794134155879
              3.163927    0.36231203217765
 s    3 1.00
             7.8682724   -0.11933240861517
             1.8812885   -0.16085421161283
             0.5442493     1.1434564825515
 s    1 1.00
             0.1687144                   1
 p    3 1.00
             7.8682724   0.068999095584993
             1.8812885    0.31642397975315
             0.5442493    0.74430825237435
 p    1 1.00
             0.1687144                   1
 d    1 1.00
                   0.8                   1

8 0
 s    3 1.00
             18.731137    0.03349459952309
             2.8253937    0.23472694665786
             0.6401217    0.81375731841339
 s    1 1.00
             0.1612778                   1

9 0
 s    3 1.00
             18.731137    0.03349459952309
             2.8253937    0.23472694665786
             0.6401217    0.81375731841339
 s    1 1.00
             0.1612778                   1

10 0
 s    6 1.00
             3047.5249  0.0018347001629433
             457.36951    0.01403730124668
             103.94869   0.068842606114048
             29.210155    0.23218442062076
              9.286663    0.46794134155879
              3.163927    0.36231203217765
 s    3 1.00
             7.8682724   -0.11933240861517
             1.8812885   -0.16085421161283
             0.5442493     1.1434564825515
 s    1 1.00
             0.1687144                   1
 p    3 1.00
             7.8682724   0.068999095584993
             1.8812885    0.31642397975315
             0.5442493    0.74430825237435
 p    1 1.00
             0.1687144                   1
 d    1 1.00
                   0.8                   1

11 0
 s    3 1.00
             18.731137    0.03349459952309
             2.8253937    0.23472694665786
             0.6401217    0.81375731841339
 s    1 1.00
             0.1612778                   1

12 0
 s    6 1.00
             3047.5249  0.0018347001629433
             457.36951    0.01403730124668
             103.94869   0.068842606114048
             29.210155    0.23218442062076
              9.286663    0.46794134155879
              3.163927    0.36231203217765
 s    3 1.00
             7.8682724   -0.11933240861517
             1.8812885   -0.16085421161283
             0.5442493     1.1434564825515
 s    1 1.00
             0.1687144                   1
 p    3 1.00
             7.8682724   0.068999095584993
             1.8812885    0.31642397975315
             0.5442493    0.74430825237435
 p    1 1.00
             0.1687144                   1
 d    1 1.00
                   0.8                   1

13 0
 s    3 1.00
             18.731137    0.03349459952309
             2.8253937    0.23472694665786
             0.6401217    0.81375731841339
 s    1 1.00
             0.1612778                   1

14 0
 s    3 1.00
             18.731137    0.03349459952309
             2.8253937    0.23472694665786
             0.6401217    0.81375731841339
 s    1 1.00
             0.1612778                   1

15 0
 s    6 1.00
             3047.5249  0.0018347001629433
             457.36951    0.01403730124668
             103.94869   0.068842606114048
             29.210155    0.23218442062076
              9.286663    0.46794134155879
              3.163927    0.36231203217765
 s    3 1.00
             7.8682724   -0.11933240861517
             1.8812885   -0.16085421161283
             0.5442493     1.1434564825515
 s    1 1.00
             0.1687144                   1
 p    3 1.00
             7.8682724   0.068999095584993
             1.8812885    0.31642397975315
             0.5442493    0.74430825237435
 p    1 1.00
             0.1687144                   1
 d    1 1.00
                   0.8                   1

16 0
 s    6 1.00
             3047.5249  0.0018347001629433
             457.36951    0.01403730124668
             103.94869   0.068842606114048
             29.210155    0.23218442062076
              9.286663    0.46794134155879
              3.163927    0.36231203217765
 s    3 1.00
             7.8682724   -0.11933240861517
             1.8812885   -0.16085421161283
             0.5442493     1.1434564825515
 s    1 1.00
             0.1687144                   1
 p    3 1.00
             7.8682724   0.068999095584993
             1.8812885    0.31642397975315
             0.5442493    0.74430825237435
 p    1 1.00
             0.1687144                   1
 d    1 1.00
                   0.8                   1

17 0
 s    6 1.00
             3047.5249  0.0018347001629433
             457.36951    0.01403730124668
             103.94869   0.068842606114048
             29.210155    0.23218442062076
              9.286663    0.46794134155879
              3.163927    0.36231203217765
 s    3 1.00
             7.8682724   -0.11933240861517
             1.8812885   -0.16085421161283
             0.5442493     1.1434564825515
 s    1 1.00
             0.1687144                   1
 p    3 1.00
             7.8682724   0.068999095584993
             1.8812885    0.31642397975315
             0.5442493    0.74430825237435
 p    1 1.00
             0.1687144                   1
 d    1 1.00
                   0.8                   1

18 0
 s    6 1.00
             3047.5249  0.0018347001629433
             457.36951    0.01403730124668
             103.94869   0.068842606114048
             29.210155    0.23218442062076
              9.286663    0.46794134155879
              3.163927    0.36231203217765
 s    3 1.00
             7.8682724   -0.11933240861517
             1.8812885   -0.16085421161283
             0.5442493     1.1434564825515
 s    1 1.00
             0.1687144                   1
 p    3 1.00
             7.8682724   0.068999095584993
             1.8812885    0.31642397975315
             0.5442493    0.74430825237435
 p    1 1.00
             0.1687144                   1
 d    1 1.00
                   0.8                   1

19 0
 s    6 1.00
             3047.5249  0.0018347001629433
             457.36951    0.01403730124668
             103.94869   0.068842606114048
             29.210155    0.23218442062076
              9.286663    0.46794134155879
              3.163927    0.36231203217765
 s    3 1.00
             7.8682724   -0.11933240861517
             1.8812885   -0.16085421161283
             0.5442493     1.1434564825515
 s    1 1.00
             0.1687144                   1
 p    3 1.00
             7.8682724   0.068999095584993
             1.8812885    0.31642397975315
             0.5442493    0.74430825237435
 p    1 1.00
             0.1687144                   1
 d    1 1.00
                   0.8                   1

20 0
 s    6 1.00
             3047.5249  0.0018347001629433
             457.36951    0.01403730124668
             103.94869   0.068842606114048
             29.210155    0.23218442062076
              9.286663    0.46794134155879
              3.163927    0.36231203217765
 s    3 1.00
             7.8682724   -0.11933240861517
             1.8812885   -0.16085421161283
             0.5442493     1.1434564825515
 s    1 1.00
             0.1687144                   1
 p    3 1.00
             7.8682724   0.068999095584993
             1.8812885    0.31642397975315
             0.5442493    0.74430825237435
 p    1 1.00
             0.1687144                   1
 d    1 1.00
                   0.8                   1

21 0
 s    6 1.00
             3047.5249  0.0018347001629433
             457.36951    0.01403730124668
             103.94869   0.068842606114048
             29.210155    0.23218442062076
              9.286663    0.46794134155879
              3.163927    0.36231203217765
 s    3 1.00
             7.8682724   -0.11933240861517
             1.8812885   -0.16085421161283
             0.5442493     1.1434564825515
 s    1 1.00
             0.1687144                   1
 p    3 1.00
             7.8682724   0.068999095584993
             1.8812885    0.31642397975315
             0.5442493    0.74430825237435
 p    1 1.00
             0.1687144                   1
 d    1 1.00
                   0.8                   1

22 0
 s    3 1.00
             18.731137    0.03349459952309
             2.8253937    0.23472694665786
             0.6401217    0.81375731841339
 s    1 1.00
             0.1612778                   1

23 0
 s    3 1.00
             18.731137    0.03349459952309
             2.8253937    0.23472694665786
             0.6401217    0.81375731841339
 s    1 1.00
             0.1612778                   1

24 0
 s    3 1.00
             18.731137    0.03349459952309
             2.8253937    0.23472694665786
             0.6401217    0.81375731841339
 s    1 1.00
             0.1612778                   1

25 0
 s    3 1.00
             18.731137    0.03349459952309
             2.8253937    0.23472694665786
             0.6401217    0.81375731841339
 s    1 1.00
             0.1612778                   1

26 0
 s    3 1.00
             18.731137    0.03349459952309
             2.8253937    0.23472694665786
             0.6401217    0.81375731841339
 s    1 1.00
             0.1612778                   1

27 0
 s    3 1.00
             18.731137    0.03349459952309
             2.8253937    0.23472694665786
             0.6401217    0.81375731841339
 s    1 1.00
             0.1612778                   1

28 0
 s    3 1.00
             18.731137    0.03349459952309
             2.8253937    0.23472694665786
             0.6401217    0.81375731841339
 s    1 1.00
             0.1612778                   1

29 0
 s    3 1.00
             18.731137    0.03349459952309
             2.8253937    0.23472694665786
             0.6401217    0.81375731841339
 s    1 1.00
             0.1612778                   1

30 0
 s    3 1.00
             18.731137    0.03349459952309
             2.8253937    0.23472694665786
             0.6401217    0.81375731841339
 s    1 1.00
             0.1612778                   1

31 0
 s    3 1.00
             18.731137    0.03349459952309
             2.8253937    0.23472694665786
             0.6401217    0.81375731841339
 s    1 1.00
             0.1612778                   1

32 0
 s    3 1.00
             18.731137    0.03349459952309
             2.8253937    0.23472694665786
             0.6401217    0.81375731841339
 s    1 1.00
             0.1612778                   1

33 0
 s    6 1.00
             3047.5249  0.0018347001629433
             457.36951    0.01403730124668
             103.94869   0.068842606114048
             29.210155    0.23218442062076
              9.286663    0.46794134155879
              3.163927    0.36231203217765
 s    3 1.00
             7.8682724   -0.11933240861517
             1.8812885   -0.16085421161283
             0.5442493     1.1434564825515
 s    1 1.00
             0.1687144                   1
 p    3 1.00
             7.8682724   0.068999095584993
             1.8812885    0.31642397975315
             0.5442493    0.74430825237435
 p    1 1.00
             0.1687144                   1
 d    1 1.00
                   0.8                   1

34 0
 s    6 1.00
             3047.5249  0.0018347001629433
             457.36951    0.01403730124668
             103.94869   0.068842606114048
             29.210155    0.23218442062076
              9.286663    0.46794134155879
              3.163927    0.36231203217765
 s    3 1.00
             7.8682724   -0.11933240861517
             1.8812885   -0.16085421161283
             0.5442493     1.1434564825515
 s    1 1.00
             0.1687144                   1
 p    3 1.00
             7.8682724   0.068999095584993
             1.8812885    0.31642397975315
             0.5442493    0.74430825237435
 p    1 1.00
             0.1687144                   1
 d    1 1.00
                   0.8                   1

35 0
 s    3 1.00
             18.731137    0.03349459952309
             2.8253937    0.23472694665786
             0.6401217    0.81375731841339
 s    1 1.00
             0.1612778                   1

36 0
 s    6 1.00
             3047.5249  0.0018347001629433
             457.36951    0.01403730124668
             103.94869   0.068842606114048
             29.210155    0.23218442062076
              9.286663    0.46794134155879
              3.163927    0.36231203217765
 s    3 1.00
             7.8682724   -0.11933240861517
             1.8812885   -0.16085421161283
             0.5442493     1.1434564825515
 s    1 1.00
             0.1687144                   1
 p    3 1.00
             7.8682724   0.068999095584993
             1.8812885    0.31642397975315
             0.5442493    0.74430825237435
 p    1 1.00
             0.1687144                   1
 d    1 1.00
                   0.8                   1

37 0
 s    3 1.00
             18.731137    0.03349459952309
             2.8253937    0.23472694665786
             0.6401217    0.81375731841339
 s    1 1.00
             0.1612778                   1

38 0
 s    3 1.00
             18.731137    0.03349459952309
             2.8253937    0.23472694665786
             0.6401217    0.81375731841339
 s    1 1.00
             0.1612778                   1

39 0
 s    6 1.00
             3047.5249  0.0018347001629433
             457.36951    0.01403730124668
             103.94869   0.068842606114048
             29.210155    0.23218442062076
              9.286663    0.46794134155879
              3.163927    0.36231203217765
 s    3 1.00
             7.8682724   -0.11933240861517
             1.8812885   -0.16085421161283
             0.5442493     1.1434564825515
 s    1 1.00
             0.1687144                   1
 p    3 1.00
             7.8682724   0.068999095584993
             1.8812885    0.31642397975315
             0.5442493    0.74430825237435
 p    1 1.00
             0.1687144                   1
 d    1 1.00
                   0.8                   1

40 0
 s    6 1.00
             3047.5249  0.0018347001629433
             457.36951    0.01403730124668
             103.94869   0.068842606114048
             29.210155    0.23218442062076
              9.286663    0.46794134155879
              3.163927    0.36231203217765
 s    3 1.00
             7.8682724   -0.11933240861517
             1.8812885   -0.16085421161283
             0.5442493     1.1434564825515
 s    1 1.00
             0.1687144                   1
 p    3 1.00
             7.8682724   0.068999095584993
             1.8812885    0.31642397975315
             0.5442493    0.74430825237435
 p    1 1.00
             0.1687144                   1
 d    1 1.00
                   0.8                   1

41 0
 s    3 1.00
             18.731137    0.03349459952309
             2.8253937    0.23472694665786
             0.6401217    0.81375731841339
 s    1 1.00
             0.1612778                   1

42 0
 s    6 1.00
             5484.6717   0.001831099805527
             825.23495   0.013950098518422
             188.04696    0.06844509273075
               52.9645    0.23271427528445
              16.89757    0.47019295006289
             5.7996353    0.35852086192309
 s    3 1.00
             15.539616   -0.11077750382508
             3.5999336   -0.14802630511126
             1.0137618     1.1307670390447
 s    1 1.00
             0.2700058                   1
 p    3 1.00
             15.539616   0.070874299543311
             3.5999336    0.33975279781076
             1.0137618    0.72715859531445
 p    1 1.00
             0.2700058                   1
 d    1 1.00
                   0.8                   1

43 0
 s    3 1.00
             18.731137    0.03349459952309
             2.8253937    0.23472694665786
             0.6401217    0.81375731841339
 s    1 1.00
             0.1612778                   1

[5d]
[7f]
[9g]

[MO]
 Sym= A
 Ene=               0
 Spin= Alpha
 Occup=    1.00000
   1     0.014401344192198
   2    -0.0011628067755464
   3       0.0080596311086
   4    0.0005174055632541
   5    -0.00020644165322675
   6    0.0012515926384793
   7    0.0003831635856451
   8    0.0012842445616697
   9    -0.0043346626605506
  10    -0.0010118177916041
  11    -0.0010356154831135
  12    0.0001174179242353
  13    -0.00024696786151648
  14    6.642578273758e-05
  15    -0.00043308859352972
  16    -0.0010518991919931
  17      0.99453888814907
  18     0.038812970037173
  19    -0.030144144096566
  20    0.00096995155046711
  21    0.00024108274862889
  22    -0.00030565049122244
  23    -0.003624245844342
  24    -0.0010720596049138
  25    -0.00052216080451021
  26    0.00078301081839248
  27    -0.00029012191160745
  28    -0.00036394509560331
  29    0.00020960316114139
  30    0.00024786144332831
  31    -0.0013341553680776
  32    0.0040968088775651
  33     0.022510667185153
  34    -0.00076016684317379
  35    0.0048289739771299
  36    0.00094445195643144
  37    0.00046183774264416
  38    -0.0014002100831957
  39    -0.0027845150545189
  40    0.00091624558057324
  41    0.0029084327333574
  42    -0.00060501636551842
  43    0.0011859186563634
  44    0.00063605922092288
  45    -0.00041825772332831
  46    -0.00047513979713317
  47    -0.00047305241410754
  48    -0.00014802290431756
  49    -0.00051100261175418
  50    -0.00040402257175641
  51    -0.0015801046035393
  52    0.00035520073315859
  53    0.00015781644022044
  54    -0.00024089780118968
  55    -0.0043923914636272
  56    -0.0010129305097382
  57    0.0039469913290289
  58    -0.00012412500973457
  59    0.00013540660177622
  60    -6.5560178053726e-05
  61    3.0094639008483e-05
  62    -0.00022637961822575
  63    -0.00037776262254271
  64    -5.7368504720589e-05
  65    -2.1757313844114e-06
  66    -5.7883262502703e-06
  67    2.2601389789185e-07
  68    1.6320226540748e-06
  69    -3.2755689347593e-06
  70    1.1242552229746e-07
  71    -3.2290027935523e-06
  72    -5.3405320512682e-07
  73    1.2519615163441e-05
  74    2.6661658895064e-05
  75    1.317286867187e-05
  76    -2.289808798816e-07
  77    6.8442961920992e-08
  78    -1.4858393583504e-07
  79    2.3660924454831e-07
  80    1.6181797961941e-07
  81      2.9741599473e-06
  82     1.52271529997e-05
  83    -1.963025897105e-07
  84    -1.0393113894289e-06
  85    -3.5277668807846e-05
  86    3.2737521628405e-06
  87    3.7264553164494e-06
  88    2.7339347246378e-06
  89    8.4164076906799e-06
  90    -5.1514120440553e-05
  91    4.1783355790838e-06
  92    1.5922456126329e-06
  93    -1.4246125395565e-06
  94    2.5250051291844e-06
  95    -3.1598792997264e-07
  96    -8.6818561406622e-07
  97    5.9987181856829e-06
  98    1.3332936594925e-05
  99    -3.709444983112e-06
 100    -1.7820318843662e-05
 101    1.5746977057665e-07
 102    -3.3998970121529e-06
 103    6.6200813539029e-05
 104    -2.9723953936983e-06
 105    -1.1053132582962e-05
 106    4.4713986383974e-07
 107    -0.00010574978286312
 108    0.00011869813379223
 109    0.00011063390817243
 110    -6.7170134827071e-06
 111    -6.9005256404964e-07
 112    1.9735399982733e-07
 113    -1.5112915744117e-07
 114    -2.4453300922153e-06
 115    -3.3294976914803e-06
 116    -3.1412310667318e-05
 117    0.00019297098602828
 118    -4.7616869957818e-07
 119    -1.6327814986984e-06
 120    5.3095959860524e-06
 121    -4.8467091956967e-05
 122    3.3691827792234e-05
 123    8.7168710129171e-06
 124    8.7783752103258e-07
 125    -2.8146811092949e-06
 126    -1.5008521488755e-06
 127    1.6482666223025e-06
 128    -1.7951496441073e-06
 129    -4.0677112930902e-06
 130    -4.1652587772662e-05
 131    -9.2447640809118e-07
 132    -2.3334093045647e-06
 133    -5.1370557109277e-06
 134    2.1940119782142e-05
 135    -0.00015138685005431
 136    -1.9868706315134e-05
 137    -0.00022812487308649
 138    1.7333486508668e-06
 139    1.1776812743779e-05
 140    2.4574586400078e-06
 141    5.1218091778265e-06
 142    5.3647138742207e-06
 143    -2.3115590646113e-06
 144    -2.734295729309e-05
 145    8.226005988367e-05
 146    2.2333887063341e-06
 147    5.3552964803806e-06
 148    8.9139023893028e-06
 149    1.5695784696434e-05
 150    -5.5184407755655e-06
 151    -7.9593196539408e-05
 152    -2.9861631184051e-06
 153    -4.8779143766155e-06
 154    -1.2721887728583e-06
 155    2.8682591936633e-06
 156    -2.5686798303214e-06
 157    1.292857281721e-06
 158    1.0243056537878e-05
 159    -3.6986900367328e-05
 160    4.6571522000031e-06
 161    -1.2345178168686e-07
 162    -1.8837908448401e-06
 163    -3.8021872878613e-05
 164    2.6047948022005e-05
 165    1.3479269773435e-05
 166    3.657701269794e-06
 167    -1.3039912471904e-06
 168    -4.9293872301314e-07
 169    1.3709568281431e-06
 170    9.9560719315519e-07
 171    -9.0475317253845e-07
 172    -1.5584714281993e-05
 173    3.2860380560213e-05
 174    -3.9097000011079e-06
 175    8.6219088730578e-08
 176    9.337484292053e-06
 177    -5.1184159728711e-06
 178    -9.3667267998366e-06
 179    -2.9494733797696e-05
 180    1.6620527890228e-06
 181    3.8225708811586e-06
 182    1.3794656881364e-06
 183    -8.2646360774053e-07
 184    7.2639220334213e-07
 185    -2.2732792712293e-06
 186    -1.8257563493203e-05
 187    5.9514262670115e-05
 188    -5.7469743432993e-07
 189    2.6531452668995e-07
 190    2.6708505166108e-06
 191    -1.5582137486507e-05
 192    -1.0187084899903e-05
 193    -4.899901501529e-05
 194    1.5851559126376e-06
 195    1.4214789705998e-06
 196    1.7405975204851e-06
 197    2.4103117926227e-07
 198    4.7964296023254e-07
 199    -4.0820059065037e-06
 200    4.4065010334502e-06
 201    -3.2103873374164e-06
 202    1.0045677080679e-05
 203    -8.0767137823292e-06
 204    9.7629674835123e-06
 205    -2.3049750012133e-06
 206    -2.6500979067103e-05
 207    5.9624423746646e-06
 208    -4.9942073041524e-05
 209    9.4521279622674e-06
 210    -1.9598260316954e-05
 211    5.4236335034838e-06
 212    1.1210109710726e-05
 213    -8.4605176334044e-07
 214    -1.7431028948989e-05
 215    -1.9131692075346e-08
 216    -4.6098393859505e-05
 217    2.7198278068378e-08
 218    1.058135212432e-05
 219    -1.1637337217637e-06
 220    -4.5375658256004e-06
 221    -6.0725520434329e-06
 222    -6.1232875604011e-05
 223    0.00080771721217039
 224    -1.6249566374659e-05
 225    -1.0583097428413e-06
 226    7.9398616031442e-07
 227    0.00063633659376281
 228    0.00025228597981155
 229    -0.00051286511543756
 230    1.4566425634158e-06
 231    -3.2192647796514e-05
 232    -1.3136376687934e-05
 233    1.7976352982027e-05
 234    1.7088264419282e-05
 235    -1.9678965647681e-05
 236    -8.8616438742573e-05
 237    0.00038421988589041
 238    -3.1406571231957e-05
 239    -7.5042497324423e-07
 240    1.2232426910454e-05
 241    0.00011942819760109
 242    0.00038404162898322
 243    -0.0016124630263078
 244    2.333703419373e-05
 245    6.4480715747441e-05
 246    -2.0212913016378e-06
 247    1.7964274834057e-05
 248    -9.7070165673647e-06
 249    -1.9965840739246e-05
 250    0.00032425288433173
 251     2.26499911246e-05
 252    -0.00031241354871776
 253    0.00053620147010361
 254    6.0399307874659e-05
 255    -1.5403763028914e-06
 256    0.0002417978401848
 257    -0.00067029977995254
 258    -5.3959144690354e-05
 259    -0.0015089311796618
 260    -9.2362956108915e-05
 261    1.1174395902027e-06
 262    1.6075802103574e-05
 263    0.00014281266087372
 264    5.9549913180207e-05
 265    -9.9586584706537e-05
 266    0.00016508475089715
 267    -0.00014677273466297
 268    -0.00066773495924976
 269    -4.5288824231636e-05
 270    -0.00040497127158404
 271    0.0053749199424009
 272    -0.00011444262608855
 273    9.0882525421011e-06
 274    4.6366392141263e-05
 275    -0.00093588570437117
 276    -0.0013213902514131
 277    0.0029301287809997
 278    0.00011421014351728
 279    -0.00011712775514027
 280    -9.1552630731431e-05