[Molden Format]
made by pyscf v[2.0.1]
[Atoms] (AU)
C   1   6     0.69100024066471     0.64692934207205    -3.48223131169301
H   2   1     2.68052439830868     1.13355088658700    -3.25784032593313
C   3   6    -0.36286361513219     0.85440132524594    -5.97030179418974
H   4   1    -2.35448549047279     0.36322488579172    -6.17995817793143
C   5   6     0.93697958957450     1.61209284601821    -8.05828437677121
H   6   1     1.79023114573091     3.48620134168797    -8.08322278856913
C   7   6     1.25568723688000     0.06665493916240   -10.26426053014808
H   8   1     0.39118722523993    -1.80671768770582   -10.21099750517578
H   9   1     1.55630230933075    -1.92953025305990    12.99630010416247
C   10   6     0.75233899775814    -2.21270439606481    11.10705728102219
H   11   1    -0.43433408177274    -3.90944857546550    11.22216085340412
C   12   6     2.86362581178706    -2.63237380607947     9.17926416456045
H   13   1     4.39038949912609    -1.24955421540245     9.49899813497433
H   14   1     3.74629220191363    -4.48798724300892     9.47414880959024
C   15   6     2.02478325613682    -2.42177285709634     6.44560829588644
C   16   6     3.88048732735477    -3.58795445234514     4.61402886975252
C   17   6    -0.18412382258602    -1.30464291234259     5.76021113872346
C   18   6    -2.10044360464350    -0.26837831858460     7.71610340967100
C   19   6    -3.08956938670431     2.35282328359417     6.88693925039594
C   20   6    -4.37372924086464    -2.09766595989678     7.93610724222001
C   21   6    -0.83850430601230     0.06372213486173    10.33002307638377
H   22   1     0.38411922151109     1.74281358582432    10.27380136542181
H   23   1    -2.30980003007874     0.45460143924521    11.73986301809809
H   24   1     4.58527064644668    -5.38706904487420     5.36778158031719
H   25   1     5.54944938085014    -2.37631462192748     4.35398898413318
H   26   1     3.06633019150423    -3.94118377050688     2.75255466040884
H   27   1    -4.17727778763735     2.26573369139522     5.12914900961283
H   28   1    -1.52662344944051     3.68001877445626     6.59540397144508
H   29   1    -4.32916174397830     3.13643051467482     8.35225460090378
H   30   1    -5.32329548508442    -2.36691813602939     6.11583672749896
H   31   1    -5.77989366602257    -1.33896741843465     9.25748940450990
H   32   1    -3.79310905208926    -3.96389819310853     8.61386170102686
C   33   6    -1.01100794811226    -1.06331657314144     3.11929490449947
C   34   6     0.37686231036534    -0.33275864505552     1.09165013605873
H   35   1    -3.01671213906703    -1.40297922279997     2.77827895090944
C   36   6    -0.64382707979370    -0.11591880174385    -1.42063131251064
H   37   1     2.35569259782137     0.17174499283897     1.33641070251401
H   38   1    -2.63317482980319    -0.60229203511219    -1.66119700387645
C   39   6     2.53016326718275     0.74184279311179   -12.38477126217512
C   40   6     2.74761784180424    -0.97075180884473   -14.53576076061004
H   41   1     3.43489191747297     2.57981441042514   -12.56110828288274
O   42   8     3.86136937293188    -0.48701494751058   -16.49697984673750
H   43   1     1.79359090776017    -2.83108880557309   -14.27278208139205
[GTO]
1 0
 s    6 1.00
             3047.5249  0.0018347001629433
             457.36951    0.01403730124668
             103.94869   0.068842606114048
             29.210155    0.23218442062076
              9.286663    0.46794134155879
              3.163927    0.36231203217765
 s    3 1.00
             7.8682724   -0.11933240861517
             1.8812885   -0.16085421161283
             0.5442493     1.1434564825515
 s    1 1.00
             0.1687144                   1
 p    3 1.00
             7.8682724   0.068999095584993
             1.8812885    0.31642397975315
             0.5442493    0.74430825237435
 p    1 1.00
             0.1687144                   1
 d    1 1.00
                   0.8                   1

2 0
 s    3 1.00
             18.731137    0.03349459952309
             2.8253937    0.23472694665786
             0.6401217    0.81375731841339
 s    1 1.00
             0.1612778                   1

3 0
 s    6 1.00
             3047.5249  0.0018347001629433
             457.36951    0.01403730124668
             103.94869   0.068842606114048
             29.210155    0.23218442062076
              9.286663    0.46794134155879
              3.163927    0.36231203217765
 s    3 1.00
             7.8682724   -0.11933240861517
             1.8812885   -0.16085421161283
             0.5442493     1.1434564825515
 s    1 1.00
             0.1687144                   1
 p    3 1.00
             7.8682724   0.068999095584993
             1.8812885    0.31642397975315
             0.5442493    0.74430825237435
 p    1 1.00
             0.1687144                   1
 d    1 1.00
                   0.8                   1

4 0
 s    3 1.00
             18.731137    0.03349459952309
             2.8253937    0.23472694665786
             0.6401217    0.81375731841339
 s    1 1.00
             0.1612778                   1

5 0
 s    6 1.00
             3047.5249  0.0018347001629433
             457.36951    0.01403730124668
             103.94869   0.068842606114048
             29.210155    0.23218442062076
              9.286663    0.46794134155879
              3.163927    0.36231203217765
 s    3 1.00
             7.8682724   -0.11933240861517
             1.8812885   -0.16085421161283
             0.5442493     1.1434564825515
 s    1 1.00
             0.1687144                   1
 p    3 1.00
             7.8682724   0.068999095584993
             1.8812885    0.31642397975315
             0.5442493    0.74430825237435
 p    1 1.00
             0.1687144                   1
 d    1 1.00
                   0.8                   1

6 0
 s    3 1.00
             18.731137    0.03349459952309
             2.8253937    0.23472694665786
             0.6401217    0.81375731841339
 s    1 1.00
             0.1612778                   1

7 0
 s    6 1.00
             3047.5249  0.0018347001629433
             457.36951    0.01403730124668
             103.94869   0.068842606114048
             29.210155    0.23218442062076
              9.286663    0.46794134155879
              3.163927    0.36231203217765
 s    3 1.00
             7.8682724   -0.11933240861517
             1.8812885   -0.16085421161283
             0.5442493     1.1434564825515
 s    1 1.00
             0.1687144                   1
 p    3 1.00
             7.8682724   0.068999095584993
             1.8812885    0.31642397975315
             0.5442493    0.74430825237435
 p    1 1.00
             0.1687144                   1
 d    1 1.00
                   0.8                   1

8 0
 s    3 1.00
             18.731137    0.03349459952309
             2.8253937    0.23472694665786
             0.6401217    0.81375731841339
 s    1 1.00
             0.1612778                   1

9 0
 s    3 1.00
             18.731137    0.03349459952309
             2.8253937    0.23472694665786
             0.6401217    0.81375731841339
 s    1 1.00
             0.1612778                   1

10 0
 s    6 1.00
             3047.5249  0.0018347001629433
             457.36951    0.01403730124668
             103.94869   0.068842606114048
             29.210155    0.23218442062076
              9.286663    0.46794134155879
              3.163927    0.36231203217765
 s    3 1.00
             7.8682724   -0.11933240861517
             1.8812885   -0.16085421161283
             0.5442493     1.1434564825515
 s    1 1.00
             0.1687144                   1
 p    3 1.00
             7.8682724   0.068999095584993
             1.8812885    0.31642397975315
             0.5442493    0.74430825237435
 p    1 1.00
             0.1687144                   1
 d    1 1.00
                   0.8                   1

11 0
 s    3 1.00
             18.731137    0.03349459952309
             2.8253937    0.23472694665786
             0.6401217    0.81375731841339
 s    1 1.00
             0.1612778                   1

12 0
 s    6 1.00
             3047.5249  0.0018347001629433
             457.36951    0.01403730124668
             103.94869   0.068842606114048
             29.210155    0.23218442062076
              9.286663    0.46794134155879
              3.163927    0.36231203217765
 s    3 1.00
             7.8682724   -0.11933240861517
             1.8812885   -0.16085421161283
             0.5442493     1.1434564825515
 s    1 1.00
             0.1687144                   1
 p    3 1.00
             7.8682724   0.068999095584993
             1.8812885    0.31642397975315
             0.5442493    0.74430825237435
 p    1 1.00
             0.1687144                   1
 d    1 1.00
                   0.8                   1

13 0
 s    3 1.00
             18.731137    0.03349459952309
             2.8253937    0.23472694665786
             0.6401217    0.81375731841339
 s    1 1.00
             0.1612778                   1

14 0
 s    3 1.00
             18.731137    0.03349459952309
             2.8253937    0.23472694665786
             0.6401217    0.81375731841339
 s    1 1.00
             0.1612778                   1

15 0
 s    6 1.00
             3047.5249  0.0018347001629433
             457.36951    0.01403730124668
             103.94869   0.068842606114048
             29.210155    0.23218442062076
              9.286663    0.46794134155879
              3.163927    0.36231203217765
 s    3 1.00
             7.8682724   -0.11933240861517
             1.8812885   -0.16085421161283
             0.5442493     1.1434564825515
 s    1 1.00
             0.1687144                   1
 p    3 1.00
             7.8682724   0.068999095584993
             1.8812885    0.31642397975315
             0.5442493    0.74430825237435
 p    1 1.00
             0.1687144                   1
 d    1 1.00
                   0.8                   1

16 0
 s    6 1.00
             3047.5249  0.0018347001629433
             457.36951    0.01403730124668
             103.94869   0.068842606114048
             29.210155    0.23218442062076
              9.286663    0.46794134155879
              3.163927    0.36231203217765
 s    3 1.00
             7.8682724   -0.11933240861517
             1.8812885   -0.16085421161283
             0.5442493     1.1434564825515
 s    1 1.00
             0.1687144                   1
 p    3 1.00
             7.8682724   0.068999095584993
             1.8812885    0.31642397975315
             0.5442493    0.74430825237435
 p    1 1.00
             0.1687144                   1
 d    1 1.00
                   0.8                   1

17 0
 s    6 1.00
             3047.5249  0.0018347001629433
             457.36951    0.01403730124668
             103.94869   0.068842606114048
             29.210155    0.23218442062076
              9.286663    0.46794134155879
              3.163927    0.36231203217765
 s    3 1.00
             7.8682724   -0.11933240861517
             1.8812885   -0.16085421161283
             0.5442493     1.1434564825515
 s    1 1.00
             0.1687144                   1
 p    3 1.00
             7.8682724   0.068999095584993
             1.8812885    0.31642397975315
             0.5442493    0.74430825237435
 p    1 1.00
             0.1687144                   1
 d    1 1.00
                   0.8                   1

18 0
 s    6 1.00
             3047.5249  0.0018347001629433
             457.36951    0.01403730124668
             103.94869   0.068842606114048
             29.210155    0.23218442062076
              9.286663    0.46794134155879
              3.163927    0.36231203217765
 s    3 1.00
             7.8682724   -0.11933240861517
             1.8812885   -0.16085421161283
             0.5442493     1.1434564825515
 s    1 1.00
             0.1687144                   1
 p    3 1.00
             7.8682724   0.068999095584993
             1.8812885    0.31642397975315
             0.5442493    0.74430825237435
 p    1 1.00
             0.1687144                   1
 d    1 1.00
                   0.8                   1

19 0
 s    6 1.00
             3047.5249  0.0018347001629433
             457.36951    0.01403730124668
             103.94869   0.068842606114048
             29.210155    0.23218442062076
              9.286663    0.46794134155879
              3.163927    0.36231203217765
 s    3 1.00
             7.8682724   -0.11933240861517
             1.8812885   -0.16085421161283
             0.5442493     1.1434564825515
 s    1 1.00
             0.1687144                   1
 p    3 1.00
             7.8682724   0.068999095584993
             1.8812885    0.31642397975315
             0.5442493    0.74430825237435
 p    1 1.00
             0.1687144                   1
 d    1 1.00
                   0.8                   1

20 0
 s    6 1.00
             3047.5249  0.0018347001629433
             457.36951    0.01403730124668
             103.94869   0.068842606114048
             29.210155    0.23218442062076
              9.286663    0.46794134155879
              3.163927    0.36231203217765
 s    3 1.00
             7.8682724   -0.11933240861517
             1.8812885   -0.16085421161283
             0.5442493     1.1434564825515
 s    1 1.00
             0.1687144                   1
 p    3 1.00
             7.8682724   0.068999095584993
             1.8812885    0.31642397975315
             0.5442493    0.74430825237435
 p    1 1.00
             0.1687144                   1
 d    1 1.00
                   0.8                   1

21 0
 s    6 1.00
             3047.5249  0.0018347001629433
             457.36951    0.01403730124668
             103.94869   0.068842606114048
             29.210155    0.23218442062076
              9.286663    0.46794134155879
              3.163927    0.36231203217765
 s    3 1.00
             7.8682724   -0.11933240861517
             1.8812885   -0.16085421161283
             0.5442493     1.1434564825515
 s    1 1.00
             0.1687144                   1
 p    3 1.00
             7.8682724   0.068999095584993
             1.8812885    0.31642397975315
             0.5442493    0.74430825237435
 p    1 1.00
             0.1687144                   1
 d    1 1.00
                   0.8                   1

22 0
 s    3 1.00
             18.731137    0.03349459952309
             2.8253937    0.23472694665786
             0.6401217    0.81375731841339
 s    1 1.00
             0.1612778                   1

23 0
 s    3 1.00
             18.731137    0.03349459952309
             2.8253937    0.23472694665786
             0.6401217    0.81375731841339
 s    1 1.00
             0.1612778                   1

24 0
 s    3 1.00
             18.731137    0.03349459952309
             2.8253937    0.23472694665786
             0.6401217    0.81375731841339
 s    1 1.00
             0.1612778                   1

25 0
 s    3 1.00
             18.731137    0.03349459952309
             2.8253937    0.23472694665786
             0.6401217    0.81375731841339
 s    1 1.00
             0.1612778                   1

26 0
 s    3 1.00
             18.731137    0.03349459952309
             2.8253937    0.23472694665786
             0.6401217    0.81375731841339
 s    1 1.00
             0.1612778                   1

27 0
 s    3 1.00
             18.731137    0.03349459952309
             2.8253937    0.23472694665786
             0.6401217    0.81375731841339
 s    1 1.00
             0.1612778                   1

28 0
 s    3 1.00
             18.731137    0.03349459952309
             2.8253937    0.23472694665786
             0.6401217    0.81375731841339
 s    1 1.00
             0.1612778                   1

29 0
 s    3 1.00
             18.731137    0.03349459952309
             2.8253937    0.23472694665786
             0.6401217    0.81375731841339
 s    1 1.00
             0.1612778                   1

30 0
 s    3 1.00
             18.731137    0.03349459952309
             2.8253937    0.23472694665786
             0.6401217    0.81375731841339
 s    1 1.00
             0.1612778                   1

31 0
 s    3 1.00
             18.731137    0.03349459952309
             2.8253937    0.23472694665786
             0.6401217    0.81375731841339
 s    1 1.00
             0.1612778                   1

32 0
 s    3 1.00
             18.731137    0.03349459952309
             2.8253937    0.23472694665786
             0.6401217    0.81375731841339
 s    1 1.00
             0.1612778                   1

33 0
 s    6 1.00
             3047.5249  0.0018347001629433
             457.36951    0.01403730124668
             103.94869   0.068842606114048
             29.210155    0.23218442062076
              9.286663    0.46794134155879
              3.163927    0.36231203217765
 s    3 1.00
             7.8682724   -0.11933240861517
             1.8812885   -0.16085421161283
             0.5442493     1.1434564825515
 s    1 1.00
             0.1687144                   1
 p    3 1.00
             7.8682724   0.068999095584993
             1.8812885    0.31642397975315
             0.5442493    0.74430825237435
 p    1 1.00
             0.1687144                   1
 d    1 1.00
                   0.8                   1

34 0
 s    6 1.00
             3047.5249  0.0018347001629433
             457.36951    0.01403730124668
             103.94869   0.068842606114048
             29.210155    0.23218442062076
              9.286663    0.46794134155879
              3.163927    0.36231203217765
 s    3 1.00
             7.8682724   -0.11933240861517
             1.8812885   -0.16085421161283
             0.5442493     1.1434564825515
 s    1 1.00
             0.1687144                   1
 p    3 1.00
             7.8682724   0.068999095584993
             1.8812885    0.31642397975315
             0.5442493    0.74430825237435
 p    1 1.00
             0.1687144                   1
 d    1 1.00
                   0.8                   1

35 0
 s    3 1.00
             18.731137    0.03349459952309
             2.8253937    0.23472694665786
             0.6401217    0.81375731841339
 s    1 1.00
             0.1612778                   1

36 0
 s    6 1.00
             3047.5249  0.0018347001629433
             457.36951    0.01403730124668
             103.94869   0.068842606114048
             29.210155    0.23218442062076
              9.286663    0.46794134155879
              3.163927    0.36231203217765
 s    3 1.00
             7.8682724   -0.11933240861517
             1.8812885   -0.16085421161283
             0.5442493     1.1434564825515
 s    1 1.00
             0.1687144                   1
 p    3 1.00
             7.8682724   0.068999095584993
             1.8812885    0.31642397975315
             0.5442493    0.74430825237435
 p    1 1.00
             0.1687144                   1
 d    1 1.00
                   0.8                   1

37 0
 s    3 1.00
             18.731137    0.03349459952309
             2.8253937    0.23472694665786
             0.6401217    0.81375731841339
 s    1 1.00
             0.1612778                   1

38 0
 s    3 1.00
             18.731137    0.03349459952309
             2.8253937    0.23472694665786
             0.6401217    0.81375731841339
 s    1 1.00
             0.1612778                   1

39 0
 s    6 1.00
             3047.5249  0.0018347001629433
             457.36951    0.01403730124668
             103.94869   0.068842606114048
             29.210155    0.23218442062076
              9.286663    0.46794134155879
              3.163927    0.36231203217765
 s    3 1.00
             7.8682724   -0.11933240861517
             1.8812885   -0.16085421161283
             0.5442493     1.1434564825515
 s    1 1.00
             0.1687144                   1
 p    3 1.00
             7.8682724   0.068999095584993
             1.8812885    0.31642397975315
             0.5442493    0.74430825237435
 p    1 1.00
             0.1687144                   1
 d    1 1.00
                   0.8                   1

40 0
 s    6 1.00
             3047.5249  0.0018347001629433
             457.36951    0.01403730124668
             103.94869   0.068842606114048
             29.210155    0.23218442062076
              9.286663    0.46794134155879
              3.163927    0.36231203217765
 s    3 1.00
             7.8682724   -0.11933240861517
             1.8812885   -0.16085421161283
             0.5442493     1.1434564825515
 s    1 1.00
             0.1687144                   1
 p    3 1.00
             7.8682724   0.068999095584993
             1.8812885    0.31642397975315
             0.5442493    0.74430825237435
 p    1 1.00
             0.1687144                   1
 d    1 1.00
                   0.8                   1

41 0
 s    3 1.00
             18.731137    0.03349459952309
             2.8253937    0.23472694665786
             0.6401217    0.81375731841339
 s    1 1.00
             0.1612778                   1

42 0
 s    6 1.00
             5484.6717   0.001831099805527
             825.23495   0.013950098518422
             188.04696    0.06844509273075
               52.9645    0.23271427528445
              16.89757    0.47019295006289
             5.7996353    0.35852086192309
 s    3 1.00
             15.539616   -0.11077750382508
             3.5999336   -0.14802630511126
             1.0137618     1.1307670390447
 s    1 1.00
             0.2700058                   1
 p    3 1.00
             15.539616   0.070874299543311
             3.5999336    0.33975279781076
             1.0137618    0.72715859531445
 p    1 1.00
             0.2700058                   1
 d    1 1.00
                   0.8                   1

43 0
 s    3 1.00
             18.731137    0.03349459952309
             2.8253937    0.23472694665786
             0.6401217    0.81375731841339
 s    1 1.00
             0.1612778                   1

[5d]
[7f]
[9g]

[MO]
 Sym= A
 Ene=               0
 Spin= Alpha
 Occup=    1.00000
   1    0.0025328387427107
   2      0.29380123243006
   3      0.19495043982482
   4    -0.075783397800325
   5    -0.049210441336307
   6      0.14475896847668
   7     0.011779743900459
   8    -0.0068459696846808
   9     0.049905593981155
  10    0.0037548905576977
  11    -0.0049677693572051
  12    -0.0045229315242819
  13    0.0073043032360821
  14    0.0057856237332412
  15     0.064627257619633
  16    -0.0037694264014647
  17    -0.0083524375660591
  18     0.044762599692618
  19     0.021932105687683
  20    -0.0065336680226473
  21    -0.012243738403154
  22     0.051141943402809
  23     -0.01089565437918
  24    -0.0073790235817488
  25     0.028719666225158
  26    0.0063095262038438
  27    0.0022284909528056
  28    -0.0019723537080034
  29    0.00086741119073475
  30     0.000260379828023
  31     0.012411339333548
  32    0.00028243612370578
  33    0.00019161688750681
  34    0.0027419750438403
  35     0.023511078311308
  36    0.0028800036983967
  37    0.00092268345665641
  38    -0.010397080116786
  39    -0.0069117973457112
  40    -0.0071745680188631
  41    -0.0034090919564247
  42    0.00069762601790512
  43    -0.00084898903295038
  44    0.00066651742972859
  45    -8.9801257701533e-05
  46    0.00015331014914479
  47    0.0022971423483363
  48    0.0044826416330635
  49    -6.0887590912212e-05
  50     0.043538404741206
  51     0.020222926213001
  52     0.012010599210852
  53    0.0047001474464289
  54    -0.022107824717295
  55    0.0031882497172939
  56    -0.0055615352762176
  57    -0.010034147912034
  58    0.00024137341066262
  59    -0.0010220489983722
  60    -0.0004225410431219
  61    -0.00044053528849221
  62    0.0010798616644984
  63    0.0095974439554657
  64    0.00021322322755171
  65    2.9673167586682e-05
  66    -1.4382854399888e-05
  67    1.5876991755058e-05
  68    3.6250830650306e-05
  69    -0.0004389809603231
  70    -1.0034753338766e-05
  71    -2.0228893163687e-05
  72    5.0791433058266e-06
  73    0.00026383065812956
  74    0.00036827331792757
  75    0.00028072333776129
  76    2.8484547321169e-05
  77    1.1069000298765e-05
  78    -9.6404395573336e-06
  79    -8.9576940204547e-06
  80    9.377063631112e-06
  81    7.7885254999471e-06
  82    0.00033810507540133
  83    -2.5537914097741e-05
  84    0.00014196700718582
  85    0.0012732026886063
  86    -0.00018103158249898
  87    7.9229417721696e-05
  88    -0.00029652244876494
  89    -0.00046199209778991
  90    -0.00042475510543464
  91    -0.00053432793487585
  92    -5.5706424319732e-06
  93    2.6368419256315e-05
  94    -1.2836749922213e-05
  95    -4.5899807497878e-06
  96    -9.6609177287573e-06
  97    -5.802799602371e-05
  98    7.6832134756121e-05
  99    -5.3373205385651e-05
 100    -0.00012689680111924
 101    9.0389190875852e-05
 102    -6.7321628115994e-05
 103    -0.0013406303499746
 104    2.9983174757883e-05
 105    0.00018086682544666
 106    0.00040553392034574
 107    0.0026990283090629
 108    -0.00070300690766599
 109    -0.0031809011436412
 110    3.635820345496e-05
 111    8.3260363588851e-05
 112    -2.5491262538919e-05
 113    -6.1334785055812e-05
 114    2.8046738269233e-05
 115    7.9378271227781e-05
 116    -0.00021665492605454
 117    -0.0021221342090392
 118    0.00010963285347454
 119    -0.00037282616306492
 120    5.7976597588413e-05
 121    0.00042522037375014
 122    -0.00012188717798009
 123    -0.0015268001917882
 124    1.3983927705624e-05
 125    4.8621150334944e-05
 126    -5.1033856522569e-05
 127    -4.7717706778249e-06
 128    1.280738011461e-05
 129    3.0377281974705e-05
 130    0.00063191892065231
 131    -0.012048632280215
 132    -0.00015128069879904
 133    -7.6558747925725e-05
 134    -0.0005392334082664
 135    0.0017771744302087
 136    -0.0013261979318902
 137     0.012847004498978
 138    -0.00038452005789734
 139    7.9164698884467e-05
 140    0.0001419568715883
 141    6.0298572390573e-05
 142    8.8946872070792e-05
 143    4.8278472736082e-05
 144    -1.7742910004383e-05
 145    -0.0020421032509111
 146    0.00011459950426822
 147    0.00010256370793768
 148    0.00035008088646648
 149    -0.0027035309363902
 150    0.0016675884584559
 151    -0.0022110117413951
 152    8.412262564406e-05
 153    -3.3536245104526e-05
 154    -4.2113800292029e-05
 155    -5.4187831912932e-05
 156    5.2717734033518e-05
 157    1.3364089484521e-05
 158    0.00018981449058067
 159    -0.0015859603279417
 160    4.7814356124857e-05
 161    -9.8254137911247e-07
 162    -8.8059063280087e-05
 163    2.116370580032e-06
 164    0.00099331591114082
 165    0.00026458401192466
 166    2.2864148762994e-05
 167    -6.560188268253e-07
 168    1.439192094715e-06
 169    5.4183291438086e-05
 170    -7.4455108088078e-06
 171    1.1972910448142e-05
 172    -0.00024347246197897
 173    0.0003422124859411
 174    -1.5794164545935e-05
 175    1.2731513616881e-05
 176    0.00031418997748141
 177    0.00041554173968523
 178    -0.00076111570311876
 179    -9.5339586458438e-05
 180    4.1160260292352e-06
 181    5.3635420086567e-05
 182    1.9378706937773e-05
 183    3.3715914078429e-05
 184    -8.2235465640166e-06
 185    -5.9275426860904e-06
 186    7.2727998070111e-06
 187    0.0017478084607102
 188    2.3556272311772e-05
 189    -4.8306468545941e-05
 190    -0.00022826391445487
 191    -0.00093990336669153
 192    -0.00045607656210831
 193    -0.00049423119515283
 194    2.5167571574719e-05
 195    3.6064451289763e-05
 196    2.828355133224e-05
 197    -5.7878972409506e-06
 198    2.1321207187749e-05
 199    -1.7223195252822e-05
 200    0.00031842412288788
 201    -8.3249987663061e-05
 202    -0.00038666693877857
 203    0.00022216032439063
 204    0.00082762688951316
 205    -0.00021108147755137
 206    -0.00019051841644514
 207    0.00015913912938772
 208    -0.00085113158642835
 209    0.00012695472143024
 210    0.00021632655248326
 211    4.3407791628263e-05
 212    -9.5727239986652e-05
 213    -1.46287064423e-05
 214    -0.00027819611814198
 215    -5.3962499265358e-05
 216    -0.00066986461696635
 217     7.23836857117e-05
 218    0.00047120155416353
 219    -9.3561986991965e-06
 220    -0.00048817762017446
 221    0.0011237166733739
 222    -0.0027258584793509
 223     0.024989912631256
 224    -0.0012519676617667
 225    -0.0015134801318201
 226    0.0027397624429891
 227     0.017634516003369
 228     0.001710394350188
 229    0.0087869758700692
 230    0.00016461057110512
 231    -0.00016257318921628
 232    -0.00016706022422574
 233    0.00018480575060637
 234    0.00017621631170203
 235    -0.0079975909626321
 236     0.041682733310019
 237     0.019836577568295
 238    0.0067841508960506
 239     0.011378930884117
 240    -0.047132260177749
 241    0.0073924734975418
 242    0.0082841635318961
 243    -0.030758621690523
 244    0.0063279883771796
 245    0.0019289336879012
 246    -0.001975942239481
 247    0.00088029670840457
 248    0.00020158467636386
 249    0.00086249077747609
 250    0.0087326827195215
 251    0.0012452540417129
 252       0.2917292669427
 253      0.18745726756205
 254     0.077622757071054
 255     0.050436432999486
 256     -0.14689410668343
 257    -0.012854936798179
 258    0.0070436475662113
 259     -0.04855689906012
 260    0.0036453606079589
 261    -0.0050951100290821
 262    -0.0042561456247018
 263    0.0073762312168019
 264    0.0053595308662492
 265     0.011370398548424
 266    0.0016054139804159
 267     0.062922812173358
 268    -0.0050887854356852
 269    0.0010891172542885
 270     0.043570823777309
 271     0.028935155851228
 272    -0.012293018334747
 273    -0.0044004860941879
 274       0.0202070563886
 275    -0.0022302959713527
 276    0.0051435728092985
 277    0.0080166685907266
 278    0.00055579626585285
 279    -0.0012922592603989
 280    -0.00047091434085614
 281    -0.00045053143696768
 282    0.0011123687552828
 283    -0.0014914187763007
 284    0.0071607504534939