[Molden Format]
made by pyscf v[2.0.1]
[Atoms] (AU)
C   1   6     0.69100024066471     0.64692934207205    -3.48223131169301
H   2   1     2.68052439830868     1.13355088658700    -3.25784032593313
C   3   6    -0.36286361513219     0.85440132524594    -5.97030179418974
H   4   1    -2.35448549047279     0.36322488579172    -6.17995817793143
C   5   6     0.93697958957450     1.61209284601821    -8.05828437677121
H   6   1     0.14022243979667     3.08603065646166    -9.25562650474843
C   7   6     3.33155915073320     0.56926267114995    -8.78956929307971
H   8   1     4.10661901770469    -0.90506612570738    -7.57081623325171
H   9   1     1.55630230933075    -1.92953025305990    12.99630010416247
C   10   6     0.75233899775814    -2.21270439606481    11.10705728102219
H   11   1    -0.43433408177274    -3.90944857546550    11.22216085340412
C   12   6     2.86362581178706    -2.63237380607947     9.17926416456045
H   13   1     4.39038949912609    -1.24955421540245     9.49899813497433
H   14   1     3.74629220191363    -4.48798724300892     9.47414880959024
C   15   6     2.02478325613682    -2.42177285709634     6.44560829588644
C   16   6     3.88048732735477    -3.58795445234514     4.61402886975252
C   17   6    -0.18412382258602    -1.30464291234259     5.76021113872346
C   18   6    -2.10044360464350    -0.26837831858460     7.71610340967100
C   19   6    -3.08956938670431     2.35282328359417     6.88693925039594
C   20   6    -4.37372924086464    -2.09766595989678     7.93610724222001
C   21   6    -0.83850430601230     0.06372213486173    10.33002307638377
H   22   1     0.38411922151109     1.74281358582432    10.27380136542181
H   23   1    -2.30980003007874     0.45460143924521    11.73986301809809
H   24   1     4.58527064644668    -5.38706904487420     5.36778158031719
H   25   1     5.54944938085014    -2.37631462192748     4.35398898413318
H   26   1     3.06633019150423    -3.94118377050688     2.75255466040884
H   27   1    -4.17727778763735     2.26573369139522     5.12914900961283
H   28   1    -1.52662344944051     3.68001877445626     6.59540397144508
H   29   1    -4.32916174397830     3.13643051467482     8.35225460090378
H   30   1    -5.32329548508442    -2.36691813602939     6.11583672749896
H   31   1    -5.77989366602257    -1.33896741843465     9.25748940450990
H   32   1    -3.79310905208926    -3.96389819310853     8.61386170102686
C   33   6    -1.01100794811226    -1.06331657314144     3.11929490449947
C   34   6     0.37686231036534    -0.33275864505552     1.09165013605873
H   35   1    -3.01671213906703    -1.40297922279997     2.77827895090944
C   36   6    -0.64382707979370    -0.11591880174385    -1.42063131251064
H   37   1     2.35569259782137     0.17174499283897     1.33641070251401
H   38   1    -2.63317482980319    -0.60229203511219    -1.66119700387645
C   39   6     4.69106502259275     1.26188352336463   -10.85081981009206
C   40   6     7.11506387067225     0.08270412537969   -11.43459041306820
H   41   1     4.02727424636240     2.71762167762249   -12.14232148362751
O   42   8     8.43283181269616     0.61123359193353   -13.25254761350674
H   43   1     7.72125158488297    -1.39686243822724   -10.06214800755086
[GTO]
1 0
 s    6 1.00
             3047.5249  0.0018347001629433
             457.36951    0.01403730124668
             103.94869   0.068842606114048
             29.210155    0.23218442062076
              9.286663    0.46794134155879
              3.163927    0.36231203217765
 s    3 1.00
             7.8682724   -0.11933240861517
             1.8812885   -0.16085421161283
             0.5442493     1.1434564825515
 s    1 1.00
             0.1687144                   1
 p    3 1.00
             7.8682724   0.068999095584993
             1.8812885    0.31642397975315
             0.5442493    0.74430825237435
 p    1 1.00
             0.1687144                   1
 d    1 1.00
                   0.8                   1

2 0
 s    3 1.00
             18.731137    0.03349459952309
             2.8253937    0.23472694665786
             0.6401217    0.81375731841339
 s    1 1.00
             0.1612778                   1

3 0
 s    6 1.00
             3047.5249  0.0018347001629433
             457.36951    0.01403730124668
             103.94869   0.068842606114048
             29.210155    0.23218442062076
              9.286663    0.46794134155879
              3.163927    0.36231203217765
 s    3 1.00
             7.8682724   -0.11933240861517
             1.8812885   -0.16085421161283
             0.5442493     1.1434564825515
 s    1 1.00
             0.1687144                   1
 p    3 1.00
             7.8682724   0.068999095584993
             1.8812885    0.31642397975315
             0.5442493    0.74430825237435
 p    1 1.00
             0.1687144                   1
 d    1 1.00
                   0.8                   1

4 0
 s    3 1.00
             18.731137    0.03349459952309
             2.8253937    0.23472694665786
             0.6401217    0.81375731841339
 s    1 1.00
             0.1612778                   1

5 0
 s    6 1.00
             3047.5249  0.0018347001629433
             457.36951    0.01403730124668
             103.94869   0.068842606114048
             29.210155    0.23218442062076
              9.286663    0.46794134155879
              3.163927    0.36231203217765
 s    3 1.00
             7.8682724   -0.11933240861517
             1.8812885   -0.16085421161283
             0.5442493     1.1434564825515
 s    1 1.00
             0.1687144                   1
 p    3 1.00
             7.8682724   0.068999095584993
             1.8812885    0.31642397975315
             0.5442493    0.74430825237435
 p    1 1.00
             0.1687144                   1
 d    1 1.00
                   0.8                   1

6 0
 s    3 1.00
             18.731137    0.03349459952309
             2.8253937    0.23472694665786
             0.6401217    0.81375731841339
 s    1 1.00
             0.1612778                   1

7 0
 s    6 1.00
             3047.5249  0.0018347001629433
             457.36951    0.01403730124668
             103.94869   0.068842606114048
             29.210155    0.23218442062076
              9.286663    0.46794134155879
              3.163927    0.36231203217765
 s    3 1.00
             7.8682724   -0.11933240861517
             1.8812885   -0.16085421161283
             0.5442493     1.1434564825515
 s    1 1.00
             0.1687144                   1
 p    3 1.00
             7.8682724   0.068999095584993
             1.8812885    0.31642397975315
             0.5442493    0.74430825237435
 p    1 1.00
             0.1687144                   1
 d    1 1.00
                   0.8                   1

8 0
 s    3 1.00
             18.731137    0.03349459952309
             2.8253937    0.23472694665786
             0.6401217    0.81375731841339
 s    1 1.00
             0.1612778                   1

9 0
 s    3 1.00
             18.731137    0.03349459952309
             2.8253937    0.23472694665786
             0.6401217    0.81375731841339
 s    1 1.00
             0.1612778                   1

10 0
 s    6 1.00
             3047.5249  0.0018347001629433
             457.36951    0.01403730124668
             103.94869   0.068842606114048
             29.210155    0.23218442062076
              9.286663    0.46794134155879
              3.163927    0.36231203217765
 s    3 1.00
             7.8682724   -0.11933240861517
             1.8812885   -0.16085421161283
             0.5442493     1.1434564825515
 s    1 1.00
             0.1687144                   1
 p    3 1.00
             7.8682724   0.068999095584993
             1.8812885    0.31642397975315
             0.5442493    0.74430825237435
 p    1 1.00
             0.1687144                   1
 d    1 1.00
                   0.8                   1

11 0
 s    3 1.00
             18.731137    0.03349459952309
             2.8253937    0.23472694665786
             0.6401217    0.81375731841339
 s    1 1.00
             0.1612778                   1

12 0
 s    6 1.00
             3047.5249  0.0018347001629433
             457.36951    0.01403730124668
             103.94869   0.068842606114048
             29.210155    0.23218442062076
              9.286663    0.46794134155879
              3.163927    0.36231203217765
 s    3 1.00
             7.8682724   -0.11933240861517
             1.8812885   -0.16085421161283
             0.5442493     1.1434564825515
 s    1 1.00
             0.1687144                   1
 p    3 1.00
             7.8682724   0.068999095584993
             1.8812885    0.31642397975315
             0.5442493    0.74430825237435
 p    1 1.00
             0.1687144                   1
 d    1 1.00
                   0.8                   1

13 0
 s    3 1.00
             18.731137    0.03349459952309
             2.8253937    0.23472694665786
             0.6401217    0.81375731841339
 s    1 1.00
             0.1612778                   1

14 0
 s    3 1.00
             18.731137    0.03349459952309
             2.8253937    0.23472694665786
             0.6401217    0.81375731841339
 s    1 1.00
             0.1612778                   1

15 0
 s    6 1.00
             3047.5249  0.0018347001629433
             457.36951    0.01403730124668
             103.94869   0.068842606114048
             29.210155    0.23218442062076
              9.286663    0.46794134155879
              3.163927    0.36231203217765
 s    3 1.00
             7.8682724   -0.11933240861517
             1.8812885   -0.16085421161283
             0.5442493     1.1434564825515
 s    1 1.00
             0.1687144                   1
 p    3 1.00
             7.8682724   0.068999095584993
             1.8812885    0.31642397975315
             0.5442493    0.74430825237435
 p    1 1.00
             0.1687144                   1
 d    1 1.00
                   0.8                   1

16 0
 s    6 1.00
             3047.5249  0.0018347001629433
             457.36951    0.01403730124668
             103.94869   0.068842606114048
             29.210155    0.23218442062076
              9.286663    0.46794134155879
              3.163927    0.36231203217765
 s    3 1.00
             7.8682724   -0.11933240861517
             1.8812885   -0.16085421161283
             0.5442493     1.1434564825515
 s    1 1.00
             0.1687144                   1
 p    3 1.00
             7.8682724   0.068999095584993
             1.8812885    0.31642397975315
             0.5442493    0.74430825237435
 p    1 1.00
             0.1687144                   1
 d    1 1.00
                   0.8                   1

17 0
 s    6 1.00
             3047.5249  0.0018347001629433
             457.36951    0.01403730124668
             103.94869   0.068842606114048
             29.210155    0.23218442062076
              9.286663    0.46794134155879
              3.163927    0.36231203217765
 s    3 1.00
             7.8682724   -0.11933240861517
             1.8812885   -0.16085421161283
             0.5442493     1.1434564825515
 s    1 1.00
             0.1687144                   1
 p    3 1.00
             7.8682724   0.068999095584993
             1.8812885    0.31642397975315
             0.5442493    0.74430825237435
 p    1 1.00
             0.1687144                   1
 d    1 1.00
                   0.8                   1

18 0
 s    6 1.00
             3047.5249  0.0018347001629433
             457.36951    0.01403730124668
             103.94869   0.068842606114048
             29.210155    0.23218442062076
              9.286663    0.46794134155879
              3.163927    0.36231203217765
 s    3 1.00
             7.8682724   -0.11933240861517
             1.8812885   -0.16085421161283
             0.5442493     1.1434564825515
 s    1 1.00
             0.1687144                   1
 p    3 1.00
             7.8682724   0.068999095584993
             1.8812885    0.31642397975315
             0.5442493    0.74430825237435
 p    1 1.00
             0.1687144                   1
 d    1 1.00
                   0.8                   1

19 0
 s    6 1.00
             3047.5249  0.0018347001629433
             457.36951    0.01403730124668
             103.94869   0.068842606114048
             29.210155    0.23218442062076
              9.286663    0.46794134155879
              3.163927    0.36231203217765
 s    3 1.00
             7.8682724   -0.11933240861517
             1.8812885   -0.16085421161283
             0.5442493     1.1434564825515
 s    1 1.00
             0.1687144                   1
 p    3 1.00
             7.8682724   0.068999095584993
             1.8812885    0.31642397975315
             0.5442493    0.74430825237435
 p    1 1.00
             0.1687144                   1
 d    1 1.00
                   0.8                   1

20 0
 s    6 1.00
             3047.5249  0.0018347001629433
             457.36951    0.01403730124668
             103.94869   0.068842606114048
             29.210155    0.23218442062076
              9.286663    0.46794134155879
              3.163927    0.36231203217765
 s    3 1.00
             7.8682724   -0.11933240861517
             1.8812885   -0.16085421161283
             0.5442493     1.1434564825515
 s    1 1.00
             0.1687144                   1
 p    3 1.00
             7.8682724   0.068999095584993
             1.8812885    0.31642397975315
             0.5442493    0.74430825237435
 p    1 1.00
             0.1687144                   1
 d    1 1.00
                   0.8                   1

21 0
 s    6 1.00
             3047.5249  0.0018347001629433
             457.36951    0.01403730124668
             103.94869   0.068842606114048
             29.210155    0.23218442062076
              9.286663    0.46794134155879
              3.163927    0.36231203217765
 s    3 1.00
             7.8682724   -0.11933240861517
             1.8812885   -0.16085421161283
             0.5442493     1.1434564825515
 s    1 1.00
             0.1687144                   1
 p    3 1.00
             7.8682724   0.068999095584993
             1.8812885    0.31642397975315
             0.5442493    0.74430825237435
 p    1 1.00
             0.1687144                   1
 d    1 1.00
                   0.8                   1

22 0
 s    3 1.00
             18.731137    0.03349459952309
             2.8253937    0.23472694665786
             0.6401217    0.81375731841339
 s    1 1.00
             0.1612778                   1

23 0
 s    3 1.00
             18.731137    0.03349459952309
             2.8253937    0.23472694665786
             0.6401217    0.81375731841339
 s    1 1.00
             0.1612778                   1

24 0
 s    3 1.00
             18.731137    0.03349459952309
             2.8253937    0.23472694665786
             0.6401217    0.81375731841339
 s    1 1.00
             0.1612778                   1

25 0
 s    3 1.00
             18.731137    0.03349459952309
             2.8253937    0.23472694665786
             0.6401217    0.81375731841339
 s    1 1.00
             0.1612778                   1

26 0
 s    3 1.00
             18.731137    0.03349459952309
             2.8253937    0.23472694665786
             0.6401217    0.81375731841339
 s    1 1.00
             0.1612778                   1

27 0
 s    3 1.00
             18.731137    0.03349459952309
             2.8253937    0.23472694665786
             0.6401217    0.81375731841339
 s    1 1.00
             0.1612778                   1

28 0
 s    3 1.00
             18.731137    0.03349459952309
             2.8253937    0.23472694665786
             0.6401217    0.81375731841339
 s    1 1.00
             0.1612778                   1

29 0
 s    3 1.00
             18.731137    0.03349459952309
             2.8253937    0.23472694665786
             0.6401217    0.81375731841339
 s    1 1.00
             0.1612778                   1

30 0
 s    3 1.00
             18.731137    0.03349459952309
             2.8253937    0.23472694665786
             0.6401217    0.81375731841339
 s    1 1.00
             0.1612778                   1

31 0
 s    3 1.00
             18.731137    0.03349459952309
             2.8253937    0.23472694665786
             0.6401217    0.81375731841339
 s    1 1.00
             0.1612778                   1

32 0
 s    3 1.00
             18.731137    0.03349459952309
             2.8253937    0.23472694665786
             0.6401217    0.81375731841339
 s    1 1.00
             0.1612778                   1

33 0
 s    6 1.00
             3047.5249  0.0018347001629433
             457.36951    0.01403730124668
             103.94869   0.068842606114048
             29.210155    0.23218442062076
              9.286663    0.46794134155879
              3.163927    0.36231203217765
 s    3 1.00
             7.8682724   -0.11933240861517
             1.8812885   -0.16085421161283
             0.5442493     1.1434564825515
 s    1 1.00
             0.1687144                   1
 p    3 1.00
             7.8682724   0.068999095584993
             1.8812885    0.31642397975315
             0.5442493    0.74430825237435
 p    1 1.00
             0.1687144                   1
 d    1 1.00
                   0.8                   1

34 0
 s    6 1.00
             3047.5249  0.0018347001629433
             457.36951    0.01403730124668
             103.94869   0.068842606114048
             29.210155    0.23218442062076
              9.286663    0.46794134155879
              3.163927    0.36231203217765
 s    3 1.00
             7.8682724   -0.11933240861517
             1.8812885   -0.16085421161283
             0.5442493     1.1434564825515
 s    1 1.00
             0.1687144                   1
 p    3 1.00
             7.8682724   0.068999095584993
             1.8812885    0.31642397975315
             0.5442493    0.74430825237435
 p    1 1.00
             0.1687144                   1
 d    1 1.00
                   0.8                   1

35 0
 s    3 1.00
             18.731137    0.03349459952309
             2.8253937    0.23472694665786
             0.6401217    0.81375731841339
 s    1 1.00
             0.1612778                   1

36 0
 s    6 1.00
             3047.5249  0.0018347001629433
             457.36951    0.01403730124668
             103.94869   0.068842606114048
             29.210155    0.23218442062076
              9.286663    0.46794134155879
              3.163927    0.36231203217765
 s    3 1.00
             7.8682724   -0.11933240861517
             1.8812885   -0.16085421161283
             0.5442493     1.1434564825515
 s    1 1.00
             0.1687144                   1
 p    3 1.00
             7.8682724   0.068999095584993
             1.8812885    0.31642397975315
             0.5442493    0.74430825237435
 p    1 1.00
             0.1687144                   1
 d    1 1.00
                   0.8                   1

37 0
 s    3 1.00
             18.731137    0.03349459952309
             2.8253937    0.23472694665786
             0.6401217    0.81375731841339
 s    1 1.00
             0.1612778                   1

38 0
 s    3 1.00
             18.731137    0.03349459952309
             2.8253937    0.23472694665786
             0.6401217    0.81375731841339
 s    1 1.00
             0.1612778                   1

39 0
 s    6 1.00
             3047.5249  0.0018347001629433
             457.36951    0.01403730124668
             103.94869   0.068842606114048
             29.210155    0.23218442062076
              9.286663    0.46794134155879
              3.163927    0.36231203217765
 s    3 1.00
             7.8682724   -0.11933240861517
             1.8812885   -0.16085421161283
             0.5442493     1.1434564825515
 s    1 1.00
             0.1687144                   1
 p    3 1.00
             7.8682724   0.068999095584993
             1.8812885    0.31642397975315
             0.5442493    0.74430825237435
 p    1 1.00
             0.1687144                   1
 d    1 1.00
                   0.8                   1

40 0
 s    6 1.00
             3047.5249  0.0018347001629433
             457.36951    0.01403730124668
             103.94869   0.068842606114048
             29.210155    0.23218442062076
              9.286663    0.46794134155879
              3.163927    0.36231203217765
 s    3 1.00
             7.8682724   -0.11933240861517
             1.8812885   -0.16085421161283
             0.5442493     1.1434564825515
 s    1 1.00
             0.1687144                   1
 p    3 1.00
             7.8682724   0.068999095584993
             1.8812885    0.31642397975315
             0.5442493    0.74430825237435
 p    1 1.00
             0.1687144                   1
 d    1 1.00
                   0.8                   1

41 0
 s    3 1.00
             18.731137    0.03349459952309
             2.8253937    0.23472694665786
             0.6401217    0.81375731841339
 s    1 1.00
             0.1612778                   1

42 0
 s    6 1.00
             5484.6717   0.001831099805527
             825.23495   0.013950098518422
             188.04696    0.06844509273075
               52.9645    0.23271427528445
              16.89757    0.47019295006289
             5.7996353    0.35852086192309
 s    3 1.00
             15.539616   -0.11077750382508
             3.5999336   -0.14802630511126
             1.0137618     1.1307670390447
 s    1 1.00
             0.2700058                   1
 p    3 1.00
             15.539616   0.070874299543311
             3.5999336    0.33975279781076
             1.0137618    0.72715859531445
 p    1 1.00
             0.2700058                   1
 d    1 1.00
                   0.8                   1

43 0
 s    3 1.00
             18.731137    0.03349459952309
             2.8253937    0.23472694665786
             0.6401217    0.81375731841339
 s    1 1.00
             0.1612778                   1

[5d]
[7f]
[9g]

[MO]
 Sym= A
 Ene=               0
 Spin= Alpha
 Occup=    1.00000
   1    -0.0025549551545542
   2     -0.29436143965406
   3     -0.19719197452575
   4      0.07610071469709
   5     0.048511464228659
   6     -0.14529346795791
   7    -0.011323505849652
   8    0.0073121386321425
   9    -0.049848322135352
  10    -0.0036976018647399
  11    0.0050204436148761
  12    0.0045589422937407
  13    -0.0075629438338281
  14    -0.005400631904116
  15    -0.064928745339667
  16    0.0034836426598839
  17    0.0083261871191732
  18    -0.044716627019145
  19    -0.019187327065002
  20    0.0072855304781976
  21      0.01117488446779
  22    -0.051196915773469
  23     0.011856989604652
  24    0.0083926780558468
  25    -0.028184497917664
  26    -0.0064825254104502
  27    -0.0022032317946458
  28    0.0018666025827237
  29    -0.00091990119970326
  30    -0.00015946964779278
  31    -0.012415219000701
  32    0.00016012401205048
  33    -0.00042934374667635
  34    -0.0025885125567889
  35    -0.019018990241592
  36    -0.0052980494000892
  37    -0.00040804356797509
  38    0.0082089243307051
  39    0.0087072379398077
  40    0.0029149353366078
  41    -0.0031690854506149
  42    0.00029585332732766
  43    0.00092153748407715
  44    0.00014568704101994
  45    -0.00064564744881359
  46    0.00028245026352159
  47    -0.0015706933936278
  48    0.00060057284824206
  49    -2.47294285751e-05
  50    -0.038643605600274
  51    -0.034668308345844
  52    -0.014128424962159
  53    -0.0043987020270347
  54     0.015498766345756
  55    -0.0081869178158727
  56    -0.002734506639171
  57    0.0059389779098719
  58    -0.00056407531319619
  59    0.00074269245249372
  60    0.0012558263756156
  61    -8.7506757765075e-05
  62    0.00028634225799653
  63    -0.0099863888143531
  64    -0.0018456412501813
  65    -4.1369066593955e-05
  66    -4.8646234737572e-05
  67    -2.3762186055147e-05
  68    -7.3236073598462e-06
  69    0.00044511934534358
  70    5.3780832902749e-05
  71    -4.0074739936844e-06
  72    -3.6867987962519e-05
  73    -0.00020904322655211
  74    -0.00046298713855318
  75    -0.00023004720484227
  76    -2.858399718706e-05
  77    -1.4801346816224e-05
  78    1.0666573170424e-05
  79    7.1600228359229e-06
  80    -1.2343607167277e-05
  81    -1.4276174872204e-05
  82    -0.00039895141580267
  83    1.2714739282494e-05
  84    -0.00012752114608281
  85    -0.0011211605614279
  86    0.00011930204243574
  87    -0.00011682003654596
  88    0.00026021295057669
  89    0.00042785027472235
  90    0.00047617968745703
  91    0.00042981468564389
  92    1.2769694681552e-05
  93    -4.1523293800111e-05
  94    -5.4352235875648e-06
  95    -1.9871475888243e-06
  96    -3.9933275277759e-06
  97    -6.0005709784215e-05
  98    -0.00032073807802745
  99    0.00011046444960607
 100    0.00025016515174066
 101    -5.5614668053098e-05
 102    3.5582886518652e-06
 103    0.0009761614031874
 104    0.00030669422463732
 105    0.00023659073047888
 106    -0.00039080426586784
 107    -0.0025201511623418
 108     0.001127409081186
 109    0.0031978875149503
 110    -3.5298733867258e-05
 111    -7.8893392765312e-05
 112    2.6433903620926e-05
 113    5.9548859120932e-05
 114    -3.1327111988253e-05
 115    -7.7628107805932e-05
 116    0.00019061199009846
 117    0.0021877662015173
 118    -0.00011512005281549
 119    0.00034039775148848
 120    -3.3585621948254e-05
 121    -0.00050063092385859
 122    0.00019913337082825
 123    0.0016210135559777
 124    -1.1872316856114e-05
 125    -3.6531779197189e-05
 126    6.2193378864619e-05
 127    -9.9855889347329e-06
 128    -2.6919969471471e-05
 129    -2.830967678475e-05
 130    -0.0006436349915626
 131      0.01214296475452
 132    0.00010248779390915
 133    7.5294826120317e-05
 134    0.00056195055907095
 135    -0.001741826713201
 136    0.0012541422203799
 137    -0.013021339147599
 138    0.00040230743721404
 139    -9.2127624229092e-05
 140    -9.6435118979755e-05
 141    -4.3362785124186e-05
 142    -6.1927520869574e-05
 143    -8.3108344758937e-05
 144    7.9562490102551e-05
 145     0.002354831559036
 146    -2.0587674141165e-05
 147    -0.00012387724103224
 148    -0.00049466999120204
 149    0.0028750189763792
 150    -0.0016015085835618
 151     0.002090986446389
 152    -9.2308574387653e-05
 153    3.1196370852988e-05
 154    4.3749538323014e-05
 155    5.5479992645958e-05
 156    -5.6490634538202e-05
 157    -3.2881876965771e-05
 158    -0.00013522457906295
 159    0.0016317966819865
 160    -6.1463687521391e-05
 161    -1.5970146660495e-05
 162    1.4408617543354e-05
 163    -0.0001004648693856
 164    -0.00093016368614212
 165    -0.00028124050720081
 166    -2.8912950753116e-05
 167    8.4490217373898e-06
 168    -5.3520488931067e-06
 169    -5.3194785200738e-05
 170    7.6389184407881e-06
 171    -1.1039450623632e-05
 172    0.0002324496138544
 173    -0.00027110336628901
 174    1.8207865377283e-06
 175    -2.7484951838982e-05
 176    -0.00029755747469186
 177    -0.00039778156283462
 178    0.00073760509497043
 179    9.3296839280611e-05
 180    -5.2833395328887e-06
 181    -6.0594171089466e-05
 182    -2.0820557707041e-05
 183    -3.1676002854656e-05
 184    8.0403059023804e-06
 185    1.4061157224495e-05
 186    -3.3898750789138e-05
 187    -0.0017656688275722
 188    -1.5232255943211e-05
 189    5.5368058471409e-05
 190    0.00029596346571701
 191    0.0010190747274695
 192    0.00040858562776287
 193    0.00054842599477812
 194    -2.1215780737992e-05
 195    -4.3526819320946e-05
 196    -2.5474111916808e-05
 197    6.7575555095701e-06
 198    -2.4754769759907e-05
 199    -2.9821033530879e-06
 200    -0.00035165864074842
 201    0.00013299404784239
 202    0.00050946474695643
 203    -0.00015319623067641
 204    -0.00066072403956726
 205    0.00011897423747877
 206    9.3947025990468e-06
 207    -0.00013937681050849
 208    0.00099743043230113
 209    -9.3879740001759e-05
 210    -0.00023550926248116
 211    -3.4773504447957e-05
 212    7.9673419299493e-05
 213    -2.0135868074824e-05
 214    0.00017280352013004
 215    3.1457585817113e-05
 216    0.00062792297382648
 217    -4.7638947418491e-05
 218    -0.0004117300248143
 219    6.6957879968409e-06
 220    0.0004501302019245
 221    -0.0011296118649792
 222     0.002754046851812
 223    -0.025382661927029
 224    0.0015111975965156
 225    0.00059933411599728
 226    -0.0029294701866981
 227    -0.017564560664426
 228    -0.0026580062223533
 229    -0.0090275794740629
 230    -0.00017132386339845
 231    0.00016443422051017
 232    0.0001565107599194
 233    -0.00018718510588049
 234    -0.00017608045317724
 235    0.0080586156389819
 236    -0.041956932876275
 237    -0.019996277443124
 238    -0.0070138281569622
 239    -0.010895537254411
 240      0.04751971764361
 241    -0.0077993175359497
 242    -0.0077521184502603
 243     0.031224686307404
 244    -0.0063936095092987
 245    -0.0019068496983917
 246    0.0018779720751012
 247    -0.0008899753391814
 248    -0.00023409906737322
 249    -0.00090120214169434
 250    -0.0087553875356514
 251    -0.0012092101885488
 252     -0.29236634273357
 253     -0.18722314333088
 254    -0.078335234977872
 255    -0.049752293271757
 256      0.14716743780093
 257     0.012825379180023
 258    -0.0058376536671481
 259     0.048501601648739
 260    -0.0035114765299489
 261    0.0049068020903169
 262    0.0046026324046836
 263    -0.0071520262657578
 264    -0.0056184365633225
 265    -0.011464005706756
 266    -0.0015467677658093
 267    -0.062833645508369
 268    0.0054594791942987
 269    -0.00061578745794033
 270    -0.037730491271958
 271    -0.016827947383101
 272     0.010107509246372
 273    0.0045499948395822
 274    -0.017989141555358
 275    0.0041599760057948
 276    -0.0042891363809691
 277    0.00014742298567768
 278    -0.00057112709497583
 279    0.00072847603663446
 280    0.0011781715937402
 281    -8.311474285406e-05
 282    0.00023057762320541
 283    0.0015614898956763