[Molden Format]
made by pyscf v[2.0.1]
[Atoms] (AU)
C   1   6     0.69100024066471     0.64692934207205    -3.48223131169301
H   2   1     2.68052439830868     1.13355088658700    -3.25784032593313
C   3   6    -0.36286361513219     0.85440132524594    -5.97030179418974
H   4   1    -2.35448549047279     0.36322488579172    -6.17995817793143
C   5   6     0.93697958957450     1.61209284601821    -8.05828437677121
H   6   1     0.91018176739439     3.60165715372829    -8.58918788754706
C   7   6     2.36275315943078    -0.07897264779665    -9.62791837868890
H   8   1     2.37293254336653    -2.06644965927173    -9.07154285055885
H   9   1     1.55630230933075    -1.92953025305990    12.99630010416247
C   10   6     0.75233899775814    -2.21270439606481    11.10705728102219
H   11   1    -0.43433408177274    -3.90944857546550    11.22216085340412
C   12   6     2.86362581178706    -2.63237380607947     9.17926416456045
H   13   1     4.39038949912609    -1.24955421540245     9.49899813497433
H   14   1     3.74629220191363    -4.48798724300892     9.47414880959024
C   15   6     2.02478325613682    -2.42177285709634     6.44560829588644
C   16   6     3.88048732735477    -3.58795445234514     4.61402886975252
C   17   6    -0.18412382258602    -1.30464291234259     5.76021113872346
C   18   6    -2.10044360464350    -0.26837831858460     7.71610340967100
C   19   6    -3.08956938670431     2.35282328359417     6.88693925039594
C   20   6    -4.37372924086464    -2.09766595989678     7.93610724222001
C   21   6    -0.83850430601230     0.06372213486173    10.33002307638377
H   22   1     0.38411922151109     1.74281358582432    10.27380136542181
H   23   1    -2.30980003007874     0.45460143924521    11.73986301809809
H   24   1     4.58527064644668    -5.38706904487420     5.36778158031719
H   25   1     5.54944938085014    -2.37631462192748     4.35398898413318
H   26   1     3.06633019150423    -3.94118377050688     2.75255466040884
H   27   1    -4.17727778763735     2.26573369139522     5.12914900961283
H   28   1    -1.52662344944051     3.68001877445626     6.59540397144508
H   29   1    -4.32916174397830     3.13643051467482     8.35225460090378
H   30   1    -5.32329548508442    -2.36691813602939     6.11583672749896
H   31   1    -5.77989366602257    -1.33896741843465     9.25748940450990
H   32   1    -3.79310905208926    -3.96389819310853     8.61386170102686
C   33   6    -1.01100794811226    -1.06331657314144     3.11929490449947
C   34   6     0.37686231036534    -0.33275864505552     1.09165013605873
H   35   1    -3.01671213906703    -1.40297922279997     2.77827895090944
C   36   6    -0.64382707979370    -0.11591880174385    -1.42063131251064
H   37   1     2.35569259782137     0.17174499283897     1.33641070251401
H   38   1    -2.63317482980319    -0.60229203511219    -1.66119700387645
C   39   6     3.68212070775393     0.58885978377309   -11.72315169981470
C   40   6     5.07620914500435    -1.27889558400184   -13.19794995736473
H   41   1     3.74999971153331     2.53578027550937   -12.38092170581109
O   42   8     6.29809885748056    -0.81150016580158   -15.09777920785750
H   43   1     4.95468191731404    -3.24735743289555   -12.45594726186437
[GTO]
1 0
 s    6 1.00
             3047.5249  0.0018347001629433
             457.36951    0.01403730124668
             103.94869   0.068842606114048
             29.210155    0.23218442062076
              9.286663    0.46794134155879
              3.163927    0.36231203217765
 s    3 1.00
             7.8682724   -0.11933240861517
             1.8812885   -0.16085421161283
             0.5442493     1.1434564825515
 s    1 1.00
             0.1687144                   1
 p    3 1.00
             7.8682724   0.068999095584993
             1.8812885    0.31642397975315
             0.5442493    0.74430825237435
 p    1 1.00
             0.1687144                   1
 d    1 1.00
                   0.8                   1

2 0
 s    3 1.00
             18.731137    0.03349459952309
             2.8253937    0.23472694665786
             0.6401217    0.81375731841339
 s    1 1.00
             0.1612778                   1

3 0
 s    6 1.00
             3047.5249  0.0018347001629433
             457.36951    0.01403730124668
             103.94869   0.068842606114048
             29.210155    0.23218442062076
              9.286663    0.46794134155879
              3.163927    0.36231203217765
 s    3 1.00
             7.8682724   -0.11933240861517
             1.8812885   -0.16085421161283
             0.5442493     1.1434564825515
 s    1 1.00
             0.1687144                   1
 p    3 1.00
             7.8682724   0.068999095584993
             1.8812885    0.31642397975315
             0.5442493    0.74430825237435
 p    1 1.00
             0.1687144                   1
 d    1 1.00
                   0.8                   1

4 0
 s    3 1.00
             18.731137    0.03349459952309
             2.8253937    0.23472694665786
             0.6401217    0.81375731841339
 s    1 1.00
             0.1612778                   1

5 0
 s    6 1.00
             3047.5249  0.0018347001629433
             457.36951    0.01403730124668
             103.94869   0.068842606114048
             29.210155    0.23218442062076
              9.286663    0.46794134155879
              3.163927    0.36231203217765
 s    3 1.00
             7.8682724   -0.11933240861517
             1.8812885   -0.16085421161283
             0.5442493     1.1434564825515
 s    1 1.00
             0.1687144                   1
 p    3 1.00
             7.8682724   0.068999095584993
             1.8812885    0.31642397975315
             0.5442493    0.74430825237435
 p    1 1.00
             0.1687144                   1
 d    1 1.00
                   0.8                   1

6 0
 s    3 1.00
             18.731137    0.03349459952309
             2.8253937    0.23472694665786
             0.6401217    0.81375731841339
 s    1 1.00
             0.1612778                   1

7 0
 s    6 1.00
             3047.5249  0.0018347001629433
             457.36951    0.01403730124668
             103.94869   0.068842606114048
             29.210155    0.23218442062076
              9.286663    0.46794134155879
              3.163927    0.36231203217765
 s    3 1.00
             7.8682724   -0.11933240861517
             1.8812885   -0.16085421161283
             0.5442493     1.1434564825515
 s    1 1.00
             0.1687144                   1
 p    3 1.00
             7.8682724   0.068999095584993
             1.8812885    0.31642397975315
             0.5442493    0.74430825237435
 p    1 1.00
             0.1687144                   1
 d    1 1.00
                   0.8                   1

8 0
 s    3 1.00
             18.731137    0.03349459952309
             2.8253937    0.23472694665786
             0.6401217    0.81375731841339
 s    1 1.00
             0.1612778                   1

9 0
 s    3 1.00
             18.731137    0.03349459952309
             2.8253937    0.23472694665786
             0.6401217    0.81375731841339
 s    1 1.00
             0.1612778                   1

10 0
 s    6 1.00
             3047.5249  0.0018347001629433
             457.36951    0.01403730124668
             103.94869   0.068842606114048
             29.210155    0.23218442062076
              9.286663    0.46794134155879
              3.163927    0.36231203217765
 s    3 1.00
             7.8682724   -0.11933240861517
             1.8812885   -0.16085421161283
             0.5442493     1.1434564825515
 s    1 1.00
             0.1687144                   1
 p    3 1.00
             7.8682724   0.068999095584993
             1.8812885    0.31642397975315
             0.5442493    0.74430825237435
 p    1 1.00
             0.1687144                   1
 d    1 1.00
                   0.8                   1

11 0
 s    3 1.00
             18.731137    0.03349459952309
             2.8253937    0.23472694665786
             0.6401217    0.81375731841339
 s    1 1.00
             0.1612778                   1

12 0
 s    6 1.00
             3047.5249  0.0018347001629433
             457.36951    0.01403730124668
             103.94869   0.068842606114048
             29.210155    0.23218442062076
              9.286663    0.46794134155879
              3.163927    0.36231203217765
 s    3 1.00
             7.8682724   -0.11933240861517
             1.8812885   -0.16085421161283
             0.5442493     1.1434564825515
 s    1 1.00
             0.1687144                   1
 p    3 1.00
             7.8682724   0.068999095584993
             1.8812885    0.31642397975315
             0.5442493    0.74430825237435
 p    1 1.00
             0.1687144                   1
 d    1 1.00
                   0.8                   1

13 0
 s    3 1.00
             18.731137    0.03349459952309
             2.8253937    0.23472694665786
             0.6401217    0.81375731841339
 s    1 1.00
             0.1612778                   1

14 0
 s    3 1.00
             18.731137    0.03349459952309
             2.8253937    0.23472694665786
             0.6401217    0.81375731841339
 s    1 1.00
             0.1612778                   1

15 0
 s    6 1.00
             3047.5249  0.0018347001629433
             457.36951    0.01403730124668
             103.94869   0.068842606114048
             29.210155    0.23218442062076
              9.286663    0.46794134155879
              3.163927    0.36231203217765
 s    3 1.00
             7.8682724   -0.11933240861517
             1.8812885   -0.16085421161283
             0.5442493     1.1434564825515
 s    1 1.00
             0.1687144                   1
 p    3 1.00
             7.8682724   0.068999095584993
             1.8812885    0.31642397975315
             0.5442493    0.74430825237435
 p    1 1.00
             0.1687144                   1
 d    1 1.00
                   0.8                   1

16 0
 s    6 1.00
             3047.5249  0.0018347001629433
             457.36951    0.01403730124668
             103.94869   0.068842606114048
             29.210155    0.23218442062076
              9.286663    0.46794134155879
              3.163927    0.36231203217765
 s    3 1.00
             7.8682724   -0.11933240861517
             1.8812885   -0.16085421161283
             0.5442493     1.1434564825515
 s    1 1.00
             0.1687144                   1
 p    3 1.00
             7.8682724   0.068999095584993
             1.8812885    0.31642397975315
             0.5442493    0.74430825237435
 p    1 1.00
             0.1687144                   1
 d    1 1.00
                   0.8                   1

17 0
 s    6 1.00
             3047.5249  0.0018347001629433
             457.36951    0.01403730124668
             103.94869   0.068842606114048
             29.210155    0.23218442062076
              9.286663    0.46794134155879
              3.163927    0.36231203217765
 s    3 1.00
             7.8682724   -0.11933240861517
             1.8812885   -0.16085421161283
             0.5442493     1.1434564825515
 s    1 1.00
             0.1687144                   1
 p    3 1.00
             7.8682724   0.068999095584993
             1.8812885    0.31642397975315
             0.5442493    0.74430825237435
 p    1 1.00
             0.1687144                   1
 d    1 1.00
                   0.8                   1

18 0
 s    6 1.00
             3047.5249  0.0018347001629433
             457.36951    0.01403730124668
             103.94869   0.068842606114048
             29.210155    0.23218442062076
              9.286663    0.46794134155879
              3.163927    0.36231203217765
 s    3 1.00
             7.8682724   -0.11933240861517
             1.8812885   -0.16085421161283
             0.5442493     1.1434564825515
 s    1 1.00
             0.1687144                   1
 p    3 1.00
             7.8682724   0.068999095584993
             1.8812885    0.31642397975315
             0.5442493    0.74430825237435
 p    1 1.00
             0.1687144                   1
 d    1 1.00
                   0.8                   1

19 0
 s    6 1.00
             3047.5249  0.0018347001629433
             457.36951    0.01403730124668
             103.94869   0.068842606114048
             29.210155    0.23218442062076
              9.286663    0.46794134155879
              3.163927    0.36231203217765
 s    3 1.00
             7.8682724   -0.11933240861517
             1.8812885   -0.16085421161283
             0.5442493     1.1434564825515
 s    1 1.00
             0.1687144                   1
 p    3 1.00
             7.8682724   0.068999095584993
             1.8812885    0.31642397975315
             0.5442493    0.74430825237435
 p    1 1.00
             0.1687144                   1
 d    1 1.00
                   0.8                   1

20 0
 s    6 1.00
             3047.5249  0.0018347001629433
             457.36951    0.01403730124668
             103.94869   0.068842606114048
             29.210155    0.23218442062076
              9.286663    0.46794134155879
              3.163927    0.36231203217765
 s    3 1.00
             7.8682724   -0.11933240861517
             1.8812885   -0.16085421161283
             0.5442493     1.1434564825515
 s    1 1.00
             0.1687144                   1
 p    3 1.00
             7.8682724   0.068999095584993
             1.8812885    0.31642397975315
             0.5442493    0.74430825237435
 p    1 1.00
             0.1687144                   1
 d    1 1.00
                   0.8                   1

21 0
 s    6 1.00
             3047.5249  0.0018347001629433
             457.36951    0.01403730124668
             103.94869   0.068842606114048
             29.210155    0.23218442062076
              9.286663    0.46794134155879
              3.163927    0.36231203217765
 s    3 1.00
             7.8682724   -0.11933240861517
             1.8812885   -0.16085421161283
             0.5442493     1.1434564825515
 s    1 1.00
             0.1687144                   1
 p    3 1.00
             7.8682724   0.068999095584993
             1.8812885    0.31642397975315
             0.5442493    0.74430825237435
 p    1 1.00
             0.1687144                   1
 d    1 1.00
                   0.8                   1

22 0
 s    3 1.00
             18.731137    0.03349459952309
             2.8253937    0.23472694665786
             0.6401217    0.81375731841339
 s    1 1.00
             0.1612778                   1

23 0
 s    3 1.00
             18.731137    0.03349459952309
             2.8253937    0.23472694665786
             0.6401217    0.81375731841339
 s    1 1.00
             0.1612778                   1

24 0
 s    3 1.00
             18.731137    0.03349459952309
             2.8253937    0.23472694665786
             0.6401217    0.81375731841339
 s    1 1.00
             0.1612778                   1

25 0
 s    3 1.00
             18.731137    0.03349459952309
             2.8253937    0.23472694665786
             0.6401217    0.81375731841339
 s    1 1.00
             0.1612778                   1

26 0
 s    3 1.00
             18.731137    0.03349459952309
             2.8253937    0.23472694665786
             0.6401217    0.81375731841339
 s    1 1.00
             0.1612778                   1

27 0
 s    3 1.00
             18.731137    0.03349459952309
             2.8253937    0.23472694665786
             0.6401217    0.81375731841339
 s    1 1.00
             0.1612778                   1

28 0
 s    3 1.00
             18.731137    0.03349459952309
             2.8253937    0.23472694665786
             0.6401217    0.81375731841339
 s    1 1.00
             0.1612778                   1

29 0
 s    3 1.00
             18.731137    0.03349459952309
             2.8253937    0.23472694665786
             0.6401217    0.81375731841339
 s    1 1.00
             0.1612778                   1

30 0
 s    3 1.00
             18.731137    0.03349459952309
             2.8253937    0.23472694665786
             0.6401217    0.81375731841339
 s    1 1.00
             0.1612778                   1

31 0
 s    3 1.00
             18.731137    0.03349459952309
             2.8253937    0.23472694665786
             0.6401217    0.81375731841339
 s    1 1.00
             0.1612778                   1

32 0
 s    3 1.00
             18.731137    0.03349459952309
             2.8253937    0.23472694665786
             0.6401217    0.81375731841339
 s    1 1.00
             0.1612778                   1

33 0
 s    6 1.00
             3047.5249  0.0018347001629433
             457.36951    0.01403730124668
             103.94869   0.068842606114048
             29.210155    0.23218442062076
              9.286663    0.46794134155879
              3.163927    0.36231203217765
 s    3 1.00
             7.8682724   -0.11933240861517
             1.8812885   -0.16085421161283
             0.5442493     1.1434564825515
 s    1 1.00
             0.1687144                   1
 p    3 1.00
             7.8682724   0.068999095584993
             1.8812885    0.31642397975315
             0.5442493    0.74430825237435
 p    1 1.00
             0.1687144                   1
 d    1 1.00
                   0.8                   1

34 0
 s    6 1.00
             3047.5249  0.0018347001629433
             457.36951    0.01403730124668
             103.94869   0.068842606114048
             29.210155    0.23218442062076
              9.286663    0.46794134155879
              3.163927    0.36231203217765
 s    3 1.00
             7.8682724   -0.11933240861517
             1.8812885   -0.16085421161283
             0.5442493     1.1434564825515
 s    1 1.00
             0.1687144                   1
 p    3 1.00
             7.8682724   0.068999095584993
             1.8812885    0.31642397975315
             0.5442493    0.74430825237435
 p    1 1.00
             0.1687144                   1
 d    1 1.00
                   0.8                   1

35 0
 s    3 1.00
             18.731137    0.03349459952309
             2.8253937    0.23472694665786
             0.6401217    0.81375731841339
 s    1 1.00
             0.1612778                   1

36 0
 s    6 1.00
             3047.5249  0.0018347001629433
             457.36951    0.01403730124668
             103.94869   0.068842606114048
             29.210155    0.23218442062076
              9.286663    0.46794134155879
              3.163927    0.36231203217765
 s    3 1.00
             7.8682724   -0.11933240861517
             1.8812885   -0.16085421161283
             0.5442493     1.1434564825515
 s    1 1.00
             0.1687144                   1
 p    3 1.00
             7.8682724   0.068999095584993
             1.8812885    0.31642397975315
             0.5442493    0.74430825237435
 p    1 1.00
             0.1687144                   1
 d    1 1.00
                   0.8                   1

37 0
 s    3 1.00
             18.731137    0.03349459952309
             2.8253937    0.23472694665786
             0.6401217    0.81375731841339
 s    1 1.00
             0.1612778                   1

38 0
 s    3 1.00
             18.731137    0.03349459952309
             2.8253937    0.23472694665786
             0.6401217    0.81375731841339
 s    1 1.00
             0.1612778                   1

39 0
 s    6 1.00
             3047.5249  0.0018347001629433
             457.36951    0.01403730124668
             103.94869   0.068842606114048
             29.210155    0.23218442062076
              9.286663    0.46794134155879
              3.163927    0.36231203217765
 s    3 1.00
             7.8682724   -0.11933240861517
             1.8812885   -0.16085421161283
             0.5442493     1.1434564825515
 s    1 1.00
             0.1687144                   1
 p    3 1.00
             7.8682724   0.068999095584993
             1.8812885    0.31642397975315
             0.5442493    0.74430825237435
 p    1 1.00
             0.1687144                   1
 d    1 1.00
                   0.8                   1

40 0
 s    6 1.00
             3047.5249  0.0018347001629433
             457.36951    0.01403730124668
             103.94869   0.068842606114048
             29.210155    0.23218442062076
              9.286663    0.46794134155879
              3.163927    0.36231203217765
 s    3 1.00
             7.8682724   -0.11933240861517
             1.8812885   -0.16085421161283
             0.5442493     1.1434564825515
 s    1 1.00
             0.1687144                   1
 p    3 1.00
             7.8682724   0.068999095584993
             1.8812885    0.31642397975315
             0.5442493    0.74430825237435
 p    1 1.00
             0.1687144                   1
 d    1 1.00
                   0.8                   1

41 0
 s    3 1.00
             18.731137    0.03349459952309
             2.8253937    0.23472694665786
             0.6401217    0.81375731841339
 s    1 1.00
             0.1612778                   1

42 0
 s    6 1.00
             5484.6717   0.001831099805527
             825.23495   0.013950098518422
             188.04696    0.06844509273075
               52.9645    0.23271427528445
              16.89757    0.47019295006289
             5.7996353    0.35852086192309
 s    3 1.00
             15.539616   -0.11077750382508
             3.5999336   -0.14802630511126
             1.0137618     1.1307670390447
 s    1 1.00
             0.2700058                   1
 p    3 1.00
             15.539616   0.070874299543311
             3.5999336    0.33975279781076
             1.0137618    0.72715859531445
 p    1 1.00
             0.2700058                   1
 d    1 1.00
                   0.8                   1

43 0
 s    3 1.00
             18.731137    0.03349459952309
             2.8253937    0.23472694665786
             0.6401217    0.81375731841339
 s    1 1.00
             0.1612778                   1

[5d]
[7f]
[9g]

[MO]
 Sym= A
 Ene=               0
 Spin= Alpha
 Occup=    1.00000
   1    0.0025360763144666
   2       0.2965020455136
   3       0.1990221902476
   4    -0.076009787699808
   5    -0.048448100840332
   6       0.1461081479276
   7     0.010943567275893
   8    -0.0070143225655233
   9     0.050460835152575
  10    0.0040242872618412
  11    -0.0052780297471166
  12    -0.0046849386031312
  13    0.0075299349133221
  14     0.005465508195524
  15     0.065349391267569
  16    -0.0036708185216794
  17    -0.0085923274752068
  18      0.04528067260731
  19     0.020513857014652
  20    -0.0068568814860043
  21    -0.010801230559416
  22     0.051918114241649
  23    -0.012381015061111
  24    -0.0075820120027322
  25     0.027769243309202
  26    0.0062933299956243
  27    0.0023223470465903
  28    -0.0018519426825596
  29    0.00084411130696799
  30    0.00021135946360113
  31     0.012462294595047
  32    -0.00049595201907514
  33    0.00093811530693241
  34    -0.00075824371111131
  35     0.020489674153326
  36     0.001715824947733
  37    0.00077474419697365
  38    -0.0071988150242314
  39    -0.0067047125094812
  40    -0.0059107517687131
  41    0.0023182891098593
  42    -1.2463315883569e-05
  43    -0.00086088506022713
  44    0.00021788701861104
  45    7.5057869046526e-05
  46    -0.00016104374148039
  47    0.0010565067058121
  48    0.0019869915275551
  49    -0.00050095712959857
  50     0.023360920516303
  51     0.015775684713114
  52    0.0076375558023514
  53    0.00059780967803349
  54    -0.010628305798656
  55    0.0068112157445542
  56    -0.0016596586047007
  57    -0.0064450742712936
  58    0.0001305609600661
  59    -0.00059558024674115
  60    -0.00056873357788892
  61    -0.00040686671943034
  62    0.00014082326187767
  63    0.0063730344543314
  64    0.0014436967703334
  65    5.4686323168807e-05
  66    9.7849934230982e-05
  67    2.8856747248627e-05
  68    -1.2750668725291e-05
  69    -0.00044134862941392
  70    -9.3024241772312e-05
  71    2.4820118172563e-05
  72    6.7358058655795e-05
  73    0.00016957958904681
  74    0.00052386603614873
  75    0.0001963871557201
  76    2.9440344387587e-05
  77    1.7893058701108e-05
  78    -1.2023228324898e-05
  79    -5.9937857620759e-06
  80    1.5330135693136e-05
  81    2.0708040668449e-05
  82    0.00043901495895647
  83    -7.2295538362485e-06
  84    0.00012426983228848
  85    0.0010365392036595
  86    -6.5698890155417e-05
  87    0.00015830742273908
  88    -0.00025749150241197
  89    -0.00039193438779829
  90    -0.00049845569573022
  91    -0.00038297252315316
  92    -1.8064130947783e-05
  93    5.2115058270342e-05
  94    1.9139504080148e-05
  95    6.7945110443375e-06
  96    1.5109098396903e-05
  97    0.00015412564798696
  98    0.00048943930809158
  99    -0.00015744366718666
 100    -0.00034657217230121
 101    3.5665051980242e-05
 102    3.3267388604082e-05
 103    -0.00076197289796794
 104    -0.00055677449648466
 105    -0.00056606748481029
 106    0.0003883539101344
 107    0.0023726535513735
 108    -0.001422781374254
 109    -0.0031916890012803
 110    3.6245275872273e-05
 111    8.0694232501627e-05
 112    -2.7314918983327e-05
 113    -5.5191641574456e-05
 114    3.8013324094818e-05
 115    7.6986084528639e-05
 116    -0.0001721071734389
 117    -0.0022535787021445
 118    0.00012545602528097
 119    -0.00031709226400081
 120    -1.3216541498126e-05
 121    0.00053612885275991
 122    -0.00022650882761297
 123    -0.0016815368364836
 124    1.1287545270508e-05
 125    2.7197556560557e-05
 126    -6.876023615473e-05
 127    2.1518072469732e-05
 128    3.8134780743222e-05
 129    1.6655788408754e-05
 130    0.00068386627049948
 131    -0.012063779347448
 132    -0.00013189019007684
 133    -0.00019810800449489
 134    -0.00064935447983856
 135    0.0016333893598172
 136    -0.0012962660600067
 137     0.013047848840734
 138    -0.00041398563316492
 139    0.00010153099526816
 140    6.7341582079705e-05
 141    2.9087268547872e-05
 142    4.4256046132997e-05
 143    0.00010670545032468
 144    -0.0001236303191377
 145    -0.0025593240097087
 146    -4.6606042729455e-05
 147    0.00016358862764495
 148    0.00061581997776543
 149    -0.0029846419849473
 150    0.0015927462669824
 151    -0.0019966289230104
 152    9.8451613745134e-05
 153    -2.669844201043e-05
 154    -4.2302396333648e-05
 155    -6.0267940515158e-05
 156    5.6432692618314e-05
 157    4.2222320602755e-05
 158    0.00010937415327659
 159    -0.001672627494572
 160    7.7356315791126e-05
 161    1.281870385519e-05
 162    4.2473916127278e-05
 163    0.00018603489277666
 164    0.00088327154429899
 165    0.00030031839776417
 166    3.2736573988414e-05
 167    -1.1816608661945e-05
 168     5.60367282112e-06
 169    5.255310061779e-05
 170    -6.9582295232459e-06
 171    1.6047838542731e-05
 172    -0.00023525885521587
 173    0.00020443129650921
 174    -1.506377571303e-05
 175    2.7498281405276e-05
 176    0.00028707365911071
 177    0.00037172765302795
 178    -0.0007299893110942
 179    -8.6751402768633e-05
 180    5.7891113565366e-06
 181    6.4397411437687e-05
 182    2.2889642344342e-05
 183    3.1103100862047e-05
 184    -8.6132805477623e-06
 185    -2.242369459639e-05
 186    6.0189493241368e-05
 187     0.001783796173181
 188    9.027911480781e-06
 189    -6.1632489312087e-05
 190    -0.00036840597566696
 191    -0.0010702852105337
 192    -0.00038221931812801
 193    -0.00059142279955267
 194    1.8204053315354e-05
 195    5.0354079898093e-05
 196    2.254178917322e-05
 197    -7.8760919759165e-06
 198    2.6797421467284e-05
 199    1.711317332945e-05
 200    0.0003676260958244
 201    -0.00017872498082794
 202    -0.00060787478068338
 203    9.7762989289085e-05
 204    0.00055165489648797
 205    -4.6016935925604e-05
 206    0.00012854528886274
 207    0.00012315649784971
 208    -0.0010385719676324
 209    6.6648477200749e-05
 210    0.00028915866072467
 211    2.8906922780283e-05
 212    -7.9585873855593e-05
 213    3.5329921506121e-05
 214    -0.00011721103740374
 215    -1.4537617653395e-05
 216    -0.0005947712418442
 217    3.7460823655942e-05
 218    0.00038160338617973
 219    -8.2411135082961e-06
 220    -0.00042124305723113
 221    0.0011815533361068
 222    -0.0028616484005444
 223     0.025152855570749
 224    -0.0017063716352595
 225    -3.6442546458888e-06
 226    0.0031781427530075
 227     0.017381230557035
 228    0.0031139363613462
 229    0.0091666065953135
 230    0.00018297934087223
 231    -0.00016204631411973
 232    -0.00016713993656518
 233    0.00018111910454024
 234    0.00017436776663874
 235    -0.0081477528957703
 236     0.042492546568082
 237     0.019732255616485
 238    0.0070928706985941
 239     0.011135490234326
 240    -0.047932711229707
 241    0.0079403898112729
 242     0.007922227266636
 243    -0.030906802030802
 244    0.0063722815582463
 245    0.0019325567649802
 246    -0.001828504031555
 247    0.00092365347627062
 248    0.00023689990511383
 249    0.00088870459937001
 250    0.0087137526432752
 251    0.0011880238644576
 252      0.29431329219159
 253      0.18711025038097
 254     0.078722820579052
 255     0.049626306274326
 256     -0.14801488044948
 257    -0.012647624262633
 258    0.0048689216906988
 259    -0.047370644746403
 260    0.0035598572283383
 261    -0.0050792028336879
 262    -0.0047370012460769
 263    0.0071121004943431
 264    0.0057380800455876
 265     0.011756620990073
 266    0.0017192082784084
 267     0.063325263539217
 268    -0.0049780742668943
 269     0.001140770017274
 270     0.024690250302541
 271     0.011049622008434
 272    -0.0050901460305906
 273    -0.0044032237405952
 274    0.0092391540133513
 275    -0.0014504125828007
 276    0.0042249260123905
 277    0.0011286391458481
 278    0.00016791001948521
 279    -0.00072641686106162
 280    -0.00048410173241552
 281    -0.00038628850004945
 282    8.7713985125143e-05
 283    -0.0013307153692293
 284    0.0060922065406297