[Molden Format]
made by pyscf v[2.0.1]
[Atoms] (AU)
C   1   6     0.69100024066471     0.64692934207205    -3.48223131169301
H   2   1     2.68052439830868     1.13355088658700    -3.25784032593313
C   3   6    -0.36286361513219     0.85440132524594    -5.97030179418974
H   4   1    -2.35448549047279     0.36322488579172    -6.17995817793143
C   5   6     0.93697958957450     1.61209284601821    -8.05828437677121
H   6   1     0.96138501035509     3.61074187827952    -8.55401536893531
C   7   6     2.29833572157337    -0.09037665740906    -9.67215882917863
H   8   1     2.25763405404964    -2.08692321364337    -9.15074973557782
H   9   1     1.55630230933075    -1.92953025305990    12.99630010416247
C   10   6     0.75233899775814    -2.21270439606481    11.10705728102219
H   11   1    -0.43433408177274    -3.90944857546550    11.22216085340412
C   12   6     2.86362581178706    -2.63237380607947     9.17926416456045
H   13   1     4.39038949912609    -1.24955421540245     9.49899813497433
H   14   1     3.74629220191363    -4.48798724300892     9.47414880959024
C   15   6     2.02478325613682    -2.42177285709634     6.44560829588644
C   16   6     3.88048732735477    -3.58795445234514     4.61402886975252
C   17   6    -0.18412382258602    -1.30464291234259     5.76021113872346
C   18   6    -2.10044360464350    -0.26837831858460     7.71610340967100
C   19   6    -3.08956938670431     2.35282328359417     6.88693925039594
C   20   6    -4.37372924086464    -2.09766595989678     7.93610724222001
C   21   6    -0.83850430601230     0.06372213486173    10.33002307638377
H   22   1     0.38411922151109     1.74281358582432    10.27380136542181
H   23   1    -2.30980003007874     0.45460143924521    11.73986301809809
H   24   1     4.58527064644668    -5.38706904487420     5.36778158031719
H   25   1     5.54944938085014    -2.37631462192748     4.35398898413318
H   26   1     3.06633019150423    -3.94118377050688     2.75255466040884
H   27   1    -4.17727778763735     2.26573369139522     5.12914900961283
H   28   1    -1.52662344944051     3.68001877445626     6.59540397144508
H   29   1    -4.32916174397830     3.13643051467482     8.35225460090378
H   30   1    -5.32329548508442    -2.36691813602939     6.11583672749896
H   31   1    -5.77989366602257    -1.33896741843465     9.25748940450990
H   32   1    -3.79310905208926    -3.96389819310853     8.61386170102686
C   33   6    -1.01100794811226    -1.06331657314144     3.11929490449947
C   34   6     0.37686231036534    -0.33275864505552     1.09165013605873
H   35   1    -3.01671213906703    -1.40297922279997     2.77827895090944
C   36   6    -0.64382707979370    -0.11591880174385    -1.42063131251064
H   37   1     2.35569259782137     0.17174499283897     1.33641070251401
H   38   1    -2.63317482980319    -0.60229203511219    -1.66119700387645
C   39   6     3.61506927759443     0.57708357993929   -11.76916696671870
C   40   6     4.94068653136927    -1.30276865816170   -13.29098070185656
H   41   1     3.73162541044975     2.53269508104841   -12.39347992177894
O   42   8     6.15625203764207    -0.83635548426311   -15.19510343410387
H   43   1     4.77073908343657    -3.27989237609552   -12.58226454806003
[GTO]
1 0
 s    6 1.00
             3047.5249  0.0018347001629433
             457.36951    0.01403730124668
             103.94869   0.068842606114048
             29.210155    0.23218442062076
              9.286663    0.46794134155879
              3.163927    0.36231203217765
 s    3 1.00
             7.8682724   -0.11933240861517
             1.8812885   -0.16085421161283
             0.5442493     1.1434564825515
 s    1 1.00
             0.1687144                   1
 p    3 1.00
             7.8682724   0.068999095584993
             1.8812885    0.31642397975315
             0.5442493    0.74430825237435
 p    1 1.00
             0.1687144                   1
 d    1 1.00
                   0.8                   1

2 0
 s    3 1.00
             18.731137    0.03349459952309
             2.8253937    0.23472694665786
             0.6401217    0.81375731841339
 s    1 1.00
             0.1612778                   1

3 0
 s    6 1.00
             3047.5249  0.0018347001629433
             457.36951    0.01403730124668
             103.94869   0.068842606114048
             29.210155    0.23218442062076
              9.286663    0.46794134155879
              3.163927    0.36231203217765
 s    3 1.00
             7.8682724   -0.11933240861517
             1.8812885   -0.16085421161283
             0.5442493     1.1434564825515
 s    1 1.00
             0.1687144                   1
 p    3 1.00
             7.8682724   0.068999095584993
             1.8812885    0.31642397975315
             0.5442493    0.74430825237435
 p    1 1.00
             0.1687144                   1
 d    1 1.00
                   0.8                   1

4 0
 s    3 1.00
             18.731137    0.03349459952309
             2.8253937    0.23472694665786
             0.6401217    0.81375731841339
 s    1 1.00
             0.1612778                   1

5 0
 s    6 1.00
             3047.5249  0.0018347001629433
             457.36951    0.01403730124668
             103.94869   0.068842606114048
             29.210155    0.23218442062076
              9.286663    0.46794134155879
              3.163927    0.36231203217765
 s    3 1.00
             7.8682724   -0.11933240861517
             1.8812885   -0.16085421161283
             0.5442493     1.1434564825515
 s    1 1.00
             0.1687144                   1
 p    3 1.00
             7.8682724   0.068999095584993
             1.8812885    0.31642397975315
             0.5442493    0.74430825237435
 p    1 1.00
             0.1687144                   1
 d    1 1.00
                   0.8                   1

6 0
 s    3 1.00
             18.731137    0.03349459952309
             2.8253937    0.23472694665786
             0.6401217    0.81375731841339
 s    1 1.00
             0.1612778                   1

7 0
 s    6 1.00
             3047.5249  0.0018347001629433
             457.36951    0.01403730124668
             103.94869   0.068842606114048
             29.210155    0.23218442062076
              9.286663    0.46794134155879
              3.163927    0.36231203217765
 s    3 1.00
             7.8682724   -0.11933240861517
             1.8812885   -0.16085421161283
             0.5442493     1.1434564825515
 s    1 1.00
             0.1687144                   1
 p    3 1.00
             7.8682724   0.068999095584993
             1.8812885    0.31642397975315
             0.5442493    0.74430825237435
 p    1 1.00
             0.1687144                   1
 d    1 1.00
                   0.8                   1

8 0
 s    3 1.00
             18.731137    0.03349459952309
             2.8253937    0.23472694665786
             0.6401217    0.81375731841339
 s    1 1.00
             0.1612778                   1

9 0
 s    3 1.00
             18.731137    0.03349459952309
             2.8253937    0.23472694665786
             0.6401217    0.81375731841339
 s    1 1.00
             0.1612778                   1

10 0
 s    6 1.00
             3047.5249  0.0018347001629433
             457.36951    0.01403730124668
             103.94869   0.068842606114048
             29.210155    0.23218442062076
              9.286663    0.46794134155879
              3.163927    0.36231203217765
 s    3 1.00
             7.8682724   -0.11933240861517
             1.8812885   -0.16085421161283
             0.5442493     1.1434564825515
 s    1 1.00
             0.1687144                   1
 p    3 1.00
             7.8682724   0.068999095584993
             1.8812885    0.31642397975315
             0.5442493    0.74430825237435
 p    1 1.00
             0.1687144                   1
 d    1 1.00
                   0.8                   1

11 0
 s    3 1.00
             18.731137    0.03349459952309
             2.8253937    0.23472694665786
             0.6401217    0.81375731841339
 s    1 1.00
             0.1612778                   1

12 0
 s    6 1.00
             3047.5249  0.0018347001629433
             457.36951    0.01403730124668
             103.94869   0.068842606114048
             29.210155    0.23218442062076
              9.286663    0.46794134155879
              3.163927    0.36231203217765
 s    3 1.00
             7.8682724   -0.11933240861517
             1.8812885   -0.16085421161283
             0.5442493     1.1434564825515
 s    1 1.00
             0.1687144                   1
 p    3 1.00
             7.8682724   0.068999095584993
             1.8812885    0.31642397975315
             0.5442493    0.74430825237435
 p    1 1.00
             0.1687144                   1
 d    1 1.00
                   0.8                   1

13 0
 s    3 1.00
             18.731137    0.03349459952309
             2.8253937    0.23472694665786
             0.6401217    0.81375731841339
 s    1 1.00
             0.1612778                   1

14 0
 s    3 1.00
             18.731137    0.03349459952309
             2.8253937    0.23472694665786
             0.6401217    0.81375731841339
 s    1 1.00
             0.1612778                   1

15 0
 s    6 1.00
             3047.5249  0.0018347001629433
             457.36951    0.01403730124668
             103.94869   0.068842606114048
             29.210155    0.23218442062076
              9.286663    0.46794134155879
              3.163927    0.36231203217765
 s    3 1.00
             7.8682724   -0.11933240861517
             1.8812885   -0.16085421161283
             0.5442493     1.1434564825515
 s    1 1.00
             0.1687144                   1
 p    3 1.00
             7.8682724   0.068999095584993
             1.8812885    0.31642397975315
             0.5442493    0.74430825237435
 p    1 1.00
             0.1687144                   1
 d    1 1.00
                   0.8                   1

16 0
 s    6 1.00
             3047.5249  0.0018347001629433
             457.36951    0.01403730124668
             103.94869   0.068842606114048
             29.210155    0.23218442062076
              9.286663    0.46794134155879
              3.163927    0.36231203217765
 s    3 1.00
             7.8682724   -0.11933240861517
             1.8812885   -0.16085421161283
             0.5442493     1.1434564825515
 s    1 1.00
             0.1687144                   1
 p    3 1.00
             7.8682724   0.068999095584993
             1.8812885    0.31642397975315
             0.5442493    0.74430825237435
 p    1 1.00
             0.1687144                   1
 d    1 1.00
                   0.8                   1

17 0
 s    6 1.00
             3047.5249  0.0018347001629433
             457.36951    0.01403730124668
             103.94869   0.068842606114048
             29.210155    0.23218442062076
              9.286663    0.46794134155879
              3.163927    0.36231203217765
 s    3 1.00
             7.8682724   -0.11933240861517
             1.8812885   -0.16085421161283
             0.5442493     1.1434564825515
 s    1 1.00
             0.1687144                   1
 p    3 1.00
             7.8682724   0.068999095584993
             1.8812885    0.31642397975315
             0.5442493    0.74430825237435
 p    1 1.00
             0.1687144                   1
 d    1 1.00
                   0.8                   1

18 0
 s    6 1.00
             3047.5249  0.0018347001629433
             457.36951    0.01403730124668
             103.94869   0.068842606114048
             29.210155    0.23218442062076
              9.286663    0.46794134155879
              3.163927    0.36231203217765
 s    3 1.00
             7.8682724   -0.11933240861517
             1.8812885   -0.16085421161283
             0.5442493     1.1434564825515
 s    1 1.00
             0.1687144                   1
 p    3 1.00
             7.8682724   0.068999095584993
             1.8812885    0.31642397975315
             0.5442493    0.74430825237435
 p    1 1.00
             0.1687144                   1
 d    1 1.00
                   0.8                   1

19 0
 s    6 1.00
             3047.5249  0.0018347001629433
             457.36951    0.01403730124668
             103.94869   0.068842606114048
             29.210155    0.23218442062076
              9.286663    0.46794134155879
              3.163927    0.36231203217765
 s    3 1.00
             7.8682724   -0.11933240861517
             1.8812885   -0.16085421161283
             0.5442493     1.1434564825515
 s    1 1.00
             0.1687144                   1
 p    3 1.00
             7.8682724   0.068999095584993
             1.8812885    0.31642397975315
             0.5442493    0.74430825237435
 p    1 1.00
             0.1687144                   1
 d    1 1.00
                   0.8                   1

20 0
 s    6 1.00
             3047.5249  0.0018347001629433
             457.36951    0.01403730124668
             103.94869   0.068842606114048
             29.210155    0.23218442062076
              9.286663    0.46794134155879
              3.163927    0.36231203217765
 s    3 1.00
             7.8682724   -0.11933240861517
             1.8812885   -0.16085421161283
             0.5442493     1.1434564825515
 s    1 1.00
             0.1687144                   1
 p    3 1.00
             7.8682724   0.068999095584993
             1.8812885    0.31642397975315
             0.5442493    0.74430825237435
 p    1 1.00
             0.1687144                   1
 d    1 1.00
                   0.8                   1

21 0
 s    6 1.00
             3047.5249  0.0018347001629433
             457.36951    0.01403730124668
             103.94869   0.068842606114048
             29.210155    0.23218442062076
              9.286663    0.46794134155879
              3.163927    0.36231203217765
 s    3 1.00
             7.8682724   -0.11933240861517
             1.8812885   -0.16085421161283
             0.5442493     1.1434564825515
 s    1 1.00
             0.1687144                   1
 p    3 1.00
             7.8682724   0.068999095584993
             1.8812885    0.31642397975315
             0.5442493    0.74430825237435
 p    1 1.00
             0.1687144                   1
 d    1 1.00
                   0.8                   1

22 0
 s    3 1.00
             18.731137    0.03349459952309
             2.8253937    0.23472694665786
             0.6401217    0.81375731841339
 s    1 1.00
             0.1612778                   1

23 0
 s    3 1.00
             18.731137    0.03349459952309
             2.8253937    0.23472694665786
             0.6401217    0.81375731841339
 s    1 1.00
             0.1612778                   1

24 0
 s    3 1.00
             18.731137    0.03349459952309
             2.8253937    0.23472694665786
             0.6401217    0.81375731841339
 s    1 1.00
             0.1612778                   1

25 0
 s    3 1.00
             18.731137    0.03349459952309
             2.8253937    0.23472694665786
             0.6401217    0.81375731841339
 s    1 1.00
             0.1612778                   1

26 0
 s    3 1.00
             18.731137    0.03349459952309
             2.8253937    0.23472694665786
             0.6401217    0.81375731841339
 s    1 1.00
             0.1612778                   1

27 0
 s    3 1.00
             18.731137    0.03349459952309
             2.8253937    0.23472694665786
             0.6401217    0.81375731841339
 s    1 1.00
             0.1612778                   1

28 0
 s    3 1.00
             18.731137    0.03349459952309
             2.8253937    0.23472694665786
             0.6401217    0.81375731841339
 s    1 1.00
             0.1612778                   1

29 0
 s    3 1.00
             18.731137    0.03349459952309
             2.8253937    0.23472694665786
             0.6401217    0.81375731841339
 s    1 1.00
             0.1612778                   1

30 0
 s    3 1.00
             18.731137    0.03349459952309
             2.8253937    0.23472694665786
             0.6401217    0.81375731841339
 s    1 1.00
             0.1612778                   1

31 0
 s    3 1.00
             18.731137    0.03349459952309
             2.8253937    0.23472694665786
             0.6401217    0.81375731841339
 s    1 1.00
             0.1612778                   1

32 0
 s    3 1.00
             18.731137    0.03349459952309
             2.8253937    0.23472694665786
             0.6401217    0.81375731841339
 s    1 1.00
             0.1612778                   1

33 0
 s    6 1.00
             3047.5249  0.0018347001629433
             457.36951    0.01403730124668
             103.94869   0.068842606114048
             29.210155    0.23218442062076
              9.286663    0.46794134155879
              3.163927    0.36231203217765
 s    3 1.00
             7.8682724   -0.11933240861517
             1.8812885   -0.16085421161283
             0.5442493     1.1434564825515
 s    1 1.00
             0.1687144                   1
 p    3 1.00
             7.8682724   0.068999095584993
             1.8812885    0.31642397975315
             0.5442493    0.74430825237435
 p    1 1.00
             0.1687144                   1
 d    1 1.00
                   0.8                   1

34 0
 s    6 1.00
             3047.5249  0.0018347001629433
             457.36951    0.01403730124668
             103.94869   0.068842606114048
             29.210155    0.23218442062076
              9.286663    0.46794134155879
              3.163927    0.36231203217765
 s    3 1.00
             7.8682724   -0.11933240861517
             1.8812885   -0.16085421161283
             0.5442493     1.1434564825515
 s    1 1.00
             0.1687144                   1
 p    3 1.00
             7.8682724   0.068999095584993
             1.8812885    0.31642397975315
             0.5442493    0.74430825237435
 p    1 1.00
             0.1687144                   1
 d    1 1.00
                   0.8                   1

35 0
 s    3 1.00
             18.731137    0.03349459952309
             2.8253937    0.23472694665786
             0.6401217    0.81375731841339
 s    1 1.00
             0.1612778                   1

36 0
 s    6 1.00
             3047.5249  0.0018347001629433
             457.36951    0.01403730124668
             103.94869   0.068842606114048
             29.210155    0.23218442062076
              9.286663    0.46794134155879
              3.163927    0.36231203217765
 s    3 1.00
             7.8682724   -0.11933240861517
             1.8812885   -0.16085421161283
             0.5442493     1.1434564825515
 s    1 1.00
             0.1687144                   1
 p    3 1.00
             7.8682724   0.068999095584993
             1.8812885    0.31642397975315
             0.5442493    0.74430825237435
 p    1 1.00
             0.1687144                   1
 d    1 1.00
                   0.8                   1

37 0
 s    3 1.00
             18.731137    0.03349459952309
             2.8253937    0.23472694665786
             0.6401217    0.81375731841339
 s    1 1.00
             0.1612778                   1

38 0
 s    3 1.00
             18.731137    0.03349459952309
             2.8253937    0.23472694665786
             0.6401217    0.81375731841339
 s    1 1.00
             0.1612778                   1

39 0
 s    6 1.00
             3047.5249  0.0018347001629433
             457.36951    0.01403730124668
             103.94869   0.068842606114048
             29.210155    0.23218442062076
              9.286663    0.46794134155879
              3.163927    0.36231203217765
 s    3 1.00
             7.8682724   -0.11933240861517
             1.8812885   -0.16085421161283
             0.5442493     1.1434564825515
 s    1 1.00
             0.1687144                   1
 p    3 1.00
             7.8682724   0.068999095584993
             1.8812885    0.31642397975315
             0.5442493    0.74430825237435
 p    1 1.00
             0.1687144                   1
 d    1 1.00
                   0.8                   1

40 0
 s    6 1.00
             3047.5249  0.0018347001629433
             457.36951    0.01403730124668
             103.94869   0.068842606114048
             29.210155    0.23218442062076
              9.286663    0.46794134155879
              3.163927    0.36231203217765
 s    3 1.00
             7.8682724   -0.11933240861517
             1.8812885   -0.16085421161283
             0.5442493     1.1434564825515
 s    1 1.00
             0.1687144                   1
 p    3 1.00
             7.8682724   0.068999095584993
             1.8812885    0.31642397975315
             0.5442493    0.74430825237435
 p    1 1.00
             0.1687144                   1
 d    1 1.00
                   0.8                   1

41 0
 s    3 1.00
             18.731137    0.03349459952309
             2.8253937    0.23472694665786
             0.6401217    0.81375731841339
 s    1 1.00
             0.1612778                   1

42 0
 s    6 1.00
             5484.6717   0.001831099805527
             825.23495   0.013950098518422
             188.04696    0.06844509273075
               52.9645    0.23271427528445
              16.89757    0.47019295006289
             5.7996353    0.35852086192309
 s    3 1.00
             15.539616   -0.11077750382508
             3.5999336   -0.14802630511126
             1.0137618     1.1307670390447
 s    1 1.00
             0.2700058                   1
 p    3 1.00
             15.539616   0.070874299543311
             3.5999336    0.33975279781076
             1.0137618    0.72715859531445
 p    1 1.00
             0.2700058                   1
 d    1 1.00
                   0.8                   1

43 0
 s    3 1.00
             18.731137    0.03349459952309
             2.8253937    0.23472694665786
             0.6401217    0.81375731841339
 s    1 1.00
             0.1612778                   1

[5d]
[7f]
[9g]

[MO]
 Sym= A
 Ene=               0
 Spin= Alpha
 Occup=    1.00000
   1    0.0025396804527469
   2      0.29649955343887
   3      0.19889844997119
   4    -0.075977967530554
   5    -0.048419092712107
   6       0.1461206306555
   7     0.010980912219297
   8    -0.0069633924900737
   9     0.050434976851234
  10    0.0040421293787195
  11    -0.0052934465821611
  12    -0.0046887823398317
  13     0.007525443275946
  14    0.0054691827349779
  15     0.065349300730661
  16    -0.0036782742303768
  17    -0.0085943642553608
  18     0.045285695411233
  19     0.020650800164752
  20    -0.0068363257444209
  21    -0.010790136302909
  22     0.051943339763997
  23    -0.012344713907474
  24    -0.0075131318341472
  25     0.027768284196413
  26    0.0062802577133216
  27    0.0023257127033478
  28    -0.0018499177851291
  29    0.00084165409812345
  30    0.00021737684731774
  31     0.012461057938188
  32    -0.00048418959004375
  33    0.00092535101376691
  34    -0.00071670321208046
  35     0.020582312402942
  36    0.0017036937625614
  37    0.00079991480985886
  38    -0.0072850362767307
  39    -0.0066620603679281
  40    -0.0060096673871545
  41     0.002067537859137
  42    1.1420223690818e-05
  43    -0.00086407932422888
  44    0.00024458835756488
  45    6.0348309928884e-05
  46    -0.00014969138535952
  47    0.0010746590437414
  48    0.0020870118130711
  49    -0.00049738247029889
  50     0.023695708707318
  51     0.015521207648596
  52     0.007590897291858
  53    0.00067361173136036
  54    -0.010904652403868
  55    0.0066575771594153
  56    -0.0019184851744171
  57    -0.0065522623798858
  58    0.00012534981699212
  59    -0.00060628405225624
  60    -0.00055507156108415
  61    -0.00041880303629911
  62    0.0001696485295154
  63    0.0063887786261101
  64    0.0013800780014851
  65    5.5506303956457e-05
  66    0.00010070805893248
  67    2.913070861281e-05
  68    -1.4004093718506e-05
  69    -0.00044012317748539
  70    -9.5433703185403e-05
  71    2.6025534577025e-05
  72    6.9296221301675e-05
  73    0.00016709287850732
  74    0.00052709124927728
  75    0.00019424442279767
  76    2.9463309808847e-05
  77    1.8042510463357e-05
  78    -1.2091992552511e-05
  79    -5.9146216522819e-06
  80    1.5500840012627e-05
  81    2.1135103838064e-05
  82    0.00044103747249194
  83    -6.963880364908e-06
  84    0.00012408476507225
  85    0.0010281996809457
  86    -6.2189138241632e-05
  87    0.00016085424107213
  88    -0.00025740514081489
  89    -0.00038847227360147
  90    -0.00049970236924807
  91    -0.00037959999199361
  92    -1.8362208768258e-05
  93    5.2643824222921e-05
  94    2.0000950082136e-05
  95    7.0708255021966e-06
  96    1.5783235692853e-05
  97    0.00015988753110072
  98    0.00049917132367718
  99    -0.00016022886709608
 100    -0.00035232717874385
 101    3.4527505455829e-05
 102    3.5169490434443e-05
 103    -0.00074686008416124
 104    -0.00057116114943162
 105    -0.000585981134236
 106    0.00038786399790019
 107    0.0023576098625382
 108    -0.0014361993509066
 109    -0.003181909529057
 110    3.6234474888382e-05
 111    8.0743931622007e-05
 112    -2.7304297572896e-05
 113    -5.4803550976997e-05
 114    3.8364221238321e-05
 115    7.6705000046859e-05
 116    -0.00017133261285546
 117    -0.0022485412872957
 118    0.00012599961657821
 119    -0.00031489692283948
 120    -1.6572985951784e-05
 121    0.00053575639171904
 122    -0.00022715500119701
 123    -0.0016831079368875
 124    1.1252440483945e-05
 125    2.6575284691286e-05
 126    -6.9007498719575e-05
 127    2.228637846897e-05
 128    3.8783894079911e-05
 129    1.5497518446174e-05
 130    0.00068501597333062
 131    -0.012037654219978
 132    -0.00013405756710521
 133    -0.00020645161302967
 134    -0.00065524210322813
 135     0.001620483661642
 136    -0.0012980536842239
 137     0.013020419914124
 138    -0.00041386984453615
 139    0.00010224278146825
 140    6.5685515191273e-05
 141    2.8182994492124e-05
 142    4.3165279103771e-05
 143    0.00010790395754096
 144    -0.0001266392144658
 145    -0.0025647224937282
 146    -5.0522227327986e-05
 147    0.0001663521574335
 148    0.00062279766111478
 149    -0.0029847528009485
 150    0.0015897142292146
 151    -0.0019883806144354
 152    9.8592297355053e-05
 153    -2.6407301299828e-05
 154    -4.216501756149e-05
 155    -6.0422377901223e-05
 156    5.6270296588714e-05
 157    4.2647373863819e-05
 158    0.0001078512330108
 159    -0.0016720595219569
 160    7.8367170416536e-05
 161    1.2351339025322e-05
 162    4.571549053302e-05
 163    0.00019001161750891
 164    0.00087923644545654
 165    0.00030090023514787
 166    3.2952790667112e-05
 167    -1.197110694165e-05
 168    5.5749766533851e-06
 169    5.2439272733997e-05
 170    -6.8733633500435e-06
 171    1.6343724080447e-05
 172    -0.00023531659834506
 173    0.00020119042111246
 174    -1.6161147535136e-05
 175    2.7331796737439e-05
 176    0.00028609542902601
 177    0.00036881798501385
 178    -0.00072840423034884
 179    -8.6881687297067e-05
 180    5.8316839755875e-06
 181    6.4579214918299e-05
 182    2.3008541792328e-05
 183    3.0987143402448e-05
 184    -8.6397723756806e-06
 185    -2.2969344970262e-05
 186    6.1465958093389e-05
 187     0.001782203998849
 188    8.6324415591911e-06
 189    -6.1988609743698e-05
 190    -0.00037258388310754
 191    -0.0010716280272388
 192    -0.00038028086372108
 193    -0.00059395631654868
 194    1.8019857860426e-05
 195    5.0717322483803e-05
 196    2.233053988748e-05
 197    -7.9300852051265e-06
 198    2.6876830249267e-05
 199    1.7833511098899e-05
 200    0.00036804119893464
 201    -0.00018142319436426
 202    -0.00061252792272396
 203    9.3739920370472e-05
 204    0.00054393114108952
 205    -4.1263568170801e-05
 206    0.00013667786110854
 207    0.00012232355054417
 208    -0.0010412681459533
 209    6.5051450779904e-05
 210    0.00029134917288632
 211    2.8556182560125e-05
 212    -7.9375160709949e-05
 213    3.5946609604687e-05
 214    -0.00011437751846131
 215    -1.3329892576188e-05
 216    -0.00059338547499078
 217    3.6810052183556e-05
 218    0.00037918056191711
 219    -8.3195801270025e-06
 220    -0.00041877174746014
 221    0.0011838123400089
 222    -0.0028657538407441
 223     0.025099205071384
 224    -0.0017155923732158
 225    2.9623455367221e-05
 226    0.0031920213858147
 227     0.017355719958332
 228    0.0031382180048594
 229    0.0091530868958612
 230    0.00018328932227815
 231    -0.0001620246677116
 232    -0.00016801686270628
 233    0.00018044403076507
 234    0.00017425358660753
 235    -0.0081505079489724
 236     0.042501799317631
 237     0.019723790274792
 238    0.0070820783803273
 239     0.011152263599808
 240    -0.047938413425861
 241    0.0079244499789057
 242    0.0079272051842111
 243    -0.030871508651471
 244    0.0063676090879374
 245      0.00193349962877
 246    -0.0018253811204047
 247    0.00092513295838702
 248    0.00023647903510387
 249    0.00088511344584714
 250    0.0087069538565886
 251    0.0011900752992878
 252      0.29432687444829
 253      0.18713531813989
 254     0.078727432597323
 255     0.049623792988381
 256     -0.14802194280123
 257    -0.012608196215957
 258    0.0048497802916544
 259    -0.047350776275618
 260    0.0035657944421996
 261    -0.0050932541025724
 262    -0.0047442801748311
 263    0.0071082373403466
 264    0.0057423803462801
 265      0.01176117686096
 266    0.0017277364753045
 267     0.063319803365045
 268    -0.0049626087408226
 269    0.0011437988640647
 270     0.025002649342596
 271     0.011510161430417
 272    -0.0053151720813429
 273    -0.0044050587113929
 274    0.0093479599008889
 275    -0.0014691385725888
 276    0.0042480285044559
 277    0.0013560132792701
 278    0.00017242107372893
 279    -0.00074801396143052
 280    -0.00047036886694182
 281    -0.00039860246927668
 282    0.00012165042235752
 283    -0.0013299108167338
 284    0.0060953371744037