[Molden Format]
made by pyscf v[2.0.1]
[Atoms] (AU)
C   1   6     0.69100024066471     0.64692934207205    -3.48223131169301
H   2   1     2.68052439830868     1.13355088658700    -3.25784032593313
C   3   6    -0.36286361513219     0.85440132524594    -5.97030179418974
H   4   1    -2.35448549047279     0.36322488579172    -6.17995817793143
C   5   6     0.93697958957450     1.61209284601821    -8.05828437677121
H   6   1     1.06549067678056     3.62267689696451    -8.48487489511106
C   7   6     2.16736557798100    -0.10534186648568    -9.75912299477448
H   8   1     2.02320928491733    -2.11383137749881    -9.30645195914250
H   9   1     1.55630230933075    -1.92953025305990    12.99630010416247
C   10   6     0.75233899775814    -2.21270439606481    11.10705728102219
H   11   1    -0.43433408177274    -3.90944857546550    11.22216085340412
C   12   6     2.86362581178706    -2.63237380607947     9.17926416456045
H   13   1     4.39038949912609    -1.24955421540245     9.49899813497433
H   14   1     3.74629220191363    -4.48798724300892     9.47414880959024
C   15   6     2.02478325613682    -2.42177285709634     6.44560829588644
C   16   6     3.88048732735477    -3.58795445234514     4.61402886975252
C   17   6    -0.18412382258602    -1.30464291234259     5.76021113872346
C   18   6    -2.10044360464350    -0.26837831858460     7.71610340967100
C   19   6    -3.08956938670431     2.35282328359417     6.88693925039594
C   20   6    -4.37372924086464    -2.09766595989678     7.93610724222001
C   21   6    -0.83850430601230     0.06372213486173    10.33002307638377
H   22   1     0.38411922151109     1.74281358582432    10.27380136542181
H   23   1    -2.30980003007874     0.45460143924521    11.73986301809809
H   24   1     4.58527064644668    -5.38706904487420     5.36778158031719
H   25   1     5.54944938085014    -2.37631462192748     4.35398898413318
H   26   1     3.06633019150423    -3.94118377050688     2.75255466040884
H   27   1    -4.17727778763735     2.26573369139522     5.12914900961283
H   28   1    -1.52662344944051     3.68001877445626     6.59540397144508
H   29   1    -4.32916174397830     3.13643051467482     8.35225460090378
H   30   1    -5.32329548508442    -2.36691813602939     6.11583672749896
H   31   1    -5.77989366602257    -1.33896741843465     9.25748940450990
H   32   1    -3.79310905208926    -3.96389819310853     8.61386170102686
C   33   6    -1.01100794811226    -1.06331657314144     3.11929490449947
C   34   6     0.37686231036534    -0.33275864505552     1.09165013605873
H   35   1    -3.01671213906703    -1.40297922279997     2.77827895090944
C   36   6    -0.64382707979370    -0.11591880174385    -1.42063131251064
H   37   1     2.35569259782137     0.17174499283897     1.33641070251401
H   38   1    -2.63317482980319    -0.60229203511219    -1.66119700387645
C   39   6     3.47875288242203     0.56169257871714   -11.85961387583028
C   40   6     4.66516051155728    -1.33401759756945   -13.47384510134906
H   41   1     3.69428385946791     2.52875803282145   -12.41815504578381
O   42   8     5.86788117255002    -0.86880199432758   -15.38639878207248
H   43   1     4.39675898316744    -3.32256790318547   -12.83056660829343
[GTO]
1 0
 s    6 1.00
             3047.5249  0.0018347001629433
             457.36951    0.01403730124668
             103.94869   0.068842606114048
             29.210155    0.23218442062076
              9.286663    0.46794134155879
              3.163927    0.36231203217765
 s    3 1.00
             7.8682724   -0.11933240861517
             1.8812885   -0.16085421161283
             0.5442493     1.1434564825515
 s    1 1.00
             0.1687144                   1
 p    3 1.00
             7.8682724   0.068999095584993
             1.8812885    0.31642397975315
             0.5442493    0.74430825237435
 p    1 1.00
             0.1687144                   1
 d    1 1.00
                   0.8                   1

2 0
 s    3 1.00
             18.731137    0.03349459952309
             2.8253937    0.23472694665786
             0.6401217    0.81375731841339
 s    1 1.00
             0.1612778                   1

3 0
 s    6 1.00
             3047.5249  0.0018347001629433
             457.36951    0.01403730124668
             103.94869   0.068842606114048
             29.210155    0.23218442062076
              9.286663    0.46794134155879
              3.163927    0.36231203217765
 s    3 1.00
             7.8682724   -0.11933240861517
             1.8812885   -0.16085421161283
             0.5442493     1.1434564825515
 s    1 1.00
             0.1687144                   1
 p    3 1.00
             7.8682724   0.068999095584993
             1.8812885    0.31642397975315
             0.5442493    0.74430825237435
 p    1 1.00
             0.1687144                   1
 d    1 1.00
                   0.8                   1

4 0
 s    3 1.00
             18.731137    0.03349459952309
             2.8253937    0.23472694665786
             0.6401217    0.81375731841339
 s    1 1.00
             0.1612778                   1

5 0
 s    6 1.00
             3047.5249  0.0018347001629433
             457.36951    0.01403730124668
             103.94869   0.068842606114048
             29.210155    0.23218442062076
              9.286663    0.46794134155879
              3.163927    0.36231203217765
 s    3 1.00
             7.8682724   -0.11933240861517
             1.8812885   -0.16085421161283
             0.5442493     1.1434564825515
 s    1 1.00
             0.1687144                   1
 p    3 1.00
             7.8682724   0.068999095584993
             1.8812885    0.31642397975315
             0.5442493    0.74430825237435
 p    1 1.00
             0.1687144                   1
 d    1 1.00
                   0.8                   1

6 0
 s    3 1.00
             18.731137    0.03349459952309
             2.8253937    0.23472694665786
             0.6401217    0.81375731841339
 s    1 1.00
             0.1612778                   1

7 0
 s    6 1.00
             3047.5249  0.0018347001629433
             457.36951    0.01403730124668
             103.94869   0.068842606114048
             29.210155    0.23218442062076
              9.286663    0.46794134155879
              3.163927    0.36231203217765
 s    3 1.00
             7.8682724   -0.11933240861517
             1.8812885   -0.16085421161283
             0.5442493     1.1434564825515
 s    1 1.00
             0.1687144                   1
 p    3 1.00
             7.8682724   0.068999095584993
             1.8812885    0.31642397975315
             0.5442493    0.74430825237435
 p    1 1.00
             0.1687144                   1
 d    1 1.00
                   0.8                   1

8 0
 s    3 1.00
             18.731137    0.03349459952309
             2.8253937    0.23472694665786
             0.6401217    0.81375731841339
 s    1 1.00
             0.1612778                   1

9 0
 s    3 1.00
             18.731137    0.03349459952309
             2.8253937    0.23472694665786
             0.6401217    0.81375731841339
 s    1 1.00
             0.1612778                   1

10 0
 s    6 1.00
             3047.5249  0.0018347001629433
             457.36951    0.01403730124668
             103.94869   0.068842606114048
             29.210155    0.23218442062076
              9.286663    0.46794134155879
              3.163927    0.36231203217765
 s    3 1.00
             7.8682724   -0.11933240861517
             1.8812885   -0.16085421161283
             0.5442493     1.1434564825515
 s    1 1.00
             0.1687144                   1
 p    3 1.00
             7.8682724   0.068999095584993
             1.8812885    0.31642397975315
             0.5442493    0.74430825237435
 p    1 1.00
             0.1687144                   1
 d    1 1.00
                   0.8                   1

11 0
 s    3 1.00
             18.731137    0.03349459952309
             2.8253937    0.23472694665786
             0.6401217    0.81375731841339
 s    1 1.00
             0.1612778                   1

12 0
 s    6 1.00
             3047.5249  0.0018347001629433
             457.36951    0.01403730124668
             103.94869   0.068842606114048
             29.210155    0.23218442062076
              9.286663    0.46794134155879
              3.163927    0.36231203217765
 s    3 1.00
             7.8682724   -0.11933240861517
             1.8812885   -0.16085421161283
             0.5442493     1.1434564825515
 s    1 1.00
             0.1687144                   1
 p    3 1.00
             7.8682724   0.068999095584993
             1.8812885    0.31642397975315
             0.5442493    0.74430825237435
 p    1 1.00
             0.1687144                   1
 d    1 1.00
                   0.8                   1

13 0
 s    3 1.00
             18.731137    0.03349459952309
             2.8253937    0.23472694665786
             0.6401217    0.81375731841339
 s    1 1.00
             0.1612778                   1

14 0
 s    3 1.00
             18.731137    0.03349459952309
             2.8253937    0.23472694665786
             0.6401217    0.81375731841339
 s    1 1.00
             0.1612778                   1

15 0
 s    6 1.00
             3047.5249  0.0018347001629433
             457.36951    0.01403730124668
             103.94869   0.068842606114048
             29.210155    0.23218442062076
              9.286663    0.46794134155879
              3.163927    0.36231203217765
 s    3 1.00
             7.8682724   -0.11933240861517
             1.8812885   -0.16085421161283
             0.5442493     1.1434564825515
 s    1 1.00
             0.1687144                   1
 p    3 1.00
             7.8682724   0.068999095584993
             1.8812885    0.31642397975315
             0.5442493    0.74430825237435
 p    1 1.00
             0.1687144                   1
 d    1 1.00
                   0.8                   1

16 0
 s    6 1.00
             3047.5249  0.0018347001629433
             457.36951    0.01403730124668
             103.94869   0.068842606114048
             29.210155    0.23218442062076
              9.286663    0.46794134155879
              3.163927    0.36231203217765
 s    3 1.00
             7.8682724   -0.11933240861517
             1.8812885   -0.16085421161283
             0.5442493     1.1434564825515
 s    1 1.00
             0.1687144                   1
 p    3 1.00
             7.8682724   0.068999095584993
             1.8812885    0.31642397975315
             0.5442493    0.74430825237435
 p    1 1.00
             0.1687144                   1
 d    1 1.00
                   0.8                   1

17 0
 s    6 1.00
             3047.5249  0.0018347001629433
             457.36951    0.01403730124668
             103.94869   0.068842606114048
             29.210155    0.23218442062076
              9.286663    0.46794134155879
              3.163927    0.36231203217765
 s    3 1.00
             7.8682724   -0.11933240861517
             1.8812885   -0.16085421161283
             0.5442493     1.1434564825515
 s    1 1.00
             0.1687144                   1
 p    3 1.00
             7.8682724   0.068999095584993
             1.8812885    0.31642397975315
             0.5442493    0.74430825237435
 p    1 1.00
             0.1687144                   1
 d    1 1.00
                   0.8                   1

18 0
 s    6 1.00
             3047.5249  0.0018347001629433
             457.36951    0.01403730124668
             103.94869   0.068842606114048
             29.210155    0.23218442062076
              9.286663    0.46794134155879
              3.163927    0.36231203217765
 s    3 1.00
             7.8682724   -0.11933240861517
             1.8812885   -0.16085421161283
             0.5442493     1.1434564825515
 s    1 1.00
             0.1687144                   1
 p    3 1.00
             7.8682724   0.068999095584993
             1.8812885    0.31642397975315
             0.5442493    0.74430825237435
 p    1 1.00
             0.1687144                   1
 d    1 1.00
                   0.8                   1

19 0
 s    6 1.00
             3047.5249  0.0018347001629433
             457.36951    0.01403730124668
             103.94869   0.068842606114048
             29.210155    0.23218442062076
              9.286663    0.46794134155879
              3.163927    0.36231203217765
 s    3 1.00
             7.8682724   -0.11933240861517
             1.8812885   -0.16085421161283
             0.5442493     1.1434564825515
 s    1 1.00
             0.1687144                   1
 p    3 1.00
             7.8682724   0.068999095584993
             1.8812885    0.31642397975315
             0.5442493    0.74430825237435
 p    1 1.00
             0.1687144                   1
 d    1 1.00
                   0.8                   1

20 0
 s    6 1.00
             3047.5249  0.0018347001629433
             457.36951    0.01403730124668
             103.94869   0.068842606114048
             29.210155    0.23218442062076
              9.286663    0.46794134155879
              3.163927    0.36231203217765
 s    3 1.00
             7.8682724   -0.11933240861517
             1.8812885   -0.16085421161283
             0.5442493     1.1434564825515
 s    1 1.00
             0.1687144                   1
 p    3 1.00
             7.8682724   0.068999095584993
             1.8812885    0.31642397975315
             0.5442493    0.74430825237435
 p    1 1.00
             0.1687144                   1
 d    1 1.00
                   0.8                   1

21 0
 s    6 1.00
             3047.5249  0.0018347001629433
             457.36951    0.01403730124668
             103.94869   0.068842606114048
             29.210155    0.23218442062076
              9.286663    0.46794134155879
              3.163927    0.36231203217765
 s    3 1.00
             7.8682724   -0.11933240861517
             1.8812885   -0.16085421161283
             0.5442493     1.1434564825515
 s    1 1.00
             0.1687144                   1
 p    3 1.00
             7.8682724   0.068999095584993
             1.8812885    0.31642397975315
             0.5442493    0.74430825237435
 p    1 1.00
             0.1687144                   1
 d    1 1.00
                   0.8                   1

22 0
 s    3 1.00
             18.731137    0.03349459952309
             2.8253937    0.23472694665786
             0.6401217    0.81375731841339
 s    1 1.00
             0.1612778                   1

23 0
 s    3 1.00
             18.731137    0.03349459952309
             2.8253937    0.23472694665786
             0.6401217    0.81375731841339
 s    1 1.00
             0.1612778                   1

24 0
 s    3 1.00
             18.731137    0.03349459952309
             2.8253937    0.23472694665786
             0.6401217    0.81375731841339
 s    1 1.00
             0.1612778                   1

25 0
 s    3 1.00
             18.731137    0.03349459952309
             2.8253937    0.23472694665786
             0.6401217    0.81375731841339
 s    1 1.00
             0.1612778                   1

26 0
 s    3 1.00
             18.731137    0.03349459952309
             2.8253937    0.23472694665786
             0.6401217    0.81375731841339
 s    1 1.00
             0.1612778                   1

27 0
 s    3 1.00
             18.731137    0.03349459952309
             2.8253937    0.23472694665786
             0.6401217    0.81375731841339
 s    1 1.00
             0.1612778                   1

28 0
 s    3 1.00
             18.731137    0.03349459952309
             2.8253937    0.23472694665786
             0.6401217    0.81375731841339
 s    1 1.00
             0.1612778                   1

29 0
 s    3 1.00
             18.731137    0.03349459952309
             2.8253937    0.23472694665786
             0.6401217    0.81375731841339
 s    1 1.00
             0.1612778                   1

30 0
 s    3 1.00
             18.731137    0.03349459952309
             2.8253937    0.23472694665786
             0.6401217    0.81375731841339
 s    1 1.00
             0.1612778                   1

31 0
 s    3 1.00
             18.731137    0.03349459952309
             2.8253937    0.23472694665786
             0.6401217    0.81375731841339
 s    1 1.00
             0.1612778                   1

32 0
 s    3 1.00
             18.731137    0.03349459952309
             2.8253937    0.23472694665786
             0.6401217    0.81375731841339
 s    1 1.00
             0.1612778                   1

33 0
 s    6 1.00
             3047.5249  0.0018347001629433
             457.36951    0.01403730124668
             103.94869   0.068842606114048
             29.210155    0.23218442062076
              9.286663    0.46794134155879
              3.163927    0.36231203217765
 s    3 1.00
             7.8682724   -0.11933240861517
             1.8812885   -0.16085421161283
             0.5442493     1.1434564825515
 s    1 1.00
             0.1687144                   1
 p    3 1.00
             7.8682724   0.068999095584993
             1.8812885    0.31642397975315
             0.5442493    0.74430825237435
 p    1 1.00
             0.1687144                   1
 d    1 1.00
                   0.8                   1

34 0
 s    6 1.00
             3047.5249  0.0018347001629433
             457.36951    0.01403730124668
             103.94869   0.068842606114048
             29.210155    0.23218442062076
              9.286663    0.46794134155879
              3.163927    0.36231203217765
 s    3 1.00
             7.8682724   -0.11933240861517
             1.8812885   -0.16085421161283
             0.5442493     1.1434564825515
 s    1 1.00
             0.1687144                   1
 p    3 1.00
             7.8682724   0.068999095584993
             1.8812885    0.31642397975315
             0.5442493    0.74430825237435
 p    1 1.00
             0.1687144                   1
 d    1 1.00
                   0.8                   1

35 0
 s    3 1.00
             18.731137    0.03349459952309
             2.8253937    0.23472694665786
             0.6401217    0.81375731841339
 s    1 1.00
             0.1612778                   1

36 0
 s    6 1.00
             3047.5249  0.0018347001629433
             457.36951    0.01403730124668
             103.94869   0.068842606114048
             29.210155    0.23218442062076
              9.286663    0.46794134155879
              3.163927    0.36231203217765
 s    3 1.00
             7.8682724   -0.11933240861517
             1.8812885   -0.16085421161283
             0.5442493     1.1434564825515
 s    1 1.00
             0.1687144                   1
 p    3 1.00
             7.8682724   0.068999095584993
             1.8812885    0.31642397975315
             0.5442493    0.74430825237435
 p    1 1.00
             0.1687144                   1
 d    1 1.00
                   0.8                   1

37 0
 s    3 1.00
             18.731137    0.03349459952309
             2.8253937    0.23472694665786
             0.6401217    0.81375731841339
 s    1 1.00
             0.1612778                   1

38 0
 s    3 1.00
             18.731137    0.03349459952309
             2.8253937    0.23472694665786
             0.6401217    0.81375731841339
 s    1 1.00
             0.1612778                   1

39 0
 s    6 1.00
             3047.5249  0.0018347001629433
             457.36951    0.01403730124668
             103.94869   0.068842606114048
             29.210155    0.23218442062076
              9.286663    0.46794134155879
              3.163927    0.36231203217765
 s    3 1.00
             7.8682724   -0.11933240861517
             1.8812885   -0.16085421161283
             0.5442493     1.1434564825515
 s    1 1.00
             0.1687144                   1
 p    3 1.00
             7.8682724   0.068999095584993
             1.8812885    0.31642397975315
             0.5442493    0.74430825237435
 p    1 1.00
             0.1687144                   1
 d    1 1.00
                   0.8                   1

40 0
 s    6 1.00
             3047.5249  0.0018347001629433
             457.36951    0.01403730124668
             103.94869   0.068842606114048
             29.210155    0.23218442062076
              9.286663    0.46794134155879
              3.163927    0.36231203217765
 s    3 1.00
             7.8682724   -0.11933240861517
             1.8812885   -0.16085421161283
             0.5442493     1.1434564825515
 s    1 1.00
             0.1687144                   1
 p    3 1.00
             7.8682724   0.068999095584993
             1.8812885    0.31642397975315
             0.5442493    0.74430825237435
 p    1 1.00
             0.1687144                   1
 d    1 1.00
                   0.8                   1

41 0
 s    3 1.00
             18.731137    0.03349459952309
             2.8253937    0.23472694665786
             0.6401217    0.81375731841339
 s    1 1.00
             0.1612778                   1

42 0
 s    6 1.00
             5484.6717   0.001831099805527
             825.23495   0.013950098518422
             188.04696    0.06844509273075
               52.9645    0.23271427528445
              16.89757    0.47019295006289
             5.7996353    0.35852086192309
 s    3 1.00
             15.539616   -0.11077750382508
             3.5999336   -0.14802630511126
             1.0137618     1.1307670390447
 s    1 1.00
             0.2700058                   1
 p    3 1.00
             15.539616   0.070874299543311
             3.5999336    0.33975279781076
             1.0137618    0.72715859531445
 p    1 1.00
             0.2700058                   1
 d    1 1.00
                   0.8                   1

43 0
 s    3 1.00
             18.731137    0.03349459952309
             2.8253937    0.23472694665786
             0.6401217    0.81375731841339
 s    1 1.00
             0.1612778                   1

[5d]
[7f]
[9g]

[MO]
 Sym= A
 Ene=               0
 Spin= Alpha
 Occup=    1.00000
   1    -0.015999434870721
   2    0.0011802943665833
   3    -0.0077383341686113
   4    -0.00043471591146763
   5    0.00014353957768281
   6    -0.001347325778447
   7    -0.00089011682201415
   8    -0.0013586947765679
   9     0.006072303618092
  10    0.0009991758441997
  11    0.0009581456401501
  12    -0.00015968247244047
  13    0.00021735476597586
  14    -5.2711873507365e-05
  15    0.00054046494170462
  16    0.00099430201773219
  17     -0.99472438173703
  18    -0.039353976069546
  19     0.031464113703576
  20    -0.0010348525920003
  21    -0.00018732055416575
  22    0.00065490916097104
  23    0.0040204798247775
  24    0.0011860256853258
  25    0.00083618591922534
  26    -0.00080838504180663
  27    0.00032350937339129
  28    0.00036000000479351
  29    -0.00028394735527191
  30    -0.00018258300862919
  31     0.001293239415193
  32    -0.0042172775320774
  33    -0.012720924270736
  34    0.00039471332614572
  35    -0.0012177640279199
  36    -0.00096152243031589
  37    -0.0003749350423992
  38     0.001304482202091
  39    0.0024879447855972
  40    -0.0038226418889103
  41    -0.0046391558981021
  42    0.00068890365469398
  43    -0.0013212246354204
  44    -0.00051986804865225
  45    0.00038112603578226
  46    0.00042952071621587
  47    0.00060808729572134
  48    0.00064978597928004
  49    0.00037130635050568
  50    0.00060418733555231
  51    -0.00030875113217082
  52    -0.00026552716063682
  53    -2.3243837922574e-05
  54    0.00044973803027098
  55    0.0051423886878643
  56    -0.0012509461947247
  57    -0.0077501441779776
  58    0.00016247812420514
  59    1.0528115601857e-05
  60    -0.00018643150329979
  61    0.00027190990361926
  62    0.00018797651284812
  63    0.00052115543861038
  64    -0.00027778182051727
  65    2.9636165860471e-06
  66    4.5388726762491e-06
  67    1.0743188844711e-07
  68    1.4920559637499e-06
  69    -7.3078630819766e-06
  70    -2.4338713006184e-06
  71    5.0158562936093e-06
  72    2.6039125218405e-07
  73    -1.4353438785541e-05
  74    -2.7352244378922e-05
  75    -1.0125443358251e-05
  76    1.2447172126083e-07
  77    3.556933649877e-07
  78    -3.7032345312807e-07
  79    -6.402738034961e-07
  80    2.4213897093192e-08
  81    -2.6506707266359e-06
  82    -1.3880065189808e-05
  83    -2.4386818707117e-07
  84    -1.6430852877528e-06
  85    7.130198022557e-05
  86    -3.9293530769774e-06
  87    -3.4164945736942e-06
  88    -5.640996941797e-06
  89    -2.6188560654514e-05
  90    6.9757678021791e-05
  91    -7.6462924733018e-06
  92    -1.7357866596457e-06
  93    2.9973099129319e-06
  94    -4.10280715457e-06
  95    8.4253014009611e-07
  96    1.1415027049587e-06
  97    -7.529032382819e-06
  98    -1.3104284755497e-05
  99    3.6656213429703e-06
 100    2.0660398046373e-05
 101    1.2614104171826e-06
 102    1.3000151617085e-05
 103    -0.00025772784042349
 104    1.8602209398209e-06
 105    8.285858988358e-06
 106    3.7992982383739e-06
 107    0.00020794810661008
 108    -0.00020029508773102
 109    -0.0001444888884398
 110    6.3970340906696e-06
 111    3.6841502551401e-08
 112    5.7803012430405e-09
 113    -1.5706354953476e-06
 114    5.9190311189646e-06
 115    3.6115567999547e-06
 116    3.4962596489731e-05
 117    -0.00025451060032484
 118    2.6543791310745e-06
 119    -3.4911278787089e-06
 120    -5.4240277350626e-06
 121    5.1726469794785e-05
 122    -1.0609176777571e-05
 123    -3.1606648397615e-05
 124    -1.732875478457e-06
 125    3.0761117146897e-06
 126    2.6836432859344e-06
 127    -6.2179958630007e-07
 128    2.299781437581e-06
 129    5.8201722033016e-06
 130    5.6310937435797e-05
 131    -0.00015560891235166
 132    -6.859610118562e-06
 133    4.8207658355032e-06
 134    -2.3680610021608e-05
 135    0.00038381004277974
 136    -4.6742420506448e-05
 137    0.00043168247890194
 138    -9.9160935095393e-06
 139    -1.4149144056059e-05
 140    -6.2550928033615e-06
 141    -4.7751966236129e-06
 142    -7.4649276750031e-06
 143    2.123250046185e-06
 144    2.8014654222166e-05
 145    -2.3485366993274e-05
 146    -2.552284962454e-06
 147    -6.2329012255111e-06
 148    -1.3633679773873e-05
 149    -1.2940402542501e-05
 150    -6.4654240285577e-07
 151    6.6569464413017e-05
 152    7.4969834467951e-06
 153    4.0856044848637e-06
 154    3.3978468830057e-06
 155    -4.5113483461981e-06
 156    4.2427369839722e-06
 157    -1.7138440461614e-06
 158    -1.3663206601187e-05
 159    3.9067098938931e-05
 160    -6.3408069621617e-06
 161    7.1794883561645e-08
 162    1.6098259016839e-06
 163    5.3027641530555e-05
 164    -2.5923671314244e-05
 165    -1.1434997794192e-05
 166    -4.6300455663149e-06
 167    6.5001939128008e-07
 168    2.3062365051815e-07
 169    -8.9760403068488e-07
 170    -2.0346845893623e-06
 171    5.7947494229412e-07
 172    1.3105972024569e-05
 173    -2.473460668497e-05
 174    4.2486432305569e-06
 175    1.781334720776e-07
 176    -1.1659889649917e-05
 177    1.0819881911006e-06
 178    2.0172302027466e-06
 179    2.8963567181213e-05
 180    -1.7126442237121e-06
 181    -5.1769190545673e-06
 182    -8.3884903345556e-07
 183    1.269663481136e-06
 184    -1.771535959995e-06
 185    3.618510775933e-06
 186    3.1540756232257e-05
 187    -9.2613934255532e-05
 188    2.6926259937655e-06
 189    -7.4845355615735e-07
 190    -5.4643600540411e-06
 191    2.5215826004011e-06
 192    1.4695940135617e-05
 193    7.818961615906e-05
 194    -3.6269189231026e-06
 195    -1.8398488160411e-06
 196    -2.9216645580289e-06
 197    4.0862340222888e-07
 198    -4.6484585814533e-07
 199    8.3295840383313e-06
 200    -2.9033374181399e-08
 201    2.3762303039879e-06
 202    -2.1904058627871e-05
 203    1.2361836445847e-05
 204    7.152078181238e-06
 205    4.142120398338e-07
 206    2.9408704754042e-05
 207    -1.0932928076911e-05
 208    6.9347008154309e-05
 209    -1.1728777053625e-05
 210    2.808557754276e-05
 211    -6.5412852672358e-06
 212    -1.8649475739872e-05
 213    5.9876608749883e-07
 214    2.2653624626924e-05
 215    2.9546765353256e-06
 216    3.0505271791405e-05
 217    -1.5830116469593e-06
 218    -9.4379443364851e-06
 219    -4.9641299316822e-07
 220    1.6873855941736e-06
 221    9.6937981249593e-06
 222    9.264916067745e-05
 223    -0.0009381017078965
 224    1.1538588271352e-05
 225    1.0344540423846e-06
 226    -1.2266460155739e-05
 227    -0.00068001197009782
 228    -0.00032388803083818
 229    0.00097919629084642
 230    -2.5201216265551e-06
 231    4.5994115916199e-05
 232    2.3124173359939e-05
 233    -2.2846409523068e-05
 234    -2.3820844177343e-05
 235    1.5034823986485e-05
 236    7.0448369155845e-05
 237    0.00027543401539065
 238    3.168811176735e-05
 239    1.0340697094309e-05
 240    -3.2396355891082e-05
 241    -0.00030474848680187
 242    -0.00035671301640048
 243    0.0016135905124566
 244    -1.0310133848473e-05
 245    -7.4966261669907e-05
 246    -1.5641470960414e-05
 247    -1.8830469298097e-05
 248    1.9657676151257e-06
 249    3.6727579444489e-05
 250    -0.00032491490968307
 251    -4.8216374124475e-06
 252    0.00042971605435486
 253    -0.0022215758820141
 254    -6.5325538094244e-05
 255    3.9481857171186e-05
 256    -0.00021042585309444
 257    1.7137843796083e-05
 258    -0.00042950832108207
 259    0.0018621555468406
 260    7.0651985598389e-05
 261    2.2301328340796e-05
 262    1.8193901312654e-05
 263    -0.0001481123005756
 264    -9.307967305625e-05
 265    0.00011219964730475
 266    -0.00020981765232441
 267    0.00013530518922098
 268    0.00053915820676254
 269    5.9925263432073e-05
 270    0.00055347866014063
 271    -0.0072825647515152
 272    6.6570793080498e-05
 273    -0.00010609553219337
 274    -0.00013824563820467
 275    0.0017368946864238
 276    0.0030023048175163
 277    -0.0028840870564379
 278    -8.7401502992568e-05
 279    0.00019218236304331
 280    0.00010072920987538
 281    3.2753174006083e-05