[Molden Format]
made by pyscf v[2.0.1]
[Atoms] (AU)
C   1   6     0.69100024066471     0.64692934207205    -3.48223131169301
H   2   1     2.68052439830868     1.13355088658700    -3.25784032593313
C   3   6    -0.36286361513219     0.85440132524594    -5.97030179418974
H   4   1    -2.35448549047279     0.36322488579172    -6.17995817793143
C   5   6     0.93697958957450     1.61209284601821    -8.05828437677121
H   6   1    -0.06960811584452     2.58702669474359    -9.56733307637730
C   7   6     3.59571274713804     1.19684402678434    -8.39738626626495
H   8   1     4.57899779978681     0.21871567749258    -6.86894337963000
H   9   1     1.55630230933075    -1.92953025305990    12.99630010416247
C   10   6     0.75233899775814    -2.21270439606481    11.10705728102219
H   11   1    -0.43433408177274    -3.90944857546550    11.22216085340412
C   12   6     2.86362581178706    -2.63237380607947     9.17926416456045
H   13   1     4.39038949912609    -1.24955421540245     9.49899813497433
H   14   1     3.74629220191363    -4.48798724300892     9.47414880959024
C   15   6     2.02478325613682    -2.42177285709634     6.44560829588644
C   16   6     3.88048732735477    -3.58795445234514     4.61402886975252
C   17   6    -0.18412382258602    -1.30464291234259     5.76021113872346
C   18   6    -2.10044360464350    -0.26837831858460     7.71610340967100
C   19   6    -3.08956938670431     2.35282328359417     6.88693925039594
C   20   6    -4.37372924086464    -2.09766595989678     7.93610724222001
C   21   6    -0.83850430601230     0.06372213486173    10.33002307638377
H   22   1     0.38411922151109     1.74281358582432    10.27380136542181
H   23   1    -2.30980003007874     0.45460143924521    11.73986301809809
H   24   1     4.58527064644668    -5.38706904487420     5.36778158031719
H   25   1     5.54944938085014    -2.37631462192748     4.35398898413318
H   26   1     3.06633019150423    -3.94118377050688     2.75255466040884
H   27   1    -4.17727778763735     2.26573369139522     5.12914900961283
H   28   1    -1.52662344944051     3.68001877445626     6.59540397144508
H   29   1    -4.32916174397830     3.13643051467482     8.35225460090378
H   30   1    -5.32329548508442    -2.36691813602939     6.11583672749896
H   31   1    -5.77989366602257    -1.33896741843465     9.25748940450990
H   32   1    -3.79310905208926    -3.96389819310853     8.61386170102686
C   33   6    -1.01100794811226    -1.06331657314144     3.11929490449947
C   34   6     0.37686231036534    -0.33275864505552     1.09165013605873
H   35   1    -3.01671213906703    -1.40297922279997     2.77827895090944
C   36   6    -0.64382707979370    -0.11591880174385    -1.42063131251064
H   37   1     2.35569259782137     0.17174499283897     1.33641070251401
H   38   1    -2.63317482980319    -0.60229203511219    -1.66119700387645
C   39   6     4.96665860975130     1.91437223239220   -10.44247655051683
C   40   6     7.67160233174465     1.40206885234173   -10.60935163126053
H   41   1     4.10375913642339     2.89528826049847   -12.03023490303406
O   42   8     9.01623610133373     1.99111078946158   -12.38862500825095
H   43   1     8.47573431044455     0.39495244048141    -8.94223819440966
[GTO]
1 0
 s    6 1.00
             3047.5249  0.0018347001629433
             457.36951    0.01403730124668
             103.94869   0.068842606114048
             29.210155    0.23218442062076
              9.286663    0.46794134155879
              3.163927    0.36231203217765
 s    3 1.00
             7.8682724   -0.11933240861517
             1.8812885   -0.16085421161283
             0.5442493     1.1434564825515
 s    1 1.00
             0.1687144                   1
 p    3 1.00
             7.8682724   0.068999095584993
             1.8812885    0.31642397975315
             0.5442493    0.74430825237435
 p    1 1.00
             0.1687144                   1
 d    1 1.00
                   0.8                   1

2 0
 s    3 1.00
             18.731137    0.03349459952309
             2.8253937    0.23472694665786
             0.6401217    0.81375731841339
 s    1 1.00
             0.1612778                   1

3 0
 s    6 1.00
             3047.5249  0.0018347001629433
             457.36951    0.01403730124668
             103.94869   0.068842606114048
             29.210155    0.23218442062076
              9.286663    0.46794134155879
              3.163927    0.36231203217765
 s    3 1.00
             7.8682724   -0.11933240861517
             1.8812885   -0.16085421161283
             0.5442493     1.1434564825515
 s    1 1.00
             0.1687144                   1
 p    3 1.00
             7.8682724   0.068999095584993
             1.8812885    0.31642397975315
             0.5442493    0.74430825237435
 p    1 1.00
             0.1687144                   1
 d    1 1.00
                   0.8                   1

4 0
 s    3 1.00
             18.731137    0.03349459952309
             2.8253937    0.23472694665786
             0.6401217    0.81375731841339
 s    1 1.00
             0.1612778                   1

5 0
 s    6 1.00
             3047.5249  0.0018347001629433
             457.36951    0.01403730124668
             103.94869   0.068842606114048
             29.210155    0.23218442062076
              9.286663    0.46794134155879
              3.163927    0.36231203217765
 s    3 1.00
             7.8682724   -0.11933240861517
             1.8812885   -0.16085421161283
             0.5442493     1.1434564825515
 s    1 1.00
             0.1687144                   1
 p    3 1.00
             7.8682724   0.068999095584993
             1.8812885    0.31642397975315
             0.5442493    0.74430825237435
 p    1 1.00
             0.1687144                   1
 d    1 1.00
                   0.8                   1

6 0
 s    3 1.00
             18.731137    0.03349459952309
             2.8253937    0.23472694665786
             0.6401217    0.81375731841339
 s    1 1.00
             0.1612778                   1

7 0
 s    6 1.00
             3047.5249  0.0018347001629433
             457.36951    0.01403730124668
             103.94869   0.068842606114048
             29.210155    0.23218442062076
              9.286663    0.46794134155879
              3.163927    0.36231203217765
 s    3 1.00
             7.8682724   -0.11933240861517
             1.8812885   -0.16085421161283
             0.5442493     1.1434564825515
 s    1 1.00
             0.1687144                   1
 p    3 1.00
             7.8682724   0.068999095584993
             1.8812885    0.31642397975315
             0.5442493    0.74430825237435
 p    1 1.00
             0.1687144                   1
 d    1 1.00
                   0.8                   1

8 0
 s    3 1.00
             18.731137    0.03349459952309
             2.8253937    0.23472694665786
             0.6401217    0.81375731841339
 s    1 1.00
             0.1612778                   1

9 0
 s    3 1.00
             18.731137    0.03349459952309
             2.8253937    0.23472694665786
             0.6401217    0.81375731841339
 s    1 1.00
             0.1612778                   1

10 0
 s    6 1.00
             3047.5249  0.0018347001629433
             457.36951    0.01403730124668
             103.94869   0.068842606114048
             29.210155    0.23218442062076
              9.286663    0.46794134155879
              3.163927    0.36231203217765
 s    3 1.00
             7.8682724   -0.11933240861517
             1.8812885   -0.16085421161283
             0.5442493     1.1434564825515
 s    1 1.00
             0.1687144                   1
 p    3 1.00
             7.8682724   0.068999095584993
             1.8812885    0.31642397975315
             0.5442493    0.74430825237435
 p    1 1.00
             0.1687144                   1
 d    1 1.00
                   0.8                   1

11 0
 s    3 1.00
             18.731137    0.03349459952309
             2.8253937    0.23472694665786
             0.6401217    0.81375731841339
 s    1 1.00
             0.1612778                   1

12 0
 s    6 1.00
             3047.5249  0.0018347001629433
             457.36951    0.01403730124668
             103.94869   0.068842606114048
             29.210155    0.23218442062076
              9.286663    0.46794134155879
              3.163927    0.36231203217765
 s    3 1.00
             7.8682724   -0.11933240861517
             1.8812885   -0.16085421161283
             0.5442493     1.1434564825515
 s    1 1.00
             0.1687144                   1
 p    3 1.00
             7.8682724   0.068999095584993
             1.8812885    0.31642397975315
             0.5442493    0.74430825237435
 p    1 1.00
             0.1687144                   1
 d    1 1.00
                   0.8                   1

13 0
 s    3 1.00
             18.731137    0.03349459952309
             2.8253937    0.23472694665786
             0.6401217    0.81375731841339
 s    1 1.00
             0.1612778                   1

14 0
 s    3 1.00
             18.731137    0.03349459952309
             2.8253937    0.23472694665786
             0.6401217    0.81375731841339
 s    1 1.00
             0.1612778                   1

15 0
 s    6 1.00
             3047.5249  0.0018347001629433
             457.36951    0.01403730124668
             103.94869   0.068842606114048
             29.210155    0.23218442062076
              9.286663    0.46794134155879
              3.163927    0.36231203217765
 s    3 1.00
             7.8682724   -0.11933240861517
             1.8812885   -0.16085421161283
             0.5442493     1.1434564825515
 s    1 1.00
             0.1687144                   1
 p    3 1.00
             7.8682724   0.068999095584993
             1.8812885    0.31642397975315
             0.5442493    0.74430825237435
 p    1 1.00
             0.1687144                   1
 d    1 1.00
                   0.8                   1

16 0
 s    6 1.00
             3047.5249  0.0018347001629433
             457.36951    0.01403730124668
             103.94869   0.068842606114048
             29.210155    0.23218442062076
              9.286663    0.46794134155879
              3.163927    0.36231203217765
 s    3 1.00
             7.8682724   -0.11933240861517
             1.8812885   -0.16085421161283
             0.5442493     1.1434564825515
 s    1 1.00
             0.1687144                   1
 p    3 1.00
             7.8682724   0.068999095584993
             1.8812885    0.31642397975315
             0.5442493    0.74430825237435
 p    1 1.00
             0.1687144                   1
 d    1 1.00
                   0.8                   1

17 0
 s    6 1.00
             3047.5249  0.0018347001629433
             457.36951    0.01403730124668
             103.94869   0.068842606114048
             29.210155    0.23218442062076
              9.286663    0.46794134155879
              3.163927    0.36231203217765
 s    3 1.00
             7.8682724   -0.11933240861517
             1.8812885   -0.16085421161283
             0.5442493     1.1434564825515
 s    1 1.00
             0.1687144                   1
 p    3 1.00
             7.8682724   0.068999095584993
             1.8812885    0.31642397975315
             0.5442493    0.74430825237435
 p    1 1.00
             0.1687144                   1
 d    1 1.00
                   0.8                   1

18 0
 s    6 1.00
             3047.5249  0.0018347001629433
             457.36951    0.01403730124668
             103.94869   0.068842606114048
             29.210155    0.23218442062076
              9.286663    0.46794134155879
              3.163927    0.36231203217765
 s    3 1.00
             7.8682724   -0.11933240861517
             1.8812885   -0.16085421161283
             0.5442493     1.1434564825515
 s    1 1.00
             0.1687144                   1
 p    3 1.00
             7.8682724   0.068999095584993
             1.8812885    0.31642397975315
             0.5442493    0.74430825237435
 p    1 1.00
             0.1687144                   1
 d    1 1.00
                   0.8                   1

19 0
 s    6 1.00
             3047.5249  0.0018347001629433
             457.36951    0.01403730124668
             103.94869   0.068842606114048
             29.210155    0.23218442062076
              9.286663    0.46794134155879
              3.163927    0.36231203217765
 s    3 1.00
             7.8682724   -0.11933240861517
             1.8812885   -0.16085421161283
             0.5442493     1.1434564825515
 s    1 1.00
             0.1687144                   1
 p    3 1.00
             7.8682724   0.068999095584993
             1.8812885    0.31642397975315
             0.5442493    0.74430825237435
 p    1 1.00
             0.1687144                   1
 d    1 1.00
                   0.8                   1

20 0
 s    6 1.00
             3047.5249  0.0018347001629433
             457.36951    0.01403730124668
             103.94869   0.068842606114048
             29.210155    0.23218442062076
              9.286663    0.46794134155879
              3.163927    0.36231203217765
 s    3 1.00
             7.8682724   -0.11933240861517
             1.8812885   -0.16085421161283
             0.5442493     1.1434564825515
 s    1 1.00
             0.1687144                   1
 p    3 1.00
             7.8682724   0.068999095584993
             1.8812885    0.31642397975315
             0.5442493    0.74430825237435
 p    1 1.00
             0.1687144                   1
 d    1 1.00
                   0.8                   1

21 0
 s    6 1.00
             3047.5249  0.0018347001629433
             457.36951    0.01403730124668
             103.94869   0.068842606114048
             29.210155    0.23218442062076
              9.286663    0.46794134155879
              3.163927    0.36231203217765
 s    3 1.00
             7.8682724   -0.11933240861517
             1.8812885   -0.16085421161283
             0.5442493     1.1434564825515
 s    1 1.00
             0.1687144                   1
 p    3 1.00
             7.8682724   0.068999095584993
             1.8812885    0.31642397975315
             0.5442493    0.74430825237435
 p    1 1.00
             0.1687144                   1
 d    1 1.00
                   0.8                   1

22 0
 s    3 1.00
             18.731137    0.03349459952309
             2.8253937    0.23472694665786
             0.6401217    0.81375731841339
 s    1 1.00
             0.1612778                   1

23 0
 s    3 1.00
             18.731137    0.03349459952309
             2.8253937    0.23472694665786
             0.6401217    0.81375731841339
 s    1 1.00
             0.1612778                   1

24 0
 s    3 1.00
             18.731137    0.03349459952309
             2.8253937    0.23472694665786
             0.6401217    0.81375731841339
 s    1 1.00
             0.1612778                   1

25 0
 s    3 1.00
             18.731137    0.03349459952309
             2.8253937    0.23472694665786
             0.6401217    0.81375731841339
 s    1 1.00
             0.1612778                   1

26 0
 s    3 1.00
             18.731137    0.03349459952309
             2.8253937    0.23472694665786
             0.6401217    0.81375731841339
 s    1 1.00
             0.1612778                   1

27 0
 s    3 1.00
             18.731137    0.03349459952309
             2.8253937    0.23472694665786
             0.6401217    0.81375731841339
 s    1 1.00
             0.1612778                   1

28 0
 s    3 1.00
             18.731137    0.03349459952309
             2.8253937    0.23472694665786
             0.6401217    0.81375731841339
 s    1 1.00
             0.1612778                   1

29 0
 s    3 1.00
             18.731137    0.03349459952309
             2.8253937    0.23472694665786
             0.6401217    0.81375731841339
 s    1 1.00
             0.1612778                   1

30 0
 s    3 1.00
             18.731137    0.03349459952309
             2.8253937    0.23472694665786
             0.6401217    0.81375731841339
 s    1 1.00
             0.1612778                   1

31 0
 s    3 1.00
             18.731137    0.03349459952309
             2.8253937    0.23472694665786
             0.6401217    0.81375731841339
 s    1 1.00
             0.1612778                   1

32 0
 s    3 1.00
             18.731137    0.03349459952309
             2.8253937    0.23472694665786
             0.6401217    0.81375731841339
 s    1 1.00
             0.1612778                   1

33 0
 s    6 1.00
             3047.5249  0.0018347001629433
             457.36951    0.01403730124668
             103.94869   0.068842606114048
             29.210155    0.23218442062076
              9.286663    0.46794134155879
              3.163927    0.36231203217765
 s    3 1.00
             7.8682724   -0.11933240861517
             1.8812885   -0.16085421161283
             0.5442493     1.1434564825515
 s    1 1.00
             0.1687144                   1
 p    3 1.00
             7.8682724   0.068999095584993
             1.8812885    0.31642397975315
             0.5442493    0.74430825237435
 p    1 1.00
             0.1687144                   1
 d    1 1.00
                   0.8                   1

34 0
 s    6 1.00
             3047.5249  0.0018347001629433
             457.36951    0.01403730124668
             103.94869   0.068842606114048
             29.210155    0.23218442062076
              9.286663    0.46794134155879
              3.163927    0.36231203217765
 s    3 1.00
             7.8682724   -0.11933240861517
             1.8812885   -0.16085421161283
             0.5442493     1.1434564825515
 s    1 1.00
             0.1687144                   1
 p    3 1.00
             7.8682724   0.068999095584993
             1.8812885    0.31642397975315
             0.5442493    0.74430825237435
 p    1 1.00
             0.1687144                   1
 d    1 1.00
                   0.8                   1

35 0
 s    3 1.00
             18.731137    0.03349459952309
             2.8253937    0.23472694665786
             0.6401217    0.81375731841339
 s    1 1.00
             0.1612778                   1

36 0
 s    6 1.00
             3047.5249  0.0018347001629433
             457.36951    0.01403730124668
             103.94869   0.068842606114048
             29.210155    0.23218442062076
              9.286663    0.46794134155879
              3.163927    0.36231203217765
 s    3 1.00
             7.8682724   -0.11933240861517
             1.8812885   -0.16085421161283
             0.5442493     1.1434564825515
 s    1 1.00
             0.1687144                   1
 p    3 1.00
             7.8682724   0.068999095584993
             1.8812885    0.31642397975315
             0.5442493    0.74430825237435
 p    1 1.00
             0.1687144                   1
 d    1 1.00
                   0.8                   1

37 0
 s    3 1.00
             18.731137    0.03349459952309
             2.8253937    0.23472694665786
             0.6401217    0.81375731841339
 s    1 1.00
             0.1612778                   1

38 0
 s    3 1.00
             18.731137    0.03349459952309
             2.8253937    0.23472694665786
             0.6401217    0.81375731841339
 s    1 1.00
             0.1612778                   1

39 0
 s    6 1.00
             3047.5249  0.0018347001629433
             457.36951    0.01403730124668
             103.94869   0.068842606114048
             29.210155    0.23218442062076
              9.286663    0.46794134155879
              3.163927    0.36231203217765
 s    3 1.00
             7.8682724   -0.11933240861517
             1.8812885   -0.16085421161283
             0.5442493     1.1434564825515
 s    1 1.00
             0.1687144                   1
 p    3 1.00
             7.8682724   0.068999095584993
             1.8812885    0.31642397975315
             0.5442493    0.74430825237435
 p    1 1.00
             0.1687144                   1
 d    1 1.00
                   0.8                   1

40 0
 s    6 1.00
             3047.5249  0.0018347001629433
             457.36951    0.01403730124668
             103.94869   0.068842606114048
             29.210155    0.23218442062076
              9.286663    0.46794134155879
              3.163927    0.36231203217765
 s    3 1.00
             7.8682724   -0.11933240861517
             1.8812885   -0.16085421161283
             0.5442493     1.1434564825515
 s    1 1.00
             0.1687144                   1
 p    3 1.00
             7.8682724   0.068999095584993
             1.8812885    0.31642397975315
             0.5442493    0.74430825237435
 p    1 1.00
             0.1687144                   1
 d    1 1.00
                   0.8                   1

41 0
 s    3 1.00
             18.731137    0.03349459952309
             2.8253937    0.23472694665786
             0.6401217    0.81375731841339
 s    1 1.00
             0.1612778                   1

42 0
 s    6 1.00
             5484.6717   0.001831099805527
             825.23495   0.013950098518422
             188.04696    0.06844509273075
               52.9645    0.23271427528445
              16.89757    0.47019295006289
             5.7996353    0.35852086192309
 s    3 1.00
             15.539616   -0.11077750382508
             3.5999336   -0.14802630511126
             1.0137618     1.1307670390447
 s    1 1.00
             0.2700058                   1
 p    3 1.00
             15.539616   0.070874299543311
             3.5999336    0.33975279781076
             1.0137618    0.72715859531445
 p    1 1.00
             0.2700058                   1
 d    1 1.00
                   0.8                   1

43 0
 s    3 1.00
             18.731137    0.03349459952309
             2.8253937    0.23472694665786
             0.6401217    0.81375731841339
 s    1 1.00
             0.1612778                   1

[5d]
[7f]
[9g]

[MO]
 Sym= A
 Ene=               0
 Spin= Alpha
 Occup=    1.00000
   1    -0.0023010273385951
   2     -0.28653828302432
   3     -0.18395855672816
   4     0.074071767073893
   5     0.046792518888045
   6      -0.1433986638808
   7    -0.014861194633981
   8    0.0048943095751599
   9    -0.049264039337716
  10    -0.0034943048463261
  11     0.004838505021156
  12    0.0043738397175605
  13    -0.0073469038981419
  14    -0.0052592850667297
  15    -0.063304330795079
  16     0.004618530475595
  17    0.0083097397662993
  18    -0.043205734223208
  19    -0.012958773005886
  20     0.006079586221522
  21      0.01095034901309
  22     -0.04777552390277
  23     0.009340596604326
  24     0.010864375345994
  25    -0.034855455316661
  26    -0.006313845007743
  27    -0.0021071441216673
  28    0.0017084055120434
  29    -0.00096001923688723
  30    -0.00010988517918823
  31    -0.011870474772427
  32    -0.0014700026758407
  33    -0.0031371951449414
  34     0.011726150635054
  35    -0.011453153300431
  36    0.0084611009143006
  37    0.00073400823890743
  38    -0.0030048021897579
  39     0.020444603922512
  40    0.0050832001764244
  41    -0.011144814084296
  42    -0.0004544709388812
  43    -0.00061499254086894
  44    9.8633121221857e-05
  45    0.0013585903334561
  46    -0.00039955802126271
  47    0.0026296989139744
  48    0.0024098087439363
  49    6.5702533141605e-06
  50     0.073775222338633
  51      0.03494277450405
  52     0.027757859012211
  53     0.009249251920269
  54    -0.034541729527152
  55     0.014136095435073
  56    -0.0066658871369472
  57    0.0017665856447293
  58    0.0014959518892293
  59    -0.0010189348109739
  60    -0.0019440821245314
  61    0.00099710290343934
  62    -0.00012538872200095
  63     0.015510800206107
  64    -0.0039904358975749
  65    -3.8699513097566e-05
  66    -3.5178860600595e-05
  67    -1.9439079268754e-05
  68    -1.4836518447374e-05
  69     0.000421746171598
  70    3.9451232484055e-05
  71    2.7876700025707e-06
  72    -2.7766175453627e-05
  73    -0.00022062549455544
  74    -0.00041783324153848
  75    -0.00023131378385968
  76    -2.7750217609214e-05
  77    -1.2768549533323e-05
  78    1.0040044572011e-05
  79    7.2527430483986e-06
  80    -1.1219201779259e-05
  81    -1.1510868879135e-05
  82    -0.00036455637024876
  83    1.7909984742414e-05
  84    -0.00013487879211821
  85    -0.0010850103944751
  86    0.00013196300283125
  87    -0.00010205858394293
  88    0.00027021307925756
  89    0.00040491532641211
  90    0.00046020266455503
  91    0.00044428755269838
  92    1.0539209810293e-05
  93    -3.3730594703253e-05
  94    -1.3394004992581e-06
  95    6.8804030501359e-07
  96    5.7212798286895e-08
  97    -2.4661102064524e-05
  98    -0.00023248513129432
  99    8.9877850906455e-05
 100    0.00020570526484975
 101    -6.1490257079579e-05
 102    2.9340699227156e-05
 103    0.00081994649684583
 104    0.00019139799094905
 105    0.00010087629878158
 106    -0.00037059383981859
 107    -0.002371509323298
 108    0.00084209545323197
 109    0.0030182538983003
 110    -3.6765090335862e-05
 111    -8.0279070360749e-05
 112    2.6723786455708e-05
 113    5.7930166787537e-05
 114    -2.6639778193516e-05
 115    -7.4916646220144e-05
 116     0.000189899490792
 117    0.0020052098905957
 118    -0.00010362089396589
 119    0.00033152904062061
 120    -1.7491150510473e-05
 121    -0.00046317242092352
 122    0.00023906096179927
 123    0.0014995943132221
 124    -1.3005637060869e-05
 125    -3.8647342782971e-05
 126    5.6649468224556e-05
 127    -5.1643762717914e-06
 128    -2.12208089812e-05
 129    -5.5589227674962e-06
 130    -0.00064638231692914
 131     0.011336543607741
 132    0.00012119207627903
 133    8.1153567507696e-05
 134    0.00063810192879075
 135    -0.0013738857474134
 136    0.0012075865272101
 137    -0.012123872130662
 138    0.00037644674868571
 139    -9.5589105110532e-05
 140    -0.0001116532080001
 141    -4.7648754761824e-05
 142    -6.8734564597452e-05
 143    -7.633626199847e-05
 144    8.0347987581065e-05
 145    0.0022399972773623
 146    -2.3784322783811e-05
 147    -0.0001279061269415
 148    -0.0004747842699221
 149    0.0026953352357066
 150    -0.0016259144720831
 151    0.0020108097082009
 152    -8.5215911552662e-05
 153    2.9072700182481e-05
 154    4.3751840022851e-05
 155    5.2002152251973e-05
 156    -5.2520829075534e-05
 157    -2.6597479276292e-05
 158    -0.00014775628370245
 159    0.0015749596564797
 160    -5.5535122211674e-05
 161    -1.3246185154638e-05
 162    3.7466266680963e-05
 163    -3.9151624218102e-05
 164    -0.00092220011854913
 165    -0.00025220526582001
 166    -2.7783572648591e-05
 167    5.4460436069038e-06
 168    -3.8395376414006e-06
 169    -5.127400753277e-05
 170    5.2345162691397e-06
 171    -1.109436528737e-05
 172    0.00022517878272425
 173    -0.00031517624298203
 174    3.6525940739141e-06
 175    -2.093984206496e-05
 176    -0.00029202970856657
 177    -0.00038933174162964
 178    0.00069617604953546
 179    8.2713320458271e-05
 180    -4.5750242525566e-06
 181    -5.7971738887603e-05
 182    -2.02646322747e-05
 183    -3.0295586222143e-05
 184    7.0566186442111e-06
 185    1.6688089991262e-05
 186    -2.1428063823239e-05
 187    -0.0017271448921121
 188    -1.0691270775701e-05
 189    5.4337556799168e-05
 190    0.00028340380557266
 191    0.00094749292933057
 192    0.00043163333660208
 193    0.00055247073104679
 194    -2.1227684424848e-05
 195    -4.1434677450192e-05
 196    -2.5886090387143e-05
 197    6.1655731794392e-06
 198    -2.3028787895764e-05
 199    4.8146800379149e-06
 200    -0.00033152770570299
 201    0.0001217969097789
 202    0.00045358112031603
 203    -0.00015655268037032
 204    -0.00062494766065476
 205    0.00013819878210251
 206    6.6743093286533e-05
 207    -0.00015453820309198
 208    0.00092425899398948
 209    -0.00010378210920291
 210    -0.00020622232118151
 211    -3.8579303204337e-05
 212    7.2016123806195e-05
 213    -5.8593522752472e-06
 214    0.00020857332807806
 215    3.4338029963278e-05
 216    0.00060601771685656
 217    -4.8941416979654e-05
 218    -0.00039156534385509
 219    4.7100333705949e-06
 220    0.0004399317247827
 221    -0.0011399476487918
 222    0.0027509457185034
 223    -0.024005712108401
 224     0.001463712015726
 225    0.00089401397766524
 226    -0.0029601862230546
 227    -0.016886978965196
 228    -0.0023545366798416
 229    -0.0081405366436914
 230    -0.00017838141769466
 231    0.00017027706796163
 232    0.00017404697656034
 233    -0.00017288598006659
 234    -0.00017326470048462
 235    0.0080640565864339
 236    -0.042048232073765
 237    -0.019605705046182
 238    -0.0066401414497124
 239    -0.011260436087574
 240     0.047533433215877
 241    -0.0073418560546112
 242    -0.0076738772010723
 243     0.030121198145575
 244    -0.0062485202975289
 245    -0.0018797112643131
 246     0.001903279240363
 247    -0.0008690368512838
 248    -0.00021423830216995
 249    -0.00079229078175516
 250    -0.008451598945534
 251    -0.0015685646742876
 252      -0.2862170928902
 253     -0.18854177033849
 254    -0.077168112563757
 255    -0.049910810096394
 256      0.14244355805484
 257     0.011213316988604
 258    -0.0072630992679104
 259     0.048884953503575
 260    -0.0035221230813868
 261    0.0047611005904163
 262      0.00446673060071
 263    -0.0070465598709004
 264    -0.0054579873721365
 265    -0.011347360325518
 266    -0.0016232390691341
 267    -0.061112886383161
 268    0.0059067792151831
 269    0.0012312348551512
 270     0.075026864687343
 271     0.060050027773006
 272    -0.026113551164143
 273     -0.01210901155881
 274     0.031253692616695
 275    -0.012133649454906
 276    -0.0014565497186843
 277    0.0060629039076982
 278    0.0016009013726696
 279    -0.0011659526246298
 280    -0.0023066356893513
 281    0.0010530758309468
 282    -0.0001203282431262
 283    -0.0023204015086949
 284     0.012587681575949