[Molden Format]
made by pyscf v[2.0.1]
[Atoms] (AU)
C   1   6     0.69100024066471     0.64692934207205    -3.48223131169301
H   2   1     2.68052439830868     1.13355088658700    -3.25784032593313
C   3   6    -0.36286361513219     0.85440132524594    -5.97030179418974
H   4   1    -2.35448549047279     0.36322488579172    -6.17995817793143
C   5   6     0.93697958957450     1.61209284601821    -8.05828437677121
H   6   1     2.50035468987728     2.93484935641869    -7.84122146962088
C   7   6     0.36255105159660     0.76050131278393   -10.56848504450332
H   8   1    -1.20802221204617    -0.56532983436663   -10.75608465244450
H   9   1     1.55630230933075    -1.92953025305990    12.99630010416247
C   10   6     0.75233899775814    -2.21270439606481    11.10705728102219
H   11   1    -0.43433408177274    -3.90944857546550    11.22216085340412
C   12   6     2.86362581178706    -2.63237380607947     9.17926416456045
H   13   1     4.39038949912609    -1.24955421540245     9.49899813497433
H   14   1     3.74629220191363    -4.48798724300892     9.47414880959024
C   15   6     2.02478325613682    -2.42177285709634     6.44560829588644
C   16   6     3.88048732735477    -3.58795445234514     4.61402886975252
C   17   6    -0.18412382258602    -1.30464291234259     5.76021113872346
C   18   6    -2.10044360464350    -0.26837831858460     7.71610340967100
C   19   6    -3.08956938670431     2.35282328359417     6.88693925039594
C   20   6    -4.37372924086464    -2.09766595989678     7.93610724222001
C   21   6    -0.83850430601230     0.06372213486173    10.33002307638377
H   22   1     0.38411922151109     1.74281358582432    10.27380136542181
H   23   1    -2.30980003007874     0.45460143924521    11.73986301809809
H   24   1     4.58527064644668    -5.38706904487420     5.36778158031719
H   25   1     5.54944938085014    -2.37631462192748     4.35398898413318
H   26   1     3.06633019150423    -3.94118377050688     2.75255466040884
H   27   1    -4.17727778763735     2.26573369139522     5.12914900961283
H   28   1    -1.52662344944051     3.68001877445626     6.59540397144508
H   29   1    -4.32916174397830     3.13643051467482     8.35225460090378
H   30   1    -5.32329548508442    -2.36691813602939     6.11583672749896
H   31   1    -5.77989366602257    -1.33896741843465     9.25748940450990
H   32   1    -3.79310905208926    -3.96389819310853     8.61386170102686
C   33   6    -1.01100794811226    -1.06331657314144     3.11929490449947
C   34   6     0.37686231036534    -0.33275864505552     1.09165013605873
H   35   1    -3.01671213906703    -1.40297922279997     2.77827895090944
C   36   6    -0.64382707979370    -0.11591880174385    -1.42063131251064
H   37   1     2.35569259782137     0.17174499283897     1.33641070251401
H   38   1    -2.63317482980319    -0.60229203511219    -1.66119700387645
C   39   6     1.60144441070444     1.46482489722556   -12.70057441592292
C   40   6     0.86980516734608     0.48994136718256   -15.17470632539007
H   41   1     3.18180515535191     2.77908821383906   -12.64635086980665
O   42   8     1.89724046327418     1.04291297454121   -17.16453627851552
H   43   1    -0.75645459108880    -0.84958730954869   -15.14122439828819
[GTO]
1 0
 s    6 1.00
             3047.5249  0.0018347001629433
             457.36951    0.01403730124668
             103.94869   0.068842606114048
             29.210155    0.23218442062076
              9.286663    0.46794134155879
              3.163927    0.36231203217765
 s    3 1.00
             7.8682724   -0.11933240861517
             1.8812885   -0.16085421161283
             0.5442493     1.1434564825515
 s    1 1.00
             0.1687144                   1
 p    3 1.00
             7.8682724   0.068999095584993
             1.8812885    0.31642397975315
             0.5442493    0.74430825237435
 p    1 1.00
             0.1687144                   1
 d    1 1.00
                   0.8                   1

2 0
 s    3 1.00
             18.731137    0.03349459952309
             2.8253937    0.23472694665786
             0.6401217    0.81375731841339
 s    1 1.00
             0.1612778                   1

3 0
 s    6 1.00
             3047.5249  0.0018347001629433
             457.36951    0.01403730124668
             103.94869   0.068842606114048
             29.210155    0.23218442062076
              9.286663    0.46794134155879
              3.163927    0.36231203217765
 s    3 1.00
             7.8682724   -0.11933240861517
             1.8812885   -0.16085421161283
             0.5442493     1.1434564825515
 s    1 1.00
             0.1687144                   1
 p    3 1.00
             7.8682724   0.068999095584993
             1.8812885    0.31642397975315
             0.5442493    0.74430825237435
 p    1 1.00
             0.1687144                   1
 d    1 1.00
                   0.8                   1

4 0
 s    3 1.00
             18.731137    0.03349459952309
             2.8253937    0.23472694665786
             0.6401217    0.81375731841339
 s    1 1.00
             0.1612778                   1

5 0
 s    6 1.00
             3047.5249  0.0018347001629433
             457.36951    0.01403730124668
             103.94869   0.068842606114048
             29.210155    0.23218442062076
              9.286663    0.46794134155879
              3.163927    0.36231203217765
 s    3 1.00
             7.8682724   -0.11933240861517
             1.8812885   -0.16085421161283
             0.5442493     1.1434564825515
 s    1 1.00
             0.1687144                   1
 p    3 1.00
             7.8682724   0.068999095584993
             1.8812885    0.31642397975315
             0.5442493    0.74430825237435
 p    1 1.00
             0.1687144                   1
 d    1 1.00
                   0.8                   1

6 0
 s    3 1.00
             18.731137    0.03349459952309
             2.8253937    0.23472694665786
             0.6401217    0.81375731841339
 s    1 1.00
             0.1612778                   1

7 0
 s    6 1.00
             3047.5249  0.0018347001629433
             457.36951    0.01403730124668
             103.94869   0.068842606114048
             29.210155    0.23218442062076
              9.286663    0.46794134155879
              3.163927    0.36231203217765
 s    3 1.00
             7.8682724   -0.11933240861517
             1.8812885   -0.16085421161283
             0.5442493     1.1434564825515
 s    1 1.00
             0.1687144                   1
 p    3 1.00
             7.8682724   0.068999095584993
             1.8812885    0.31642397975315
             0.5442493    0.74430825237435
 p    1 1.00
             0.1687144                   1
 d    1 1.00
                   0.8                   1

8 0
 s    3 1.00
             18.731137    0.03349459952309
             2.8253937    0.23472694665786
             0.6401217    0.81375731841339
 s    1 1.00
             0.1612778                   1

9 0
 s    3 1.00
             18.731137    0.03349459952309
             2.8253937    0.23472694665786
             0.6401217    0.81375731841339
 s    1 1.00
             0.1612778                   1

10 0
 s    6 1.00
             3047.5249  0.0018347001629433
             457.36951    0.01403730124668
             103.94869   0.068842606114048
             29.210155    0.23218442062076
              9.286663    0.46794134155879
              3.163927    0.36231203217765
 s    3 1.00
             7.8682724   -0.11933240861517
             1.8812885   -0.16085421161283
             0.5442493     1.1434564825515
 s    1 1.00
             0.1687144                   1
 p    3 1.00
             7.8682724   0.068999095584993
             1.8812885    0.31642397975315
             0.5442493    0.74430825237435
 p    1 1.00
             0.1687144                   1
 d    1 1.00
                   0.8                   1

11 0
 s    3 1.00
             18.731137    0.03349459952309
             2.8253937    0.23472694665786
             0.6401217    0.81375731841339
 s    1 1.00
             0.1612778                   1

12 0
 s    6 1.00
             3047.5249  0.0018347001629433
             457.36951    0.01403730124668
             103.94869   0.068842606114048
             29.210155    0.23218442062076
              9.286663    0.46794134155879
              3.163927    0.36231203217765
 s    3 1.00
             7.8682724   -0.11933240861517
             1.8812885   -0.16085421161283
             0.5442493     1.1434564825515
 s    1 1.00
             0.1687144                   1
 p    3 1.00
             7.8682724   0.068999095584993
             1.8812885    0.31642397975315
             0.5442493    0.74430825237435
 p    1 1.00
             0.1687144                   1
 d    1 1.00
                   0.8                   1

13 0
 s    3 1.00
             18.731137    0.03349459952309
             2.8253937    0.23472694665786
             0.6401217    0.81375731841339
 s    1 1.00
             0.1612778                   1

14 0
 s    3 1.00
             18.731137    0.03349459952309
             2.8253937    0.23472694665786
             0.6401217    0.81375731841339
 s    1 1.00
             0.1612778                   1

15 0
 s    6 1.00
             3047.5249  0.0018347001629433
             457.36951    0.01403730124668
             103.94869   0.068842606114048
             29.210155    0.23218442062076
              9.286663    0.46794134155879
              3.163927    0.36231203217765
 s    3 1.00
             7.8682724   -0.11933240861517
             1.8812885   -0.16085421161283
             0.5442493     1.1434564825515
 s    1 1.00
             0.1687144                   1
 p    3 1.00
             7.8682724   0.068999095584993
             1.8812885    0.31642397975315
             0.5442493    0.74430825237435
 p    1 1.00
             0.1687144                   1
 d    1 1.00
                   0.8                   1

16 0
 s    6 1.00
             3047.5249  0.0018347001629433
             457.36951    0.01403730124668
             103.94869   0.068842606114048
             29.210155    0.23218442062076
              9.286663    0.46794134155879
              3.163927    0.36231203217765
 s    3 1.00
             7.8682724   -0.11933240861517
             1.8812885   -0.16085421161283
             0.5442493     1.1434564825515
 s    1 1.00
             0.1687144                   1
 p    3 1.00
             7.8682724   0.068999095584993
             1.8812885    0.31642397975315
             0.5442493    0.74430825237435
 p    1 1.00
             0.1687144                   1
 d    1 1.00
                   0.8                   1

17 0
 s    6 1.00
             3047.5249  0.0018347001629433
             457.36951    0.01403730124668
             103.94869   0.068842606114048
             29.210155    0.23218442062076
              9.286663    0.46794134155879
              3.163927    0.36231203217765
 s    3 1.00
             7.8682724   -0.11933240861517
             1.8812885   -0.16085421161283
             0.5442493     1.1434564825515
 s    1 1.00
             0.1687144                   1
 p    3 1.00
             7.8682724   0.068999095584993
             1.8812885    0.31642397975315
             0.5442493    0.74430825237435
 p    1 1.00
             0.1687144                   1
 d    1 1.00
                   0.8                   1

18 0
 s    6 1.00
             3047.5249  0.0018347001629433
             457.36951    0.01403730124668
             103.94869   0.068842606114048
             29.210155    0.23218442062076
              9.286663    0.46794134155879
              3.163927    0.36231203217765
 s    3 1.00
             7.8682724   -0.11933240861517
             1.8812885   -0.16085421161283
             0.5442493     1.1434564825515
 s    1 1.00
             0.1687144                   1
 p    3 1.00
             7.8682724   0.068999095584993
             1.8812885    0.31642397975315
             0.5442493    0.74430825237435
 p    1 1.00
             0.1687144                   1
 d    1 1.00
                   0.8                   1

19 0
 s    6 1.00
             3047.5249  0.0018347001629433
             457.36951    0.01403730124668
             103.94869   0.068842606114048
             29.210155    0.23218442062076
              9.286663    0.46794134155879
              3.163927    0.36231203217765
 s    3 1.00
             7.8682724   -0.11933240861517
             1.8812885   -0.16085421161283
             0.5442493     1.1434564825515
 s    1 1.00
             0.1687144                   1
 p    3 1.00
             7.8682724   0.068999095584993
             1.8812885    0.31642397975315
             0.5442493    0.74430825237435
 p    1 1.00
             0.1687144                   1
 d    1 1.00
                   0.8                   1

20 0
 s    6 1.00
             3047.5249  0.0018347001629433
             457.36951    0.01403730124668
             103.94869   0.068842606114048
             29.210155    0.23218442062076
              9.286663    0.46794134155879
              3.163927    0.36231203217765
 s    3 1.00
             7.8682724   -0.11933240861517
             1.8812885   -0.16085421161283
             0.5442493     1.1434564825515
 s    1 1.00
             0.1687144                   1
 p    3 1.00
             7.8682724   0.068999095584993
             1.8812885    0.31642397975315
             0.5442493    0.74430825237435
 p    1 1.00
             0.1687144                   1
 d    1 1.00
                   0.8                   1

21 0
 s    6 1.00
             3047.5249  0.0018347001629433
             457.36951    0.01403730124668
             103.94869   0.068842606114048
             29.210155    0.23218442062076
              9.286663    0.46794134155879
              3.163927    0.36231203217765
 s    3 1.00
             7.8682724   -0.11933240861517
             1.8812885   -0.16085421161283
             0.5442493     1.1434564825515
 s    1 1.00
             0.1687144                   1
 p    3 1.00
             7.8682724   0.068999095584993
             1.8812885    0.31642397975315
             0.5442493    0.74430825237435
 p    1 1.00
             0.1687144                   1
 d    1 1.00
                   0.8                   1

22 0
 s    3 1.00
             18.731137    0.03349459952309
             2.8253937    0.23472694665786
             0.6401217    0.81375731841339
 s    1 1.00
             0.1612778                   1

23 0
 s    3 1.00
             18.731137    0.03349459952309
             2.8253937    0.23472694665786
             0.6401217    0.81375731841339
 s    1 1.00
             0.1612778                   1

24 0
 s    3 1.00
             18.731137    0.03349459952309
             2.8253937    0.23472694665786
             0.6401217    0.81375731841339
 s    1 1.00
             0.1612778                   1

25 0
 s    3 1.00
             18.731137    0.03349459952309
             2.8253937    0.23472694665786
             0.6401217    0.81375731841339
 s    1 1.00
             0.1612778                   1

26 0
 s    3 1.00
             18.731137    0.03349459952309
             2.8253937    0.23472694665786
             0.6401217    0.81375731841339
 s    1 1.00
             0.1612778                   1

27 0
 s    3 1.00
             18.731137    0.03349459952309
             2.8253937    0.23472694665786
             0.6401217    0.81375731841339
 s    1 1.00
             0.1612778                   1

28 0
 s    3 1.00
             18.731137    0.03349459952309
             2.8253937    0.23472694665786
             0.6401217    0.81375731841339
 s    1 1.00
             0.1612778                   1

29 0
 s    3 1.00
             18.731137    0.03349459952309
             2.8253937    0.23472694665786
             0.6401217    0.81375731841339
 s    1 1.00
             0.1612778                   1

30 0
 s    3 1.00
             18.731137    0.03349459952309
             2.8253937    0.23472694665786
             0.6401217    0.81375731841339
 s    1 1.00
             0.1612778                   1

31 0
 s    3 1.00
             18.731137    0.03349459952309
             2.8253937    0.23472694665786
             0.6401217    0.81375731841339
 s    1 1.00
             0.1612778                   1

32 0
 s    3 1.00
             18.731137    0.03349459952309
             2.8253937    0.23472694665786
             0.6401217    0.81375731841339
 s    1 1.00
             0.1612778                   1

33 0
 s    6 1.00
             3047.5249  0.0018347001629433
             457.36951    0.01403730124668
             103.94869   0.068842606114048
             29.210155    0.23218442062076
              9.286663    0.46794134155879
              3.163927    0.36231203217765
 s    3 1.00
             7.8682724   -0.11933240861517
             1.8812885   -0.16085421161283
             0.5442493     1.1434564825515
 s    1 1.00
             0.1687144                   1
 p    3 1.00
             7.8682724   0.068999095584993
             1.8812885    0.31642397975315
             0.5442493    0.74430825237435
 p    1 1.00
             0.1687144                   1
 d    1 1.00
                   0.8                   1

34 0
 s    6 1.00
             3047.5249  0.0018347001629433
             457.36951    0.01403730124668
             103.94869   0.068842606114048
             29.210155    0.23218442062076
              9.286663    0.46794134155879
              3.163927    0.36231203217765
 s    3 1.00
             7.8682724   -0.11933240861517
             1.8812885   -0.16085421161283
             0.5442493     1.1434564825515
 s    1 1.00
             0.1687144                   1
 p    3 1.00
             7.8682724   0.068999095584993
             1.8812885    0.31642397975315
             0.5442493    0.74430825237435
 p    1 1.00
             0.1687144                   1
 d    1 1.00
                   0.8                   1

35 0
 s    3 1.00
             18.731137    0.03349459952309
             2.8253937    0.23472694665786
             0.6401217    0.81375731841339
 s    1 1.00
             0.1612778                   1

36 0
 s    6 1.00
             3047.5249  0.0018347001629433
             457.36951    0.01403730124668
             103.94869   0.068842606114048
             29.210155    0.23218442062076
              9.286663    0.46794134155879
              3.163927    0.36231203217765
 s    3 1.00
             7.8682724   -0.11933240861517
             1.8812885   -0.16085421161283
             0.5442493     1.1434564825515
 s    1 1.00
             0.1687144                   1
 p    3 1.00
             7.8682724   0.068999095584993
             1.8812885    0.31642397975315
             0.5442493    0.74430825237435
 p    1 1.00
             0.1687144                   1
 d    1 1.00
                   0.8                   1

37 0
 s    3 1.00
             18.731137    0.03349459952309
             2.8253937    0.23472694665786
             0.6401217    0.81375731841339
 s    1 1.00
             0.1612778                   1

38 0
 s    3 1.00
             18.731137    0.03349459952309
             2.8253937    0.23472694665786
             0.6401217    0.81375731841339
 s    1 1.00
             0.1612778                   1

39 0
 s    6 1.00
             3047.5249  0.0018347001629433
             457.36951    0.01403730124668
             103.94869   0.068842606114048
             29.210155    0.23218442062076
              9.286663    0.46794134155879
              3.163927    0.36231203217765
 s    3 1.00
             7.8682724   -0.11933240861517
             1.8812885   -0.16085421161283
             0.5442493     1.1434564825515
 s    1 1.00
             0.1687144                   1
 p    3 1.00
             7.8682724   0.068999095584993
             1.8812885    0.31642397975315
             0.5442493    0.74430825237435
 p    1 1.00
             0.1687144                   1
 d    1 1.00
                   0.8                   1

40 0
 s    6 1.00
             3047.5249  0.0018347001629433
             457.36951    0.01403730124668
             103.94869   0.068842606114048
             29.210155    0.23218442062076
              9.286663    0.46794134155879
              3.163927    0.36231203217765
 s    3 1.00
             7.8682724   -0.11933240861517
             1.8812885   -0.16085421161283
             0.5442493     1.1434564825515
 s    1 1.00
             0.1687144                   1
 p    3 1.00
             7.8682724   0.068999095584993
             1.8812885    0.31642397975315
             0.5442493    0.74430825237435
 p    1 1.00
             0.1687144                   1
 d    1 1.00
                   0.8                   1

41 0
 s    3 1.00
             18.731137    0.03349459952309
             2.8253937    0.23472694665786
             0.6401217    0.81375731841339
 s    1 1.00
             0.1612778                   1

42 0
 s    6 1.00
             5484.6717   0.001831099805527
             825.23495   0.013950098518422
             188.04696    0.06844509273075
               52.9645    0.23271427528445
              16.89757    0.47019295006289
             5.7996353    0.35852086192309
 s    3 1.00
             15.539616   -0.11077750382508
             3.5999336   -0.14802630511126
             1.0137618     1.1307670390447
 s    1 1.00
             0.2700058                   1
 p    3 1.00
             15.539616   0.070874299543311
             3.5999336    0.33975279781076
             1.0137618    0.72715859531445
 p    1 1.00
             0.2700058                   1
 d    1 1.00
                   0.8                   1

43 0
 s    3 1.00
             18.731137    0.03349459952309
             2.8253937    0.23472694665786
             0.6401217    0.81375731841339
 s    1 1.00
             0.1612778                   1

[5d]
[7f]
[9g]

[MO]
 Sym= A
 Ene=               0
 Spin= Alpha
 Occup=    1.00000
   1    0.0022120160961204
   2      0.25940944762392
   3      0.16144912207795
   4    -0.068482390524739
   5     -0.04361538510387
   6      0.12779992757236
   7     0.013165744967375
   8    -0.0061313203908588
   9     0.046286219095808
  10    0.0029895047408255
  11    -0.0043020224408917
  12    -0.0038492864422951
  13    0.0065277440577903
  14     0.005041670213101
  15     0.056320699232498
  16    -0.0039766587654193
  17    -0.006939662445997
  18     0.038516937643038
  19      0.02867244339794
  20    -0.0064555354942838
  21    -0.010592238853311
  22     0.046197283085227
  23    -0.0019095955773684
  24    -0.0040482459438697
  25     0.030512402263839
  26    0.0057308926221038
  27    0.0018480397387587
  28    -0.0018887842983726
  29    0.00084095773344983
  30    0.00033170982703034
  31     0.011251301542087
  32    0.0039896115641823
  33    -0.0028967960419106
  34     0.018167660527359
  35     0.029702698398296
  36    0.0056475362208305
  37    0.0015947701379742
  38    -0.027091407807609
  39    -0.006781981569853
  40    -0.0044054277491025
  41    -0.018064394437257
  42    0.0034233875771897
  43    -0.00013640039044519
  44     0.001141022596836
  45    0.00017429605413495
  46    0.00065831557157954
  47    0.0060162832060119
  48    0.0060316291081726
  49    0.00070218611716028
  50      0.14519190608801
  51     0.080189866649829
  52     0.037966502897883
  53     0.020087243746228
  54    -0.074078347015653
  55    -0.0035316179516088
  56    -0.0079352996814014
  57    -0.027445482370683
  58    0.0016905560233489
  59    -0.0026570609233369
  60    -0.0011155625291351
  61    0.0012381468783399
  62    0.0042176042654905
  63     0.030634879741552
  64    -0.0022048961001492
  65    3.1897671146384e-05
  66    1.3988764353868e-05
  67    1.8075231033505e-05
  68    1.6224275907729e-05
  69    -0.00035717662193874
  70    -2.9988496740666e-05
  71    -8.9938110349231e-06
  72    2.0910973060629e-05
  73    0.00019474758275685
  74    0.00035492351799979
  75    0.00021740495790718
  76    2.4142166105739e-05
  77    1.0507761546721e-05
  78    -8.5379099752873e-06
  79    -7.0969856207551e-06
  80    9.0599666286724e-06
  81    1.0528502390275e-05
  82    0.00031373577270001
  83    -1.9467704530295e-05
  84    0.00011809091899774
  85    0.00093418192470933
  86    -0.00012442916832693
  87    8.727941385607e-05
  88    -0.00024649028057364
  89    -0.00035513543882734
  90    -0.00038002740026837
  91    -0.00038766024093581
  92    -7.4422422108659e-06
  93    2.7338960761753e-05
  94    -1.9941898849594e-06
  95    -8.414689335377e-07
  96    -1.7516148417421e-06
  97    6.7531141729096e-06
  98    0.00017002091488125
  99    -7.2236466495189e-05
 100    -0.0001691923569475
 101    6.9951161518315e-05
 102    -4.0561133980772e-05
 103    -0.0011260445797519
 104    -0.00010288060162916
 105    -5.5833166039066e-05
 106    0.00034863100272969
 107    0.0021285662522389
 108    -0.00075027544080217
 109    -0.0024274768931107
 110    2.8574495209126e-05
 111    6.6034521367433e-05
 112    -1.9471361246029e-05
 113    -4.8946769952804e-05
 114    2.6596992316017e-05
 115    5.6102068564356e-05
 116    -0.00018150707521165
 117    -0.0015706011539645
 118    8.7443146079597e-05
 119    -0.00028921353185372
 120    1.5909366332399e-05
 121    0.00030616939908523
 122    -4.9375469421672e-05
 123    -0.0013258565035826
 124    1.0629288408983e-05
 125    3.4620526028219e-05
 126    -4.3308170081701e-05
 127    6.1065395476301e-06
 128    1.7808001309206e-05
 129    1.6909806834592e-05
 130    0.00049666869829074
 131    -0.010143656019358
 132    -0.00011969497740356
 133    -8.4237313089392e-05
 134    -0.00048363799395354
 135    0.0016037120186557
 136    -0.0011376597816299
 137     0.010456314729833
 138    -0.00031455324240091
 139    7.5429352260607e-05
 140    9.7563100024243e-05
 141    4.1580002802795e-05
 142    6.238501479206e-05
 143    4.6758227956983e-05
 144    -5.468873075501e-05
 145    -0.001543475060466
 146    6.5914705148846e-05
 147    9.1928582451103e-05
 148    0.00034919709575372
 149    -0.0021791156318157
 150    0.0012259087880423
 151    -0.0017839842811703
 152    6.9551299024393e-05
 153    -2.8936670336211e-05
 154    -3.3164322901036e-05
 155    -4.3266143181194e-05
 156    4.2901887143852e-05
 157    1.5115653149176e-05
 158    0.00013240111107838
 159    -0.0012399372653542
 160    4.6083672073898e-05
 161    2.7110788123484e-07
 162    -4.2539042810057e-05
 163    3.6645096237254e-05
 164    0.00076885529614372
 165    0.00022199419362935
 166    2.141603375916e-05
 167    -3.0260664483921e-06
 168    1.3745051322604e-06
 169    4.4029238733894e-05
 170    -5.9428888129982e-06
 171    7.2253748779033e-06
 172    -0.00020387355049769
 173    0.00030109682659447
 174    -7.7483830973907e-06
 175    1.6898405914349e-05
 176    0.00024145109223001
 177    0.00026597910370605
 178    -0.00063027255793531
 179    -0.00013517081141822
 180    5.3700241739238e-06
 181    4.8049794307028e-05
 182    1.7449189341369e-05
 183    2.5622739668871e-05
 184    -7.9340189233655e-06
 185    -6.9609912869975e-06
 186    1.4813596693169e-05
 187    0.0013714876854727
 188    2.3024705782041e-05
 189    -3.9991705099293e-05
 190    -0.00021506964750043
 191    -0.00080057358208061
 192    -0.00033137731723262
 193    -0.00040882437965674
 194    1.9440305142433e-05
 195    3.2018421022529e-05
 196    2.1568266460462e-05
 197    -4.9150811241792e-06
 198    1.8701841068223e-05
 199    -5.6729257299883e-06
 200    0.00027331796411931
 201    -9.020389524496e-05
 202    -0.00034815961929597
 203     0.000139546358035
 204    0.00063255961551508
 205    -0.00013164993539245
 206    -0.00010604179930339
 207    0.00012963948095034
 208    -0.00080016854373233
 209    9.0979696022013e-05
 210    0.00016433969649886
 211    3.2057391308839e-05
 212    -8.0345070498234e-05
 213    -2.2522406317515e-06
 214    -0.00019478075946991
 215    -2.0253176153744e-05
 216    -0.00067139386080672
 217    4.5315445603984e-05
 218    0.00036688156304379
 219    -1.0516271843233e-05
 220    -0.0003812191574581
 221    0.00094919007636602
 222    -0.0022078177229343
 223     0.020190766854006
 224    -0.00097500777813334
 225    -0.00087395793571346
 226    0.0024440055570661
 227     0.015050923113183
 228    0.0017656830349682
 229    0.0077120847839378
 230    0.00011184680524454
 231    -0.00013226156814333
 232    -0.00013250240759851
 233    0.00015043623179516
 234    0.00014850573184093
 235    -0.0069052884385428
 236     0.035780889673793
 237     0.018790560441012
 238    0.0054078348589049
 239    0.0098168468660532
 240    -0.041016282518359
 241    0.0050656631192849
 242     0.006810746266372
 243    -0.026566715621145
 244    0.0056439368908897
 245    0.0016803943779161
 246    -0.0017261965692376
 247    0.00075504838782404
 248    0.00016788501240019
 249    0.00065113861092561
 250    0.0077056168253566
 251    0.0015009819910668
 252      0.25786366414324
 253      0.16926739178598
 254     0.067452777094288
 255     0.044201626293466
 256     -0.13062794464216
 257    -0.011569014796819
 258    0.0066270041746358
 259    -0.046806283456193
 260    0.0032329277176043
 261    -0.0044597256331579
 262    -0.0038647166849074
 263    0.0065113054275028
 264    0.0048276007060717
 265    0.0093757340786164
 266    0.0013171029184181
 267     0.056390949808755
 268    -0.0045790847724726
 269    0.0018321132916582
 270      0.14231299743573
 271     0.099789255987534
 272    -0.034654189576918
 273    -0.016737463648013
 274     0.074213001789316
 275    0.0015512394517298
 276    0.0060453339471209
 277     0.026988332906014
 278    0.0021646807369398
 279    -0.0031750704817981
 280    -0.001452649317305
 281    0.0012330236261925
 282    0.0044827835947191
 283    -0.0040720882126613
 284     0.020505548890804
 285     0.012014775860743