[Molden Format]
made by pyscf v[2.0.1]
[Atoms] (AU)
C   1   6     0.69100024066471     0.64692934207205    -3.48223131169301
H   2   1     2.68052439830868     1.13355088658700    -3.25784032593313
C   3   6    -0.36286361513219     0.85440132524594    -5.97030179418974
H   4   1    -2.35448549047279     0.36322488579172    -6.17995817793143
C   5   6     0.93697958957450     1.61209284601821    -8.05828437677121
H   6   1    -0.10682308805726     2.30253989392639    -9.69373588628611
C   7   6     3.64263503193718     1.55467149193689    -8.23832629511906
H   8   1     4.66272936056768     0.85936926442728    -6.58433578959761
H   9   1     1.55630230933075    -1.92953025305990    12.99630010416247
C   10   6     0.75233899775814    -2.21270439606481    11.10705728102219
H   11   1    -0.43433408177274    -3.90944857546550    11.22216085340412
C   12   6     2.86362581178706    -2.63237380607947     9.17926416456045
H   13   1     4.39038949912609    -1.24955421540245     9.49899813497433
H   14   1     3.74629220191363    -4.48798724300892     9.47414880959024
C   15   6     2.02478325613682    -2.42177285709634     6.44560829588644
C   16   6     3.88048732735477    -3.58795445234514     4.61402886975252
C   17   6    -0.18412382258602    -1.30464291234259     5.76021113872346
C   18   6    -2.10044360464350    -0.26837831858460     7.71610340967100
C   19   6    -3.08956938670431     2.35282328359417     6.88693925039594
C   20   6    -4.37372924086464    -2.09766595989678     7.93610724222001
C   21   6    -0.83850430601230     0.06372213486173    10.33002307638377
H   22   1     0.38411922151109     1.74281358582432    10.27380136542181
H   23   1    -2.30980003007874     0.45460143924521    11.73986301809809
H   24   1     4.58527064644668    -5.38706904487420     5.36778158031719
H   25   1     5.54944938085014    -2.37631462192748     4.35398898413318
H   26   1     3.06633019150423    -3.94118377050688     2.75255466040884
H   27   1    -4.17727778763735     2.26573369139522     5.12914900961283
H   28   1    -1.52662344944051     3.68001877445626     6.59540397144508
H   29   1    -4.32916174397830     3.13643051467482     8.35225460090378
H   30   1    -5.32329548508442    -2.36691813602939     6.11583672749896
H   31   1    -5.77989366602257    -1.33896741843465     9.25748940450990
H   32   1    -3.79310905208926    -3.96389819310853     8.61386170102686
C   33   6    -1.01100794811226    -1.06331657314144     3.11929490449947
C   34   6     0.37686231036534    -0.33275864505552     1.09165013605873
H   35   1    -3.01671213906703    -1.40297922279997     2.77827895090944
C   36   6    -0.64382707979370    -0.11591880174385    -1.42063131251064
H   37   1     2.35569259782137     0.17174499283897     1.33641070251401
H   38   1    -2.63317482980319    -0.60229203511219    -1.66119700387645
C   39   6     5.01588399354044     2.28654094702299   -10.27677863573407
C   40   6     7.77080404832789     2.15450646451281   -10.27454889780196
H   41   1     4.11782812209845     2.99683739506263   -11.98462609656630
O   42   8     9.12060555425099     2.77825484064970   -12.03801083010553
H   43   1     8.60983853061047     1.41663292301779    -8.48800399433497
[GTO]
1 0
 s    6 1.00
             3047.5249  0.0018347001629433
             457.36951    0.01403730124668
             103.94869   0.068842606114048
             29.210155    0.23218442062076
              9.286663    0.46794134155879
              3.163927    0.36231203217765
 s    3 1.00
             7.8682724   -0.11933240861517
             1.8812885   -0.16085421161283
             0.5442493     1.1434564825515
 s    1 1.00
             0.1687144                   1
 p    3 1.00
             7.8682724   0.068999095584993
             1.8812885    0.31642397975315
             0.5442493    0.74430825237435
 p    1 1.00
             0.1687144                   1
 d    1 1.00
                   0.8                   1

2 0
 s    3 1.00
             18.731137    0.03349459952309
             2.8253937    0.23472694665786
             0.6401217    0.81375731841339
 s    1 1.00
             0.1612778                   1

3 0
 s    6 1.00
             3047.5249  0.0018347001629433
             457.36951    0.01403730124668
             103.94869   0.068842606114048
             29.210155    0.23218442062076
              9.286663    0.46794134155879
              3.163927    0.36231203217765
 s    3 1.00
             7.8682724   -0.11933240861517
             1.8812885   -0.16085421161283
             0.5442493     1.1434564825515
 s    1 1.00
             0.1687144                   1
 p    3 1.00
             7.8682724   0.068999095584993
             1.8812885    0.31642397975315
             0.5442493    0.74430825237435
 p    1 1.00
             0.1687144                   1
 d    1 1.00
                   0.8                   1

4 0
 s    3 1.00
             18.731137    0.03349459952309
             2.8253937    0.23472694665786
             0.6401217    0.81375731841339
 s    1 1.00
             0.1612778                   1

5 0
 s    6 1.00
             3047.5249  0.0018347001629433
             457.36951    0.01403730124668
             103.94869   0.068842606114048
             29.210155    0.23218442062076
              9.286663    0.46794134155879
              3.163927    0.36231203217765
 s    3 1.00
             7.8682724   -0.11933240861517
             1.8812885   -0.16085421161283
             0.5442493     1.1434564825515
 s    1 1.00
             0.1687144                   1
 p    3 1.00
             7.8682724   0.068999095584993
             1.8812885    0.31642397975315
             0.5442493    0.74430825237435
 p    1 1.00
             0.1687144                   1
 d    1 1.00
                   0.8                   1

6 0
 s    3 1.00
             18.731137    0.03349459952309
             2.8253937    0.23472694665786
             0.6401217    0.81375731841339
 s    1 1.00
             0.1612778                   1

7 0
 s    6 1.00
             3047.5249  0.0018347001629433
             457.36951    0.01403730124668
             103.94869   0.068842606114048
             29.210155    0.23218442062076
              9.286663    0.46794134155879
              3.163927    0.36231203217765
 s    3 1.00
             7.8682724   -0.11933240861517
             1.8812885   -0.16085421161283
             0.5442493     1.1434564825515
 s    1 1.00
             0.1687144                   1
 p    3 1.00
             7.8682724   0.068999095584993
             1.8812885    0.31642397975315
             0.5442493    0.74430825237435
 p    1 1.00
             0.1687144                   1
 d    1 1.00
                   0.8                   1

8 0
 s    3 1.00
             18.731137    0.03349459952309
             2.8253937    0.23472694665786
             0.6401217    0.81375731841339
 s    1 1.00
             0.1612778                   1

9 0
 s    3 1.00
             18.731137    0.03349459952309
             2.8253937    0.23472694665786
             0.6401217    0.81375731841339
 s    1 1.00
             0.1612778                   1

10 0
 s    6 1.00
             3047.5249  0.0018347001629433
             457.36951    0.01403730124668
             103.94869   0.068842606114048
             29.210155    0.23218442062076
              9.286663    0.46794134155879
              3.163927    0.36231203217765
 s    3 1.00
             7.8682724   -0.11933240861517
             1.8812885   -0.16085421161283
             0.5442493     1.1434564825515
 s    1 1.00
             0.1687144                   1
 p    3 1.00
             7.8682724   0.068999095584993
             1.8812885    0.31642397975315
             0.5442493    0.74430825237435
 p    1 1.00
             0.1687144                   1
 d    1 1.00
                   0.8                   1

11 0
 s    3 1.00
             18.731137    0.03349459952309
             2.8253937    0.23472694665786
             0.6401217    0.81375731841339
 s    1 1.00
             0.1612778                   1

12 0
 s    6 1.00
             3047.5249  0.0018347001629433
             457.36951    0.01403730124668
             103.94869   0.068842606114048
             29.210155    0.23218442062076
              9.286663    0.46794134155879
              3.163927    0.36231203217765
 s    3 1.00
             7.8682724   -0.11933240861517
             1.8812885   -0.16085421161283
             0.5442493     1.1434564825515
 s    1 1.00
             0.1687144                   1
 p    3 1.00
             7.8682724   0.068999095584993
             1.8812885    0.31642397975315
             0.5442493    0.74430825237435
 p    1 1.00
             0.1687144                   1
 d    1 1.00
                   0.8                   1

13 0
 s    3 1.00
             18.731137    0.03349459952309
             2.8253937    0.23472694665786
             0.6401217    0.81375731841339
 s    1 1.00
             0.1612778                   1

14 0
 s    3 1.00
             18.731137    0.03349459952309
             2.8253937    0.23472694665786
             0.6401217    0.81375731841339
 s    1 1.00
             0.1612778                   1

15 0
 s    6 1.00
             3047.5249  0.0018347001629433
             457.36951    0.01403730124668
             103.94869   0.068842606114048
             29.210155    0.23218442062076
              9.286663    0.46794134155879
              3.163927    0.36231203217765
 s    3 1.00
             7.8682724   -0.11933240861517
             1.8812885   -0.16085421161283
             0.5442493     1.1434564825515
 s    1 1.00
             0.1687144                   1
 p    3 1.00
             7.8682724   0.068999095584993
             1.8812885    0.31642397975315
             0.5442493    0.74430825237435
 p    1 1.00
             0.1687144                   1
 d    1 1.00
                   0.8                   1

16 0
 s    6 1.00
             3047.5249  0.0018347001629433
             457.36951    0.01403730124668
             103.94869   0.068842606114048
             29.210155    0.23218442062076
              9.286663    0.46794134155879
              3.163927    0.36231203217765
 s    3 1.00
             7.8682724   -0.11933240861517
             1.8812885   -0.16085421161283
             0.5442493     1.1434564825515
 s    1 1.00
             0.1687144                   1
 p    3 1.00
             7.8682724   0.068999095584993
             1.8812885    0.31642397975315
             0.5442493    0.74430825237435
 p    1 1.00
             0.1687144                   1
 d    1 1.00
                   0.8                   1

17 0
 s    6 1.00
             3047.5249  0.0018347001629433
             457.36951    0.01403730124668
             103.94869   0.068842606114048
             29.210155    0.23218442062076
              9.286663    0.46794134155879
              3.163927    0.36231203217765
 s    3 1.00
             7.8682724   -0.11933240861517
             1.8812885   -0.16085421161283
             0.5442493     1.1434564825515
 s    1 1.00
             0.1687144                   1
 p    3 1.00
             7.8682724   0.068999095584993
             1.8812885    0.31642397975315
             0.5442493    0.74430825237435
 p    1 1.00
             0.1687144                   1
 d    1 1.00
                   0.8                   1

18 0
 s    6 1.00
             3047.5249  0.0018347001629433
             457.36951    0.01403730124668
             103.94869   0.068842606114048
             29.210155    0.23218442062076
              9.286663    0.46794134155879
              3.163927    0.36231203217765
 s    3 1.00
             7.8682724   -0.11933240861517
             1.8812885   -0.16085421161283
             0.5442493     1.1434564825515
 s    1 1.00
             0.1687144                   1
 p    3 1.00
             7.8682724   0.068999095584993
             1.8812885    0.31642397975315
             0.5442493    0.74430825237435
 p    1 1.00
             0.1687144                   1
 d    1 1.00
                   0.8                   1

19 0
 s    6 1.00
             3047.5249  0.0018347001629433
             457.36951    0.01403730124668
             103.94869   0.068842606114048
             29.210155    0.23218442062076
              9.286663    0.46794134155879
              3.163927    0.36231203217765
 s    3 1.00
             7.8682724   -0.11933240861517
             1.8812885   -0.16085421161283
             0.5442493     1.1434564825515
 s    1 1.00
             0.1687144                   1
 p    3 1.00
             7.8682724   0.068999095584993
             1.8812885    0.31642397975315
             0.5442493    0.74430825237435
 p    1 1.00
             0.1687144                   1
 d    1 1.00
                   0.8                   1

20 0
 s    6 1.00
             3047.5249  0.0018347001629433
             457.36951    0.01403730124668
             103.94869   0.068842606114048
             29.210155    0.23218442062076
              9.286663    0.46794134155879
              3.163927    0.36231203217765
 s    3 1.00
             7.8682724   -0.11933240861517
             1.8812885   -0.16085421161283
             0.5442493     1.1434564825515
 s    1 1.00
             0.1687144                   1
 p    3 1.00
             7.8682724   0.068999095584993
             1.8812885    0.31642397975315
             0.5442493    0.74430825237435
 p    1 1.00
             0.1687144                   1
 d    1 1.00
                   0.8                   1

21 0
 s    6 1.00
             3047.5249  0.0018347001629433
             457.36951    0.01403730124668
             103.94869   0.068842606114048
             29.210155    0.23218442062076
              9.286663    0.46794134155879
              3.163927    0.36231203217765
 s    3 1.00
             7.8682724   -0.11933240861517
             1.8812885   -0.16085421161283
             0.5442493     1.1434564825515
 s    1 1.00
             0.1687144                   1
 p    3 1.00
             7.8682724   0.068999095584993
             1.8812885    0.31642397975315
             0.5442493    0.74430825237435
 p    1 1.00
             0.1687144                   1
 d    1 1.00
                   0.8                   1

22 0
 s    3 1.00
             18.731137    0.03349459952309
             2.8253937    0.23472694665786
             0.6401217    0.81375731841339
 s    1 1.00
             0.1612778                   1

23 0
 s    3 1.00
             18.731137    0.03349459952309
             2.8253937    0.23472694665786
             0.6401217    0.81375731841339
 s    1 1.00
             0.1612778                   1

24 0
 s    3 1.00
             18.731137    0.03349459952309
             2.8253937    0.23472694665786
             0.6401217    0.81375731841339
 s    1 1.00
             0.1612778                   1

25 0
 s    3 1.00
             18.731137    0.03349459952309
             2.8253937    0.23472694665786
             0.6401217    0.81375731841339
 s    1 1.00
             0.1612778                   1

26 0
 s    3 1.00
             18.731137    0.03349459952309
             2.8253937    0.23472694665786
             0.6401217    0.81375731841339
 s    1 1.00
             0.1612778                   1

27 0
 s    3 1.00
             18.731137    0.03349459952309
             2.8253937    0.23472694665786
             0.6401217    0.81375731841339
 s    1 1.00
             0.1612778                   1

28 0
 s    3 1.00
             18.731137    0.03349459952309
             2.8253937    0.23472694665786
             0.6401217    0.81375731841339
 s    1 1.00
             0.1612778                   1

29 0
 s    3 1.00
             18.731137    0.03349459952309
             2.8253937    0.23472694665786
             0.6401217    0.81375731841339
 s    1 1.00
             0.1612778                   1

30 0
 s    3 1.00
             18.731137    0.03349459952309
             2.8253937    0.23472694665786
             0.6401217    0.81375731841339
 s    1 1.00
             0.1612778                   1

31 0
 s    3 1.00
             18.731137    0.03349459952309
             2.8253937    0.23472694665786
             0.6401217    0.81375731841339
 s    1 1.00
             0.1612778                   1

32 0
 s    3 1.00
             18.731137    0.03349459952309
             2.8253937    0.23472694665786
             0.6401217    0.81375731841339
 s    1 1.00
             0.1612778                   1

33 0
 s    6 1.00
             3047.5249  0.0018347001629433
             457.36951    0.01403730124668
             103.94869   0.068842606114048
             29.210155    0.23218442062076
              9.286663    0.46794134155879
              3.163927    0.36231203217765
 s    3 1.00
             7.8682724   -0.11933240861517
             1.8812885   -0.16085421161283
             0.5442493     1.1434564825515
 s    1 1.00
             0.1687144                   1
 p    3 1.00
             7.8682724   0.068999095584993
             1.8812885    0.31642397975315
             0.5442493    0.74430825237435
 p    1 1.00
             0.1687144                   1
 d    1 1.00
                   0.8                   1

34 0
 s    6 1.00
             3047.5249  0.0018347001629433
             457.36951    0.01403730124668
             103.94869   0.068842606114048
             29.210155    0.23218442062076
              9.286663    0.46794134155879
              3.163927    0.36231203217765
 s    3 1.00
             7.8682724   -0.11933240861517
             1.8812885   -0.16085421161283
             0.5442493     1.1434564825515
 s    1 1.00
             0.1687144                   1
 p    3 1.00
             7.8682724   0.068999095584993
             1.8812885    0.31642397975315
             0.5442493    0.74430825237435
 p    1 1.00
             0.1687144                   1
 d    1 1.00
                   0.8                   1

35 0
 s    3 1.00
             18.731137    0.03349459952309
             2.8253937    0.23472694665786
             0.6401217    0.81375731841339
 s    1 1.00
             0.1612778                   1

36 0
 s    6 1.00
             3047.5249  0.0018347001629433
             457.36951    0.01403730124668
             103.94869   0.068842606114048
             29.210155    0.23218442062076
              9.286663    0.46794134155879
              3.163927    0.36231203217765
 s    3 1.00
             7.8682724   -0.11933240861517
             1.8812885   -0.16085421161283
             0.5442493     1.1434564825515
 s    1 1.00
             0.1687144                   1
 p    3 1.00
             7.8682724   0.068999095584993
             1.8812885    0.31642397975315
             0.5442493    0.74430825237435
 p    1 1.00
             0.1687144                   1
 d    1 1.00
                   0.8                   1

37 0
 s    3 1.00
             18.731137    0.03349459952309
             2.8253937    0.23472694665786
             0.6401217    0.81375731841339
 s    1 1.00
             0.1612778                   1

38 0
 s    3 1.00
             18.731137    0.03349459952309
             2.8253937    0.23472694665786
             0.6401217    0.81375731841339
 s    1 1.00
             0.1612778                   1

39 0
 s    6 1.00
             3047.5249  0.0018347001629433
             457.36951    0.01403730124668
             103.94869   0.068842606114048
             29.210155    0.23218442062076
              9.286663    0.46794134155879
              3.163927    0.36231203217765
 s    3 1.00
             7.8682724   -0.11933240861517
             1.8812885   -0.16085421161283
             0.5442493     1.1434564825515
 s    1 1.00
             0.1687144                   1
 p    3 1.00
             7.8682724   0.068999095584993
             1.8812885    0.31642397975315
             0.5442493    0.74430825237435
 p    1 1.00
             0.1687144                   1
 d    1 1.00
                   0.8                   1

40 0
 s    6 1.00
             3047.5249  0.0018347001629433
             457.36951    0.01403730124668
             103.94869   0.068842606114048
             29.210155    0.23218442062076
              9.286663    0.46794134155879
              3.163927    0.36231203217765
 s    3 1.00
             7.8682724   -0.11933240861517
             1.8812885   -0.16085421161283
             0.5442493     1.1434564825515
 s    1 1.00
             0.1687144                   1
 p    3 1.00
             7.8682724   0.068999095584993
             1.8812885    0.31642397975315
             0.5442493    0.74430825237435
 p    1 1.00
             0.1687144                   1
 d    1 1.00
                   0.8                   1

41 0
 s    3 1.00
             18.731137    0.03349459952309
             2.8253937    0.23472694665786
             0.6401217    0.81375731841339
 s    1 1.00
             0.1612778                   1

42 0
 s    6 1.00
             5484.6717   0.001831099805527
             825.23495   0.013950098518422
             188.04696    0.06844509273075
               52.9645    0.23271427528445
              16.89757    0.47019295006289
             5.7996353    0.35852086192309
 s    3 1.00
             15.539616   -0.11077750382508
             3.5999336   -0.14802630511126
             1.0137618     1.1307670390447
 s    1 1.00
             0.2700058                   1
 p    3 1.00
             15.539616   0.070874299543311
             3.5999336    0.33975279781076
             1.0137618    0.72715859531445
 p    1 1.00
             0.2700058                   1
 d    1 1.00
                   0.8                   1

43 0
 s    3 1.00
             18.731137    0.03349459952309
             2.8253937    0.23472694665786
             0.6401217    0.81375731841339
 s    1 1.00
             0.1612778                   1

[5d]
[7f]
[9g]

[MO]
 Sym= A
 Ene=               0
 Spin= Alpha
 Occup=    1.00000
   1    -0.00080139568149376
   2     -0.18124842151279
   3     -0.10495227230537
   4      0.04579393386977
   5     0.029108780936146
   6    -0.093580656353121
   7    -0.015810019040709
   8    0.00056685489958442
   9    -0.033593394838394
  10    -0.002133189110918
  11      0.00307137477237
  12     0.002724814987397
  13    -0.0046183841710832
  14    -0.0033297385069054
  15    -0.040280113618454
  16    0.0053423005167589
  17    0.0056663422102059
  18    -0.026629103492888
  19    -0.00013736130267839
  20    0.0022982982712454
  21     0.006374260938061
  22    -0.027126157417805
  23    0.0023492454110173
  24    0.0097820415468377
  25    -0.033995397899389
  26    -0.0038795809200093
  27    -0.0013910596138975
  28    0.00095031004385829
  29    -0.00067302074567742
  30    -1.9851798019144e-05
  31    -0.0072729528063928
  32    -0.0038581160606851
  33    -0.0066566184478112
  34     0.032368077776875
  35     0.003025667047859
  36      0.03008941539759
  37    0.0059993135730969
  38    -0.018038888397979
  39     0.029877812013404
  40    0.0087687544418841
  41      -0.0201729448607
  42    -0.001733586902906
  43    -0.0021267949286661
  44    -0.00046886490698756
  45    0.0047137390208384
  46    0.0002752232391751
  47    0.0084837935313055
  48     0.002606933544027
  49    0.00071982144774264
  50      0.23309042906476
  51      0.14106597667199
  52     0.086872565568416
  53     0.034521871891304
  54     -0.10279777063966
  55     0.043092476183055
  56    -0.0023785872086258
  57    -0.0032237240990789
  58    0.0054030299974905
  59    -0.0025460461991261
  60    -0.0057104896568655
  61    0.0037795355890003
  62    0.00059255416341724
  63     0.051674892339496
  64    -0.0054392092098179
  65    -2.9118560832025e-05
  66    -2.8187410092121e-05
  67    -8.1598930569154e-06
  68    -1.44555127515e-05
  69    0.00024804923282793
  70    2.116703936866e-05
  71    1.1628019081591e-06
  72    -1.6088552048838e-05
  73    -0.0001468236838614
  74    -0.00024498579843092
  75    -0.00014183078706708
  76    -1.804874649216e-05
  77    -7.2002307732457e-06
  78    6.585929953274e-06
  79    4.4597036885519e-06
  80    -7.2103563040088e-06
  81    -5.2323712549149e-06
  82    -0.00021205229645741
  83    1.8147676308691e-05
  84    -0.00010461583117134
  85    -0.00065773600210783
  86    9.1124207270847e-05
  87    -6.4433819619098e-05
  88    0.00020241308127674
  89    0.00023251361649415
  90    0.00029582682748132
  91    0.00030364113065065
  92    6.1708018613085e-06
  93    -1.5814294910374e-05
  94    -1.0903072557263e-06
  95    2.4170914491021e-06
  96    9.5832629139009e-07
  97    -3.1970577762349e-06
  98    -0.00010121570716163
  99    5.3075740113823e-05
 100    0.00011869753957255
 101    -4.0668844308077e-05
 102    4.5169189482782e-05
 103    0.00015721293040781
 104    6.6055442944652e-05
 105    1.441135669211e-05
 106    -0.00022117098708449
 107    -0.0013299185315518
 108    0.0003010991272075
 109    0.0018289436005204
 110    -2.882127338588e-05
 111    -5.8812385419189e-05
 112    2.0673566099263e-05
 113    3.5942049090871e-05
 114    -1.3811680229793e-05
 115    -5.2310616075198e-05
 116    0.00011825635929776
 117    0.0012033213226138
 118    -6.0234937516125e-05
 119    0.00021328078637174
 120    2.4833545969139e-05
 121    -0.00031216831352583
 122    0.00026085328690654
 123    0.00085522032325871
 124    -1.0240304332001e-05
 125    -2.5174997022539e-05
 126    3.5187444190767e-05
 127    4.7956622100743e-07
 128    -1.0460941697526e-05
 129    4.8981348248953e-05
 130    -0.00049560900854889
 131    0.0064167893117283
 132    0.00013390474490123
 133    8.4544326651572e-05
 134    0.00064502599442223
 135    -0.00030233460870121
 136    0.00070363624785522
 137    -0.0069332162329655
 138    0.00022605467605049
 139    -7.4922093881803e-05
 140    -8.2162708411581e-05
 141    -3.2609604346106e-05
 142    -4.7822938834805e-05
 143    -5.9422551602497e-05
 144    8.0328644474276e-05
 145     0.001540327992927
 146    2.603906537076e-05
 147    -0.00011209455240246
 148    -0.00036184427830895
 149    0.0016564193853843
 150     -0.00113255382909
 151    0.0011562944577227
 152    -5.3065908826223e-05
 153    1.4141253211883e-05
 154    2.8854080257128e-05
 155    3.2602281116563e-05
 156    -3.225749102888e-05
 157    -1.5688606994205e-05
 158    -9.8360129165766e-05
 159    0.0010034043195253
 160    -3.194091060171e-05
 161    -1.2848347962234e-05
 162    3.2972316855201e-05
 163    1.3744331760731e-05
 164    -0.00058614808386581
 165    -0.0001294996281366
 166    -1.8902678376493e-05
 167    9.6496773763967e-07
 168    -8.2414502856905e-07
 169    -3.1651999761403e-05
 170    2.0269387161673e-08
 171    -9.0588770759664e-06
 172    0.00013930433095636
 173    -0.00024817333829693
 174    4.6980150127096e-06
 175    -6.2173520221291e-06
 176    -0.00018486579221519
 177    -0.00023673476155708
 178    0.0004080414275078
 179    3.3814806072096e-05
 180    -2.6698790109766e-06
 181    -3.7427633480376e-05
 182    -1.3765607009593e-05
 183    -1.7939616350843e-05
 184    3.6611847193542e-06
 185    2.112047700187e-05
 186    -1.5062860770464e-05
 187    -0.0011344599466649
 188    8.2887188245542e-06
 189    3.9237238322038e-05
 190    0.00021492982524877
 191    0.00056501939565025
 192    0.00031248966596749
 193    0.00040933811294557
 194    -1.2060229284847e-05
 195    -2.8617728475728e-05
 196    -1.6159179771146e-05
 197    3.601524488786e-06
 198    -1.4207921267617e-05
 199    6.9969699075995e-06
 200    -0.00020345967264775
 201    8.9135878329792e-05
 202    0.00028224998320929
 203    -9.5586019408684e-05
 204    -0.00031979211785981
 205    9.5553248065308e-05
 206    6.8488613657352e-05
 207    -0.00011675971804451
 208    0.00051747447045595
 209    -7.2237030980952e-05
 210    -0.00012551707867688
 211    -2.8599281760548e-05
 212    3.4060557602998e-05
 213    7.0423316079868e-06
 214    0.00015679966213162
 215    1.775579423975e-05
 216    0.00036502257754214
 217    -2.7048636306985e-05
 218    -0.00020933013024018
 219    -3.1187474554099e-07
 220    0.00026846129582464
 221    -0.00085453166033677
 222    0.0019883314989763
 223    -0.013837354954062
 224    0.0010566283732342
 225    0.00074156315332554
 226    -0.0022736816587531
 227    -0.010302186805793
 228    -0.0013829441679812
 229    -0.0044512919175657
 230    -0.00015093844634635
 231    0.00011883406282401
 232    0.00014271316044978
 233    -9.2158626394265e-05
 234    -0.00010920669102991
 235    0.0055482695168848
 236    -0.029164576633679
 237    -0.013019266310073
 238    -0.0040813064186816
 239    -0.0080638453967642
 240     0.032728610495585
 241    -0.0043598942699331
 242    -0.0049915787163296
 243     0.018725401312734
 244    -0.0039926159067205
 245    -0.0012598333198776
 246    0.0012589133056156
 247    -0.00058953631987317
 248    -0.00013238984638524
 249    -0.00035021581944293
 250    -0.0052659087827775
 251    -0.0019011802718814
 252     -0.18439569786156
 253     -0.12783166950173
 254    -0.049858166330655
 255    -0.032624160710235
 256     0.088154515868095
 257    0.0057585030828453
 258    -0.0058503622741762
 259     0.032471123111338
 260    -0.0023446489763868
 261    0.0029835289915137
 262    0.0028579827561012
 263    -0.0045653447895985
 264    -0.0034984685319985
 265    -0.0078325274045268
 266    -0.0015142500598352
 267    -0.039276290406225
 268    0.0041164668694406
 269    0.0029717719521139
 270      0.23194316677671
 271      0.16363710215865
 272    -0.079007658298276
 273    -0.037390382487635
 274      0.10126226018938
 275    -0.036186270093361
 276    -0.0032150211785541
 277     0.010665911662774
 278    0.0057757245481971
 279    -0.0028601552717446
 280    -0.0063120208582471
 281    0.0038048065686397
 282    0.00070189684804183
 283    -0.007584439866563
 284     0.038840426179633