[Molden Format]
made by pyscf v[2.0.1]
[Atoms] (AU)
C   1   6     0.69100024066471     0.64692934207205    -3.48223131169301
H   2   1     2.68052439830868     1.13355088658700    -3.25784032593313
C   3   6    -0.36286361513219     0.85440132524594    -5.97030179418974
H   4   1    -2.35448549047279     0.36322488579172    -6.17995817793143
C   5   6     0.93697958957450     1.61209284601821    -8.05828437677121
H   6   1     1.09182490265505     3.62435627880799    -8.46787148771875
C   7   6     2.13423629966321    -0.10744231105711    -9.78050935942977
H   8   1     1.96390963868834    -2.11762116447114    -9.34474333768613
H   9   1     1.55630230933075    -1.92953025305990    12.99630010416247
C   10   6     0.75233899775814    -2.21270439606481    11.10705728102219
H   11   1    -0.43433408177274    -3.90944857546550    11.22216085340412
C   12   6     2.86362581178706    -2.63237380607947     9.17926416456045
H   13   1     4.39038949912609    -1.24955421540245     9.49899813497433
H   14   1     3.74629220191363    -4.48798724300892     9.47414880959024
C   15   6     2.02478325613682    -2.42177285709634     6.44560829588644
C   16   6     3.88048732735477    -3.58795445234514     4.61402886975252
C   17   6    -0.18412382258602    -1.30464291234259     5.76021113872346
C   18   6    -2.10044360464350    -0.26837831858460     7.71610340967100
C   19   6    -3.08956938670431     2.35282328359417     6.88693925039594
C   20   6    -4.37372924086464    -2.09766595989678     7.93610724222001
C   21   6    -0.83850430601230     0.06372213486173    10.33002307638377
H   22   1     0.38411922151109     1.74281358582432    10.27380136542181
H   23   1    -2.30980003007874     0.45460143924521    11.73986301809809
H   24   1     4.58527064644668    -5.38706904487420     5.36778158031719
H   25   1     5.54944938085014    -2.37631462192748     4.35398898413318
H   26   1     3.06633019150423    -3.94118377050688     2.75255466040884
H   27   1    -4.17727778763735     2.26573369139522     5.12914900961283
H   28   1    -1.52662344944051     3.68001877445626     6.59540397144508
H   29   1    -4.32916174397830     3.13643051467482     8.35225460090378
H   30   1    -5.32329548508442    -2.36691813602939     6.11583672749896
H   31   1    -5.77989366602257    -1.33896741843465     9.25748940450990
H   32   1    -3.79310905208926    -3.96389819310853     8.61386170102686
C   33   6    -1.01100794811226    -1.06331657314144     3.11929490449947
C   34   6     0.37686231036534    -0.33275864505552     1.09165013605873
H   35   1    -3.01671213906703    -1.40297922279997     2.77827895090944
C   36   6    -0.64382707979370    -0.11591880174385    -1.42063131251064
H   37   1     2.35569259782137     0.17174499283897     1.33641070251401
H   38   1    -2.63317482980319    -0.60229203511219    -1.66119700387645
C   39   6     3.44427310754987     0.55955226130243   -11.88185544133447
C   40   6     4.59546774580895    -1.33837842065929   -13.51881378425706
H   41   1     3.68484150802705     2.52824088205540   -12.42422090941845
O   42   8     5.79494197127018    -0.87330187518197   -15.43343894779829
H   43   1     4.30216020100717    -3.32855150553013   -12.89162904717628
[GTO]
1 0
 s    6 1.00
             3047.5249  0.0018347001629433
             457.36951    0.01403730124668
             103.94869   0.068842606114048
             29.210155    0.23218442062076
              9.286663    0.46794134155879
              3.163927    0.36231203217765
 s    3 1.00
             7.8682724   -0.11933240861517
             1.8812885   -0.16085421161283
             0.5442493     1.1434564825515
 s    1 1.00
             0.1687144                   1
 p    3 1.00
             7.8682724   0.068999095584993
             1.8812885    0.31642397975315
             0.5442493    0.74430825237435
 p    1 1.00
             0.1687144                   1
 d    1 1.00
                   0.8                   1

2 0
 s    3 1.00
             18.731137    0.03349459952309
             2.8253937    0.23472694665786
             0.6401217    0.81375731841339
 s    1 1.00
             0.1612778                   1

3 0
 s    6 1.00
             3047.5249  0.0018347001629433
             457.36951    0.01403730124668
             103.94869   0.068842606114048
             29.210155    0.23218442062076
              9.286663    0.46794134155879
              3.163927    0.36231203217765
 s    3 1.00
             7.8682724   -0.11933240861517
             1.8812885   -0.16085421161283
             0.5442493     1.1434564825515
 s    1 1.00
             0.1687144                   1
 p    3 1.00
             7.8682724   0.068999095584993
             1.8812885    0.31642397975315
             0.5442493    0.74430825237435
 p    1 1.00
             0.1687144                   1
 d    1 1.00
                   0.8                   1

4 0
 s    3 1.00
             18.731137    0.03349459952309
             2.8253937    0.23472694665786
             0.6401217    0.81375731841339
 s    1 1.00
             0.1612778                   1

5 0
 s    6 1.00
             3047.5249  0.0018347001629433
             457.36951    0.01403730124668
             103.94869   0.068842606114048
             29.210155    0.23218442062076
              9.286663    0.46794134155879
              3.163927    0.36231203217765
 s    3 1.00
             7.8682724   -0.11933240861517
             1.8812885   -0.16085421161283
             0.5442493     1.1434564825515
 s    1 1.00
             0.1687144                   1
 p    3 1.00
             7.8682724   0.068999095584993
             1.8812885    0.31642397975315
             0.5442493    0.74430825237435
 p    1 1.00
             0.1687144                   1
 d    1 1.00
                   0.8                   1

6 0
 s    3 1.00
             18.731137    0.03349459952309
             2.8253937    0.23472694665786
             0.6401217    0.81375731841339
 s    1 1.00
             0.1612778                   1

7 0
 s    6 1.00
             3047.5249  0.0018347001629433
             457.36951    0.01403730124668
             103.94869   0.068842606114048
             29.210155    0.23218442062076
              9.286663    0.46794134155879
              3.163927    0.36231203217765
 s    3 1.00
             7.8682724   -0.11933240861517
             1.8812885   -0.16085421161283
             0.5442493     1.1434564825515
 s    1 1.00
             0.1687144                   1
 p    3 1.00
             7.8682724   0.068999095584993
             1.8812885    0.31642397975315
             0.5442493    0.74430825237435
 p    1 1.00
             0.1687144                   1
 d    1 1.00
                   0.8                   1

8 0
 s    3 1.00
             18.731137    0.03349459952309
             2.8253937    0.23472694665786
             0.6401217    0.81375731841339
 s    1 1.00
             0.1612778                   1

9 0
 s    3 1.00
             18.731137    0.03349459952309
             2.8253937    0.23472694665786
             0.6401217    0.81375731841339
 s    1 1.00
             0.1612778                   1

10 0
 s    6 1.00
             3047.5249  0.0018347001629433
             457.36951    0.01403730124668
             103.94869   0.068842606114048
             29.210155    0.23218442062076
              9.286663    0.46794134155879
              3.163927    0.36231203217765
 s    3 1.00
             7.8682724   -0.11933240861517
             1.8812885   -0.16085421161283
             0.5442493     1.1434564825515
 s    1 1.00
             0.1687144                   1
 p    3 1.00
             7.8682724   0.068999095584993
             1.8812885    0.31642397975315
             0.5442493    0.74430825237435
 p    1 1.00
             0.1687144                   1
 d    1 1.00
                   0.8                   1

11 0
 s    3 1.00
             18.731137    0.03349459952309
             2.8253937    0.23472694665786
             0.6401217    0.81375731841339
 s    1 1.00
             0.1612778                   1

12 0
 s    6 1.00
             3047.5249  0.0018347001629433
             457.36951    0.01403730124668
             103.94869   0.068842606114048
             29.210155    0.23218442062076
              9.286663    0.46794134155879
              3.163927    0.36231203217765
 s    3 1.00
             7.8682724   -0.11933240861517
             1.8812885   -0.16085421161283
             0.5442493     1.1434564825515
 s    1 1.00
             0.1687144                   1
 p    3 1.00
             7.8682724   0.068999095584993
             1.8812885    0.31642397975315
             0.5442493    0.74430825237435
 p    1 1.00
             0.1687144                   1
 d    1 1.00
                   0.8                   1

13 0
 s    3 1.00
             18.731137    0.03349459952309
             2.8253937    0.23472694665786
             0.6401217    0.81375731841339
 s    1 1.00
             0.1612778                   1

14 0
 s    3 1.00
             18.731137    0.03349459952309
             2.8253937    0.23472694665786
             0.6401217    0.81375731841339
 s    1 1.00
             0.1612778                   1

15 0
 s    6 1.00
             3047.5249  0.0018347001629433
             457.36951    0.01403730124668
             103.94869   0.068842606114048
             29.210155    0.23218442062076
              9.286663    0.46794134155879
              3.163927    0.36231203217765
 s    3 1.00
             7.8682724   -0.11933240861517
             1.8812885   -0.16085421161283
             0.5442493     1.1434564825515
 s    1 1.00
             0.1687144                   1
 p    3 1.00
             7.8682724   0.068999095584993
             1.8812885    0.31642397975315
             0.5442493    0.74430825237435
 p    1 1.00
             0.1687144                   1
 d    1 1.00
                   0.8                   1

16 0
 s    6 1.00
             3047.5249  0.0018347001629433
             457.36951    0.01403730124668
             103.94869   0.068842606114048
             29.210155    0.23218442062076
              9.286663    0.46794134155879
              3.163927    0.36231203217765
 s    3 1.00
             7.8682724   -0.11933240861517
             1.8812885   -0.16085421161283
             0.5442493     1.1434564825515
 s    1 1.00
             0.1687144                   1
 p    3 1.00
             7.8682724   0.068999095584993
             1.8812885    0.31642397975315
             0.5442493    0.74430825237435
 p    1 1.00
             0.1687144                   1
 d    1 1.00
                   0.8                   1

17 0
 s    6 1.00
             3047.5249  0.0018347001629433
             457.36951    0.01403730124668
             103.94869   0.068842606114048
             29.210155    0.23218442062076
              9.286663    0.46794134155879
              3.163927    0.36231203217765
 s    3 1.00
             7.8682724   -0.11933240861517
             1.8812885   -0.16085421161283
             0.5442493     1.1434564825515
 s    1 1.00
             0.1687144                   1
 p    3 1.00
             7.8682724   0.068999095584993
             1.8812885    0.31642397975315
             0.5442493    0.74430825237435
 p    1 1.00
             0.1687144                   1
 d    1 1.00
                   0.8                   1

18 0
 s    6 1.00
             3047.5249  0.0018347001629433
             457.36951    0.01403730124668
             103.94869   0.068842606114048
             29.210155    0.23218442062076
              9.286663    0.46794134155879
              3.163927    0.36231203217765
 s    3 1.00
             7.8682724   -0.11933240861517
             1.8812885   -0.16085421161283
             0.5442493     1.1434564825515
 s    1 1.00
             0.1687144                   1
 p    3 1.00
             7.8682724   0.068999095584993
             1.8812885    0.31642397975315
             0.5442493    0.74430825237435
 p    1 1.00
             0.1687144                   1
 d    1 1.00
                   0.8                   1

19 0
 s    6 1.00
             3047.5249  0.0018347001629433
             457.36951    0.01403730124668
             103.94869   0.068842606114048
             29.210155    0.23218442062076
              9.286663    0.46794134155879
              3.163927    0.36231203217765
 s    3 1.00
             7.8682724   -0.11933240861517
             1.8812885   -0.16085421161283
             0.5442493     1.1434564825515
 s    1 1.00
             0.1687144                   1
 p    3 1.00
             7.8682724   0.068999095584993
             1.8812885    0.31642397975315
             0.5442493    0.74430825237435
 p    1 1.00
             0.1687144                   1
 d    1 1.00
                   0.8                   1

20 0
 s    6 1.00
             3047.5249  0.0018347001629433
             457.36951    0.01403730124668
             103.94869   0.068842606114048
             29.210155    0.23218442062076
              9.286663    0.46794134155879
              3.163927    0.36231203217765
 s    3 1.00
             7.8682724   -0.11933240861517
             1.8812885   -0.16085421161283
             0.5442493     1.1434564825515
 s    1 1.00
             0.1687144                   1
 p    3 1.00
             7.8682724   0.068999095584993
             1.8812885    0.31642397975315
             0.5442493    0.74430825237435
 p    1 1.00
             0.1687144                   1
 d    1 1.00
                   0.8                   1

21 0
 s    6 1.00
             3047.5249  0.0018347001629433
             457.36951    0.01403730124668
             103.94869   0.068842606114048
             29.210155    0.23218442062076
              9.286663    0.46794134155879
              3.163927    0.36231203217765
 s    3 1.00
             7.8682724   -0.11933240861517
             1.8812885   -0.16085421161283
             0.5442493     1.1434564825515
 s    1 1.00
             0.1687144                   1
 p    3 1.00
             7.8682724   0.068999095584993
             1.8812885    0.31642397975315
             0.5442493    0.74430825237435
 p    1 1.00
             0.1687144                   1
 d    1 1.00
                   0.8                   1

22 0
 s    3 1.00
             18.731137    0.03349459952309
             2.8253937    0.23472694665786
             0.6401217    0.81375731841339
 s    1 1.00
             0.1612778                   1

23 0
 s    3 1.00
             18.731137    0.03349459952309
             2.8253937    0.23472694665786
             0.6401217    0.81375731841339
 s    1 1.00
             0.1612778                   1

24 0
 s    3 1.00
             18.731137    0.03349459952309
             2.8253937    0.23472694665786
             0.6401217    0.81375731841339
 s    1 1.00
             0.1612778                   1

25 0
 s    3 1.00
             18.731137    0.03349459952309
             2.8253937    0.23472694665786
             0.6401217    0.81375731841339
 s    1 1.00
             0.1612778                   1

26 0
 s    3 1.00
             18.731137    0.03349459952309
             2.8253937    0.23472694665786
             0.6401217    0.81375731841339
 s    1 1.00
             0.1612778                   1

27 0
 s    3 1.00
             18.731137    0.03349459952309
             2.8253937    0.23472694665786
             0.6401217    0.81375731841339
 s    1 1.00
             0.1612778                   1

28 0
 s    3 1.00
             18.731137    0.03349459952309
             2.8253937    0.23472694665786
             0.6401217    0.81375731841339
 s    1 1.00
             0.1612778                   1

29 0
 s    3 1.00
             18.731137    0.03349459952309
             2.8253937    0.23472694665786
             0.6401217    0.81375731841339
 s    1 1.00
             0.1612778                   1

30 0
 s    3 1.00
             18.731137    0.03349459952309
             2.8253937    0.23472694665786
             0.6401217    0.81375731841339
 s    1 1.00
             0.1612778                   1

31 0
 s    3 1.00
             18.731137    0.03349459952309
             2.8253937    0.23472694665786
             0.6401217    0.81375731841339
 s    1 1.00
             0.1612778                   1

32 0
 s    3 1.00
             18.731137    0.03349459952309
             2.8253937    0.23472694665786
             0.6401217    0.81375731841339
 s    1 1.00
             0.1612778                   1

33 0
 s    6 1.00
             3047.5249  0.0018347001629433
             457.36951    0.01403730124668
             103.94869   0.068842606114048
             29.210155    0.23218442062076
              9.286663    0.46794134155879
              3.163927    0.36231203217765
 s    3 1.00
             7.8682724   -0.11933240861517
             1.8812885   -0.16085421161283
             0.5442493     1.1434564825515
 s    1 1.00
             0.1687144                   1
 p    3 1.00
             7.8682724   0.068999095584993
             1.8812885    0.31642397975315
             0.5442493    0.74430825237435
 p    1 1.00
             0.1687144                   1
 d    1 1.00
                   0.8                   1

34 0
 s    6 1.00
             3047.5249  0.0018347001629433
             457.36951    0.01403730124668
             103.94869   0.068842606114048
             29.210155    0.23218442062076
              9.286663    0.46794134155879
              3.163927    0.36231203217765
 s    3 1.00
             7.8682724   -0.11933240861517
             1.8812885   -0.16085421161283
             0.5442493     1.1434564825515
 s    1 1.00
             0.1687144                   1
 p    3 1.00
             7.8682724   0.068999095584993
             1.8812885    0.31642397975315
             0.5442493    0.74430825237435
 p    1 1.00
             0.1687144                   1
 d    1 1.00
                   0.8                   1

35 0
 s    3 1.00
             18.731137    0.03349459952309
             2.8253937    0.23472694665786
             0.6401217    0.81375731841339
 s    1 1.00
             0.1612778                   1

36 0
 s    6 1.00
             3047.5249  0.0018347001629433
             457.36951    0.01403730124668
             103.94869   0.068842606114048
             29.210155    0.23218442062076
              9.286663    0.46794134155879
              3.163927    0.36231203217765
 s    3 1.00
             7.8682724   -0.11933240861517
             1.8812885   -0.16085421161283
             0.5442493     1.1434564825515
 s    1 1.00
             0.1687144                   1
 p    3 1.00
             7.8682724   0.068999095584993
             1.8812885    0.31642397975315
             0.5442493    0.74430825237435
 p    1 1.00
             0.1687144                   1
 d    1 1.00
                   0.8                   1

37 0
 s    3 1.00
             18.731137    0.03349459952309
             2.8253937    0.23472694665786
             0.6401217    0.81375731841339
 s    1 1.00
             0.1612778                   1

38 0
 s    3 1.00
             18.731137    0.03349459952309
             2.8253937    0.23472694665786
             0.6401217    0.81375731841339
 s    1 1.00
             0.1612778                   1

39 0
 s    6 1.00
             3047.5249  0.0018347001629433
             457.36951    0.01403730124668
             103.94869   0.068842606114048
             29.210155    0.23218442062076
              9.286663    0.46794134155879
              3.163927    0.36231203217765
 s    3 1.00
             7.8682724   -0.11933240861517
             1.8812885   -0.16085421161283
             0.5442493     1.1434564825515
 s    1 1.00
             0.1687144                   1
 p    3 1.00
             7.8682724   0.068999095584993
             1.8812885    0.31642397975315
             0.5442493    0.74430825237435
 p    1 1.00
             0.1687144                   1
 d    1 1.00
                   0.8                   1

40 0
 s    6 1.00
             3047.5249  0.0018347001629433
             457.36951    0.01403730124668
             103.94869   0.068842606114048
             29.210155    0.23218442062076
              9.286663    0.46794134155879
              3.163927    0.36231203217765
 s    3 1.00
             7.8682724   -0.11933240861517
             1.8812885   -0.16085421161283
             0.5442493     1.1434564825515
 s    1 1.00
             0.1687144                   1
 p    3 1.00
             7.8682724   0.068999095584993
             1.8812885    0.31642397975315
             0.5442493    0.74430825237435
 p    1 1.00
             0.1687144                   1
 d    1 1.00
                   0.8                   1

41 0
 s    3 1.00
             18.731137    0.03349459952309
             2.8253937    0.23472694665786
             0.6401217    0.81375731841339
 s    1 1.00
             0.1612778                   1

42 0
 s    6 1.00
             5484.6717   0.001831099805527
             825.23495   0.013950098518422
             188.04696    0.06844509273075
               52.9645    0.23271427528445
              16.89757    0.47019295006289
             5.7996353    0.35852086192309
 s    3 1.00
             15.539616   -0.11077750382508
             3.5999336   -0.14802630511126
             1.0137618     1.1307670390447
 s    1 1.00
             0.2700058                   1
 p    3 1.00
             15.539616   0.070874299543311
             3.5999336    0.33975279781076
             1.0137618    0.72715859531445
 p    1 1.00
             0.2700058                   1
 d    1 1.00
                   0.8                   1

43 0
 s    3 1.00
             18.731137    0.03349459952309
             2.8253937    0.23472694665786
             0.6401217    0.81375731841339
 s    1 1.00
             0.1612778                   1

[5d]
[7f]
[9g]

[MO]
 Sym= A
 Ene=               0
 Spin= Alpha
 Occup=    1.00000
   1     -0.01608068910018
   2    0.0011779929152743
   3    -0.0077241216919177
   4    -0.00043396547262457
   5    0.0001397180154876
   6    -0.0013495845461117
   7    -0.00089159953840566
   8    -0.0013407216171586
   9    0.0060550637957215
  10    0.0010008174251329
  11    0.00095828959984502
  12    -0.00016045907602258
  13    0.00021767649632643
  14    -5.2889928363222e-05
  15    0.00054077928655385
  16    0.00099219340331281
  17     -0.99472057751381
  18    -0.039347742842161
  19     0.031443631838947
  20    -0.0010304065617763
  21    -0.0001854641445536
  22    0.00065157182678927
  23    0.0040067723163937
  24    0.0011779450113294
  25    0.00082802059201233
  26    -0.00080977107403673
  27    0.00032212085150564
  28    0.00036136042717004
  29    -0.00028442027337242
  30    -0.00017939295372641
  31    0.0012902747820079
  32    -0.0042221266691686
  33    -0.012879348184229
  34    0.00039187100132134
  35    -0.0012240410473856
  36    -0.00096144672140206
  37    -0.00037463656908749
  38    0.0013059061005472
  39    0.0024253986865829
  40    -0.003818686444238
  41    -0.0046815581538231
  42    0.0006925582309508
  43    -0.0013185157912086
  44    -0.00051719593431538
  45    0.00037927017440209
  46    0.00043212107621224
  47    0.00060747934166878
  48    0.00065114367068084
  49    0.00037930471811563
  50    0.00060499588802861
  51    -0.00032577479131496
  52    -0.00025808560863563
  53    -2.2526771006278e-05
  54    0.0004534524839016
  55    0.0050535574374874
  56    -0.0012594060405538
  57    -0.0077778927401874
  58    0.00015922093082199
  59    9.2388823746926e-06
  60    -0.00019193488207409
  61    0.0002748887034734
  62    0.00017794937064076
  63    0.0005200481112021
  64    -0.00027744608454935
  65    2.9625074073428e-06
  66    4.5403273015946e-06
  67    1.0923462275741e-07
  68    1.5061811832737e-06
  69    -7.4782294186255e-06
  70    -2.4418406586984e-06
  71    5.0035337004038e-06
  72    2.6450281954852e-07
  73    -1.4272418583993e-05
  74    -2.725063696035e-05
  75    -1.0111134799935e-05
  76    1.2702483981694e-07
  77    3.6203536259363e-07
  78    -3.7500299092668e-07
  79    -6.4299374860075e-07
  80    2.7229532213391e-08
  81    -2.6301049840816e-06
  82    -1.3801883807205e-05
  83    -2.455760724514e-07
  84    -1.6625805153286e-06
  85    7.1147187352662e-05
  86    -3.9112215773756e-06
  87    -3.4134955551666e-06
  88    -5.6372220155817e-06
  89    -2.6289120335776e-05
  90    6.9625054180701e-05
  91    -7.5565279547835e-06
  92    -1.7312654528079e-06
  93    3.0016936339779e-06
  94    -4.0941414921175e-06
  95    8.4530105993413e-07
  96    1.1375821120419e-06
  97    -7.5069213941602e-06
  98    -1.3054921791745e-05
  99    3.6595442365881e-06
 100    2.0618736826906e-05
 101    1.2777639637892e-06
 102    1.3114086381233e-05
 103    -0.00025909149131984
 104    1.8698728057319e-06
 105    8.2399508839076e-06
 106    3.7929836835385e-06
 107    0.00020821892479855
 108    -0.00020002997562536
 109    -0.00014373639418751
 110    6.3728271958609e-06
 111    3.3373697759313e-08
 112    3.8828260147222e-09
 113    -1.624963054752e-06
 114    5.919781419756e-06
 115    3.6065541579944e-06
 116    3.4928667872094e-05
 117    -0.000254270730958
 118    2.662816849023e-06
 119    -3.5456421077031e-06
 120    -5.3946825532352e-06
 121    5.1412978707058e-05
 122    -1.0193399838752e-05
 123    -3.1364310948541e-05
 124    -1.7394044526914e-06
 125    3.0442877015989e-06
 126    2.6896057197354e-06
 127    -5.9059929229965e-07
 128    2.2825601092378e-06
 129    5.8258163435187e-06
 130    5.6322798566505e-05
 131    -0.00015516270305618
 132    -6.873450290346e-06
 133    4.9330532373498e-06
 134    -2.3652235800018e-05
 135    0.00038442467195152
 136    -4.8097808644386e-05
 137    0.0004310928336472
 138    -9.9633526500925e-06
 139    -1.4082734127025e-05
 140    -6.2471225731893e-06
 141    -4.7480839599973e-06
 142    -7.4460818077451e-06
 143    2.0888611255323e-06
 144    2.7708393801769e-05
 145    -2.1987593194811e-05
 146    -2.5465968233102e-06
 147    -6.2883243893492e-06
 148    -1.3561899851665e-05
 149    -1.25924042418e-05
 150    1.391701749773e-07
 151    6.5246125153742e-05
 152    7.5252010166344e-06
 153    4.0416482606748e-06
 154    3.3746555163731e-06
 155    -4.5150640310005e-06
 156    4.2096871677655e-06
 157    -1.6955874282712e-06
 158    -1.3523936660352e-05
 159    3.7985390127893e-05
 160    -6.3407724436562e-06
 161    1.0888209452322e-07
 162    1.5444292703084e-06
 163    5.2673411826517e-05
 164    -2.5441541161875e-05
 165    -1.1239100983249e-05
 166    -4.5899143474623e-06
 167    6.1037727608226e-07
 168    2.3039413454249e-07
 169    -8.7314219106153e-07
 170    -2.0187883184121e-06
 171    5.7272447825347e-07
 172    1.3031751822893e-05
 173    -2.4497301715256e-05
 174    4.2201693725392e-06
 175    1.6932951224509e-07
 176    -1.1615308763581e-05
 177    1.419151893845e-06
 178    2.0619264933873e-06
 179    2.9074200763271e-05
 180    -1.7195194786951e-06
 181    -5.149813940947e-06
 182    -8.1829682620555e-07
 183    1.2851822745458e-06
 184    -1.7536082673048e-06
 185    3.6132779766738e-06
 186    3.1495840293823e-05
 187    -9.2265226244618e-05
 188    2.6944174079318e-06
 189    -7.5532196723859e-07
 190    -5.4600594599469e-06
 191    2.2622763087323e-06
 192    1.4470228517178e-05
 193    7.8127814172214e-05
 194    -3.6429316180631e-06
 195    -1.8245377745274e-06
 196    -2.8875503495899e-06
 197    4.1559151577877e-07
 198    -4.57961126405e-07
 199    8.335066737311e-06
 200    8.3570204944397e-08
 201    2.3509665525021e-06
 202    -2.1950183901382e-05
 203    1.2378963084125e-05
 204    7.3551421485608e-06
 205    4.1981714872689e-07
 206    2.9303703186194e-05
 207    -1.104180091285e-05
 208    6.9956204239532e-05
 209    -1.1638787255259e-05
 210    2.809860437658e-05
 211    -6.4686534246081e-06
 212    -1.8573096990196e-05
 213    5.9767074921171e-07
 214    2.2538756648856e-05
 215    2.9002600521242e-06
 216    3.079345693435e-05
 217    -1.5812119215348e-06
 218    -9.3465421377067e-06
 219    -4.9533762462271e-07
 220    1.5820890364348e-06
 221    9.619913820211e-06
 222    9.2153921524229e-05
 223    -0.00093220212715075
 224    1.1668452014743e-05
 225    8.5515422574923e-07
 226    -1.23397354933e-05
 227    -0.00067865145421595
 228    -0.0003223448065245
 229    0.0009757680930224
 230    -2.3939594858404e-06
 231    4.5791352732185e-05
 232    2.3074217386023e-05
 233    -2.2735887533441e-05
 234    -2.3772036455327e-05
 235    1.5100295667037e-05
 236    7.0773092589498e-05
 237    0.00026695637539768
 238    3.160570240752e-05
 239    1.0241733117343e-05
 240    -3.1968024541683e-05
 241    -0.00030235906008216
 242    -0.00035379916778696
 243    0.0016116626025475
 244    -1.0596596488851e-05
 245    -7.4729272808273e-05
 246    -1.5841865607692e-05
 247    -1.8730945600031e-05
 248    1.6798489276657e-06
 249    3.6571820848485e-05
 250    -0.00032499548164788
 251    -4.903037803431e-06
 252    0.00042918178780486
 253    -0.0022107449023413
 254    -6.5856369059555e-05
 255    4.0479845434432e-05
 256    -0.00021044922411598
 257    2.5037078925405e-05
 258    -0.0004350362018545
 259    0.0018605625782527
 260    7.0943666494699e-05
 261    2.2009621715241e-05
 262    1.8664110868997e-05
 263    -0.00014757063075978
 264    -9.3711164947116e-05
 265    0.00011198381149121
 266    -0.00020955623817151
 267    0.00013550909183888
 268    0.00054107785420373
 269    5.9628215858611e-05
 270    0.00055158825996658
 271    -0.0072554796478241
 272    6.2820031777478e-05
 273    -0.00010548548732824
 274    -0.00013968373425461
 275    0.0017674895482138
 276    0.0029942089218837
 277    -0.0028512937540825
 278    -8.6198957012621e-05
 279    0.00019219507854405
 280    9.8740188984577e-05
 281    3.2632397579289e-05