[Molden Format]
made by pyscf v[2.0.1]
[Atoms] (AU)
C   1   6     0.69100024066471     0.64692934207205    -3.48223131169301
H   2   1     2.68052439830868     1.13355088658700    -3.25784032593313
C   3   6    -0.36286361513219     0.85440132524594    -5.97030179418974
H   4   1    -2.35448549047279     0.36322488579172    -6.17995817793143
C   5   6     0.93697958957450     1.61209284601821    -8.05828437677121
H   6   1     2.28684852848462     3.15852966115860    -7.89296704602693
C   7   6     0.63106041134958     0.47904579632082   -10.50346361691732
H   8   1    -0.72718870892227    -1.06897620367389   -10.63951300078030
H   9   1     1.55630230933075    -1.92953025305990    12.99630010416247
C   10   6     0.75233899775814    -2.21270439606481    11.10705728102219
H   11   1    -0.43433408177274    -3.90944857546550    11.22216085340412
C   12   6     2.86362581178706    -2.63237380607947     9.17926416456045
H   13   1     4.39038949912609    -1.24955421540245     9.49899813497433
H   14   1     3.74629220191363    -4.48798724300892     9.47414880959024
C   15   6     2.02478325613682    -2.42177285709634     6.44560829588644
C   16   6     3.88048732735477    -3.58795445234514     4.61402886975252
C   17   6    -0.18412382258602    -1.30464291234259     5.76021113872346
C   18   6    -2.10044360464350    -0.26837831858460     7.71610340967100
C   19   6    -3.08956938670431     2.35282328359417     6.88693925039594
C   20   6    -4.37372924086464    -2.09766595989678     7.93610724222001
C   21   6    -0.83850430601230     0.06372213486173    10.33002307638377
H   22   1     0.38411922151109     1.74281358582432    10.27380136542181
H   23   1    -2.30980003007874     0.45460143924521    11.73986301809809
H   24   1     4.58527064644668    -5.38706904487420     5.36778158031719
H   25   1     5.54944938085014    -2.37631462192748     4.35398898413318
H   26   1     3.06633019150423    -3.94118377050688     2.75255466040884
H   27   1    -4.17727778763735     2.26573369139522     5.12914900961283
H   28   1    -1.52662344944051     3.68001877445626     6.59540397144508
H   29   1    -4.32916174397830     3.13643051467482     8.35225460090378
H   30   1    -5.32329548508442    -2.36691813602939     6.11583672749896
H   31   1    -5.77989366602257    -1.33896741843465     9.25748940450990
H   32   1    -3.79310905208926    -3.96389819310853     8.61386170102686
C   33   6    -1.01100794811226    -1.06331657314144     3.11929490449947
C   34   6     0.37686231036534    -0.33275864505552     1.09165013605873
H   35   1    -3.01671213906703    -1.40297922279997     2.77827895090944
C   36   6    -0.64382707979370    -0.11591880174385    -1.42063131251064
H   37   1     2.35569259782137     0.17174499283897     1.33641070251401
H   38   1    -2.63317482980319    -0.60229203511219    -1.66119700387645
C   39   6     1.88057107480096     1.17167710004378   -12.63318625924474
C   40   6     1.43424299107759    -0.10242214041261   -15.03828188134704
H   41   1     3.25774949416826     2.69847908646217   -12.62832443574420
O   42   8     2.48751113017790     0.42264932688836   -17.02215443525925
H   43   1     0.01015752982003    -1.65333508727432   -14.95564685399208
[GTO]
1 0
 s    6 1.00
             3047.5249  0.0018347001629433
             457.36951    0.01403730124668
             103.94869   0.068842606114048
             29.210155    0.23218442062076
              9.286663    0.46794134155879
              3.163927    0.36231203217765
 s    3 1.00
             7.8682724   -0.11933240861517
             1.8812885   -0.16085421161283
             0.5442493     1.1434564825515
 s    1 1.00
             0.1687144                   1
 p    3 1.00
             7.8682724   0.068999095584993
             1.8812885    0.31642397975315
             0.5442493    0.74430825237435
 p    1 1.00
             0.1687144                   1
 d    1 1.00
                   0.8                   1

2 0
 s    3 1.00
             18.731137    0.03349459952309
             2.8253937    0.23472694665786
             0.6401217    0.81375731841339
 s    1 1.00
             0.1612778                   1

3 0
 s    6 1.00
             3047.5249  0.0018347001629433
             457.36951    0.01403730124668
             103.94869   0.068842606114048
             29.210155    0.23218442062076
              9.286663    0.46794134155879
              3.163927    0.36231203217765
 s    3 1.00
             7.8682724   -0.11933240861517
             1.8812885   -0.16085421161283
             0.5442493     1.1434564825515
 s    1 1.00
             0.1687144                   1
 p    3 1.00
             7.8682724   0.068999095584993
             1.8812885    0.31642397975315
             0.5442493    0.74430825237435
 p    1 1.00
             0.1687144                   1
 d    1 1.00
                   0.8                   1

4 0
 s    3 1.00
             18.731137    0.03349459952309
             2.8253937    0.23472694665786
             0.6401217    0.81375731841339
 s    1 1.00
             0.1612778                   1

5 0
 s    6 1.00
             3047.5249  0.0018347001629433
             457.36951    0.01403730124668
             103.94869   0.068842606114048
             29.210155    0.23218442062076
              9.286663    0.46794134155879
              3.163927    0.36231203217765
 s    3 1.00
             7.8682724   -0.11933240861517
             1.8812885   -0.16085421161283
             0.5442493     1.1434564825515
 s    1 1.00
             0.1687144                   1
 p    3 1.00
             7.8682724   0.068999095584993
             1.8812885    0.31642397975315
             0.5442493    0.74430825237435
 p    1 1.00
             0.1687144                   1
 d    1 1.00
                   0.8                   1

6 0
 s    3 1.00
             18.731137    0.03349459952309
             2.8253937    0.23472694665786
             0.6401217    0.81375731841339
 s    1 1.00
             0.1612778                   1

7 0
 s    6 1.00
             3047.5249  0.0018347001629433
             457.36951    0.01403730124668
             103.94869   0.068842606114048
             29.210155    0.23218442062076
              9.286663    0.46794134155879
              3.163927    0.36231203217765
 s    3 1.00
             7.8682724   -0.11933240861517
             1.8812885   -0.16085421161283
             0.5442493     1.1434564825515
 s    1 1.00
             0.1687144                   1
 p    3 1.00
             7.8682724   0.068999095584993
             1.8812885    0.31642397975315
             0.5442493    0.74430825237435
 p    1 1.00
             0.1687144                   1
 d    1 1.00
                   0.8                   1

8 0
 s    3 1.00
             18.731137    0.03349459952309
             2.8253937    0.23472694665786
             0.6401217    0.81375731841339
 s    1 1.00
             0.1612778                   1

9 0
 s    3 1.00
             18.731137    0.03349459952309
             2.8253937    0.23472694665786
             0.6401217    0.81375731841339
 s    1 1.00
             0.1612778                   1

10 0
 s    6 1.00
             3047.5249  0.0018347001629433
             457.36951    0.01403730124668
             103.94869   0.068842606114048
             29.210155    0.23218442062076
              9.286663    0.46794134155879
              3.163927    0.36231203217765
 s    3 1.00
             7.8682724   -0.11933240861517
             1.8812885   -0.16085421161283
             0.5442493     1.1434564825515
 s    1 1.00
             0.1687144                   1
 p    3 1.00
             7.8682724   0.068999095584993
             1.8812885    0.31642397975315
             0.5442493    0.74430825237435
 p    1 1.00
             0.1687144                   1
 d    1 1.00
                   0.8                   1

11 0
 s    3 1.00
             18.731137    0.03349459952309
             2.8253937    0.23472694665786
             0.6401217    0.81375731841339
 s    1 1.00
             0.1612778                   1

12 0
 s    6 1.00
             3047.5249  0.0018347001629433
             457.36951    0.01403730124668
             103.94869   0.068842606114048
             29.210155    0.23218442062076
              9.286663    0.46794134155879
              3.163927    0.36231203217765
 s    3 1.00
             7.8682724   -0.11933240861517
             1.8812885   -0.16085421161283
             0.5442493     1.1434564825515
 s    1 1.00
             0.1687144                   1
 p    3 1.00
             7.8682724   0.068999095584993
             1.8812885    0.31642397975315
             0.5442493    0.74430825237435
 p    1 1.00
             0.1687144                   1
 d    1 1.00
                   0.8                   1

13 0
 s    3 1.00
             18.731137    0.03349459952309
             2.8253937    0.23472694665786
             0.6401217    0.81375731841339
 s    1 1.00
             0.1612778                   1

14 0
 s    3 1.00
             18.731137    0.03349459952309
             2.8253937    0.23472694665786
             0.6401217    0.81375731841339
 s    1 1.00
             0.1612778                   1

15 0
 s    6 1.00
             3047.5249  0.0018347001629433
             457.36951    0.01403730124668
             103.94869   0.068842606114048
             29.210155    0.23218442062076
              9.286663    0.46794134155879
              3.163927    0.36231203217765
 s    3 1.00
             7.8682724   -0.11933240861517
             1.8812885   -0.16085421161283
             0.5442493     1.1434564825515
 s    1 1.00
             0.1687144                   1
 p    3 1.00
             7.8682724   0.068999095584993
             1.8812885    0.31642397975315
             0.5442493    0.74430825237435
 p    1 1.00
             0.1687144                   1
 d    1 1.00
                   0.8                   1

16 0
 s    6 1.00
             3047.5249  0.0018347001629433
             457.36951    0.01403730124668
             103.94869   0.068842606114048
             29.210155    0.23218442062076
              9.286663    0.46794134155879
              3.163927    0.36231203217765
 s    3 1.00
             7.8682724   -0.11933240861517
             1.8812885   -0.16085421161283
             0.5442493     1.1434564825515
 s    1 1.00
             0.1687144                   1
 p    3 1.00
             7.8682724   0.068999095584993
             1.8812885    0.31642397975315
             0.5442493    0.74430825237435
 p    1 1.00
             0.1687144                   1
 d    1 1.00
                   0.8                   1

17 0
 s    6 1.00
             3047.5249  0.0018347001629433
             457.36951    0.01403730124668
             103.94869   0.068842606114048
             29.210155    0.23218442062076
              9.286663    0.46794134155879
              3.163927    0.36231203217765
 s    3 1.00
             7.8682724   -0.11933240861517
             1.8812885   -0.16085421161283
             0.5442493     1.1434564825515
 s    1 1.00
             0.1687144                   1
 p    3 1.00
             7.8682724   0.068999095584993
             1.8812885    0.31642397975315
             0.5442493    0.74430825237435
 p    1 1.00
             0.1687144                   1
 d    1 1.00
                   0.8                   1

18 0
 s    6 1.00
             3047.5249  0.0018347001629433
             457.36951    0.01403730124668
             103.94869   0.068842606114048
             29.210155    0.23218442062076
              9.286663    0.46794134155879
              3.163927    0.36231203217765
 s    3 1.00
             7.8682724   -0.11933240861517
             1.8812885   -0.16085421161283
             0.5442493     1.1434564825515
 s    1 1.00
             0.1687144                   1
 p    3 1.00
             7.8682724   0.068999095584993
             1.8812885    0.31642397975315
             0.5442493    0.74430825237435
 p    1 1.00
             0.1687144                   1
 d    1 1.00
                   0.8                   1

19 0
 s    6 1.00
             3047.5249  0.0018347001629433
             457.36951    0.01403730124668
             103.94869   0.068842606114048
             29.210155    0.23218442062076
              9.286663    0.46794134155879
              3.163927    0.36231203217765
 s    3 1.00
             7.8682724   -0.11933240861517
             1.8812885   -0.16085421161283
             0.5442493     1.1434564825515
 s    1 1.00
             0.1687144                   1
 p    3 1.00
             7.8682724   0.068999095584993
             1.8812885    0.31642397975315
             0.5442493    0.74430825237435
 p    1 1.00
             0.1687144                   1
 d    1 1.00
                   0.8                   1

20 0
 s    6 1.00
             3047.5249  0.0018347001629433
             457.36951    0.01403730124668
             103.94869   0.068842606114048
             29.210155    0.23218442062076
              9.286663    0.46794134155879
              3.163927    0.36231203217765
 s    3 1.00
             7.8682724   -0.11933240861517
             1.8812885   -0.16085421161283
             0.5442493     1.1434564825515
 s    1 1.00
             0.1687144                   1
 p    3 1.00
             7.8682724   0.068999095584993
             1.8812885    0.31642397975315
             0.5442493    0.74430825237435
 p    1 1.00
             0.1687144                   1
 d    1 1.00
                   0.8                   1

21 0
 s    6 1.00
             3047.5249  0.0018347001629433
             457.36951    0.01403730124668
             103.94869   0.068842606114048
             29.210155    0.23218442062076
              9.286663    0.46794134155879
              3.163927    0.36231203217765
 s    3 1.00
             7.8682724   -0.11933240861517
             1.8812885   -0.16085421161283
             0.5442493     1.1434564825515
 s    1 1.00
             0.1687144                   1
 p    3 1.00
             7.8682724   0.068999095584993
             1.8812885    0.31642397975315
             0.5442493    0.74430825237435
 p    1 1.00
             0.1687144                   1
 d    1 1.00
                   0.8                   1

22 0
 s    3 1.00
             18.731137    0.03349459952309
             2.8253937    0.23472694665786
             0.6401217    0.81375731841339
 s    1 1.00
             0.1612778                   1

23 0
 s    3 1.00
             18.731137    0.03349459952309
             2.8253937    0.23472694665786
             0.6401217    0.81375731841339
 s    1 1.00
             0.1612778                   1

24 0
 s    3 1.00
             18.731137    0.03349459952309
             2.8253937    0.23472694665786
             0.6401217    0.81375731841339
 s    1 1.00
             0.1612778                   1

25 0
 s    3 1.00
             18.731137    0.03349459952309
             2.8253937    0.23472694665786
             0.6401217    0.81375731841339
 s    1 1.00
             0.1612778                   1

26 0
 s    3 1.00
             18.731137    0.03349459952309
             2.8253937    0.23472694665786
             0.6401217    0.81375731841339
 s    1 1.00
             0.1612778                   1

27 0
 s    3 1.00
             18.731137    0.03349459952309
             2.8253937    0.23472694665786
             0.6401217    0.81375731841339
 s    1 1.00
             0.1612778                   1

28 0
 s    3 1.00
             18.731137    0.03349459952309
             2.8253937    0.23472694665786
             0.6401217    0.81375731841339
 s    1 1.00
             0.1612778                   1

29 0
 s    3 1.00
             18.731137    0.03349459952309
             2.8253937    0.23472694665786
             0.6401217    0.81375731841339
 s    1 1.00
             0.1612778                   1

30 0
 s    3 1.00
             18.731137    0.03349459952309
             2.8253937    0.23472694665786
             0.6401217    0.81375731841339
 s    1 1.00
             0.1612778                   1

31 0
 s    3 1.00
             18.731137    0.03349459952309
             2.8253937    0.23472694665786
             0.6401217    0.81375731841339
 s    1 1.00
             0.1612778                   1

32 0
 s    3 1.00
             18.731137    0.03349459952309
             2.8253937    0.23472694665786
             0.6401217    0.81375731841339
 s    1 1.00
             0.1612778                   1

33 0
 s    6 1.00
             3047.5249  0.0018347001629433
             457.36951    0.01403730124668
             103.94869   0.068842606114048
             29.210155    0.23218442062076
              9.286663    0.46794134155879
              3.163927    0.36231203217765
 s    3 1.00
             7.8682724   -0.11933240861517
             1.8812885   -0.16085421161283
             0.5442493     1.1434564825515
 s    1 1.00
             0.1687144                   1
 p    3 1.00
             7.8682724   0.068999095584993
             1.8812885    0.31642397975315
             0.5442493    0.74430825237435
 p    1 1.00
             0.1687144                   1
 d    1 1.00
                   0.8                   1

34 0
 s    6 1.00
             3047.5249  0.0018347001629433
             457.36951    0.01403730124668
             103.94869   0.068842606114048
             29.210155    0.23218442062076
              9.286663    0.46794134155879
              3.163927    0.36231203217765
 s    3 1.00
             7.8682724   -0.11933240861517
             1.8812885   -0.16085421161283
             0.5442493     1.1434564825515
 s    1 1.00
             0.1687144                   1
 p    3 1.00
             7.8682724   0.068999095584993
             1.8812885    0.31642397975315
             0.5442493    0.74430825237435
 p    1 1.00
             0.1687144                   1
 d    1 1.00
                   0.8                   1

35 0
 s    3 1.00
             18.731137    0.03349459952309
             2.8253937    0.23472694665786
             0.6401217    0.81375731841339
 s    1 1.00
             0.1612778                   1

36 0
 s    6 1.00
             3047.5249  0.0018347001629433
             457.36951    0.01403730124668
             103.94869   0.068842606114048
             29.210155    0.23218442062076
              9.286663    0.46794134155879
              3.163927    0.36231203217765
 s    3 1.00
             7.8682724   -0.11933240861517
             1.8812885   -0.16085421161283
             0.5442493     1.1434564825515
 s    1 1.00
             0.1687144                   1
 p    3 1.00
             7.8682724   0.068999095584993
             1.8812885    0.31642397975315
             0.5442493    0.74430825237435
 p    1 1.00
             0.1687144                   1
 d    1 1.00
                   0.8                   1

37 0
 s    3 1.00
             18.731137    0.03349459952309
             2.8253937    0.23472694665786
             0.6401217    0.81375731841339
 s    1 1.00
             0.1612778                   1

38 0
 s    3 1.00
             18.731137    0.03349459952309
             2.8253937    0.23472694665786
             0.6401217    0.81375731841339
 s    1 1.00
             0.1612778                   1

39 0
 s    6 1.00
             3047.5249  0.0018347001629433
             457.36951    0.01403730124668
             103.94869   0.068842606114048
             29.210155    0.23218442062076
              9.286663    0.46794134155879
              3.163927    0.36231203217765
 s    3 1.00
             7.8682724   -0.11933240861517
             1.8812885   -0.16085421161283
             0.5442493     1.1434564825515
 s    1 1.00
             0.1687144                   1
 p    3 1.00
             7.8682724   0.068999095584993
             1.8812885    0.31642397975315
             0.5442493    0.74430825237435
 p    1 1.00
             0.1687144                   1
 d    1 1.00
                   0.8                   1

40 0
 s    6 1.00
             3047.5249  0.0018347001629433
             457.36951    0.01403730124668
             103.94869   0.068842606114048
             29.210155    0.23218442062076
              9.286663    0.46794134155879
              3.163927    0.36231203217765
 s    3 1.00
             7.8682724   -0.11933240861517
             1.8812885   -0.16085421161283
             0.5442493     1.1434564825515
 s    1 1.00
             0.1687144                   1
 p    3 1.00
             7.8682724   0.068999095584993
             1.8812885    0.31642397975315
             0.5442493    0.74430825237435
 p    1 1.00
             0.1687144                   1
 d    1 1.00
                   0.8                   1

41 0
 s    3 1.00
             18.731137    0.03349459952309
             2.8253937    0.23472694665786
             0.6401217    0.81375731841339
 s    1 1.00
             0.1612778                   1

42 0
 s    6 1.00
             5484.6717   0.001831099805527
             825.23495   0.013950098518422
             188.04696    0.06844509273075
               52.9645    0.23271427528445
              16.89757    0.47019295006289
             5.7996353    0.35852086192309
 s    3 1.00
             15.539616   -0.11077750382508
             3.5999336   -0.14802630511126
             1.0137618     1.1307670390447
 s    1 1.00
             0.2700058                   1
 p    3 1.00
             15.539616   0.070874299543311
             3.5999336    0.33975279781076
             1.0137618    0.72715859531445
 p    1 1.00
             0.2700058                   1
 d    1 1.00
                   0.8                   1

43 0
 s    3 1.00
             18.731137    0.03349459952309
             2.8253937    0.23472694665786
             0.6401217    0.81375731841339
 s    1 1.00
             0.1612778                   1

[5d]
[7f]
[9g]

[MO]
 Sym= A
 Ene=               0
 Spin= Alpha
 Occup=    1.00000
   1    -0.012814848149831
   2    0.0012041174821884
   3    -0.0073197573985025
   4    -0.00047127232981196
   5    8.4721795925568e-05
   6    -0.0013259700785227
   7    -0.00065375998046805
   8    -0.00083297669865402
   9    0.0040803315757917
  10    0.0010671206433575
  11    0.0010219229111744
  12    -0.00014522001513991
  13    0.00025436120095612
  14    -5.591180177908e-05
  15    0.00046328574344527
  16    0.00096449231020869
  17     -0.99447762345039
  18    -0.038590215257561
  19     0.029792839677924
  20    -0.00081184819678484
  21    -0.00020865299412449
  22    0.00029887168272381
  23     0.003441505635071
  24    0.0010692641959996
  25    0.00011176631849676
  26    -0.00084311978226703
  27    0.00026141725519368
  28    0.0004037196557781
  29    -0.00023172259982775
  30    -0.00012188373853056
  31    0.0012484762519607
  32    -0.004119164895142
  33    -0.025191411148291
  34    0.00077368432354022
  35    -0.005435214959291
  36    -0.00094519012717467
  37    -0.00043106020296808
  38    0.0014866202905253
  39    0.00034845202645857
  40    -0.0010247919365297
  41    -0.0051329582931351
  42    0.0007214041790182
  43    -0.0011225905545752
  44    -0.00059091369959661
  45    0.00039558533753602
  46    0.00045718605651525
  47    0.00051743121098724
  48    0.00064073384712087
  49    0.0012831110279357
  50    0.00048439186928325
  51    -0.00049397433936535
  52    -9.2353174057061e-06
  53    -0.00012378300097981
  54    0.00033942331267985
  55    0.0010615707135799
  56    0.00039213479732138
  57    -0.0044285131708189
  58    4.1382038606622e-05
  59    -8.8484927233231e-05
  60    -0.00012413533134565
  61    4.917213800086e-05
  62    -0.00013063781933784
  63    0.00027477965389555
  64    0.00022441213667575
  65    2.1573910796485e-06
  66    5.4229914747217e-06
  67    -4.7237647538159e-08
  68    -3.9773221916788e-07
  69    -5.0014115247638e-06
  70    -1.0787201935418e-06
  71    3.0638917305315e-06
  72    6.3195088210325e-07
  73    -9.3331336383441e-06
  74    -2.1616868311207e-05
  75    -1.0859051910763e-05
  76    3.3524862368872e-07
  77    2.9890054368989e-07
  78    -1.1023378160973e-07
  79    -3.6362960478373e-07
  80    6.3081557598432e-08
  81    -1.9622746233666e-06
  82    -1.1114841487235e-05
  83    8.5240396500407e-08
  84    2.2657121569201e-07
  85    4.1554822396954e-05
  86    -2.5678338579108e-06
  87    -2.7959558799912e-06
  88    -3.3807112346407e-06
  89    -1.4930087230164e-05
  90    4.7256487964563e-05
  91    -4.2688844346105e-06
  92    -1.4344529515164e-06
  93    1.8872822671785e-06
  94    -2.4145111600674e-06
  95    4.1200958925511e-07
  96    8.7341731436392e-07
  97    -4.7845224145787e-06
  98    -9.8045342033641e-06
  99    2.8207787196607e-06
 100    1.5047295977588e-05
 101    5.0550286987991e-07
 102    8.4319962907346e-06
 103    -0.00013599544395408
 104    1.0886346590542e-06
 105    6.8878574100698e-06
 106    5.8042187987545e-07
 107    0.0001301806510714
 108    -0.00012432003432135
 109    -0.00010448367375155
 110    5.5742804632944e-06
 111    8.7928665861561e-07
 112    -3.2742980148371e-07
 113    -1.7590407323696e-06
 114    3.1586984144396e-06
 115    3.0687641980011e-06
 116    2.9790521108617e-05
 117    -0.00019618559609275
 118    1.4732942654879e-06
 119    -1.3965743031742e-06
 120    -4.7047550799385e-06
 121    4.0545894200483e-05
 122    -1.5144841153743e-05
 123    -8.3599996690947e-06
 124    -1.0554899857248e-06
 125    1.772713322096e-06
 126    1.732382524479e-06
 127    -4.1527371626055e-07
 128    1.5234771922303e-06
 129    4.9137072882306e-06
 130    4.5252963917666e-05
 131    -5.0146130429652e-05
 132    -2.4434724027153e-07
 133    5.7579539560368e-06
 134    -2.0620934125388e-05
 135    0.00020467859514067
 136    -3.1776801058932e-05
 137    0.00027946564260303
 138    -6.0498588803044e-06
 139    -1.0152242340614e-05
 140    -2.7410676754624e-06
 141    -4.1419654827816e-06
 142    -4.5090922881291e-06
 143    1.398187562604e-06
 144    1.8601530422375e-05
 145    -3.8710088788458e-05
 146    -1.7539775024286e-06
 147    -6.3471741301609e-06
 148    -6.1248053769178e-06
 149    -1.5546181420164e-05
 150    3.1318518045015e-05
 151    2.9448079747381e-05
 152    4.7756410894831e-06
 153    3.1423845091005e-06
 154    8.3420395144049e-07
 155    -3.4991067827086e-06
 156    2.0564703188642e-06
 157    -7.1357512484875e-07
 158    -5.5320952645074e-06
 159    -8.6181834706205e-07
 160    -4.5187241364589e-06
 161    1.0386594677354e-06
 162    -1.2445099112438e-08
 163    3.0388706870647e-05
 164    -8.8401802161791e-06
 165    -4.9041765643577e-06
 166    -2.4987777071022e-06
 167    1.0960303326992e-08
 168    2.903218848171e-07
 169    -2.6251408692065e-07
 170    -8.5316002818975e-07
 171    6.5401005884232e-07
 172    1.1830349448599e-05
 173    -2.5045162520917e-05
 174    2.2778126116469e-06
 175    -3.4758668865203e-07
 176    -7.7167614177977e-06
 177    1.6959377978354e-05
 178    6.9730581253756e-06
 179    3.1591177592807e-05
 180    -1.8324627634367e-06
 181    -2.8690428890787e-06
 182    -5.9156063181404e-07
 183    1.5824452557651e-06
 184    -2.8056990695276e-07
 185    2.2138906845014e-06
 186    1.8860371028291e-05
 187    -4.5520593319855e-05
 188    9.508447209031e-07
 189    -6.9358297337842e-07
 190    -3.9736612763789e-06
 191    2.3476826667206e-06
 192    3.1237387375025e-06
 193    4.837561814514e-05
 194    -2.2718220573822e-06
 195    -7.5298354505732e-07
 196    -8.6314187541761e-07
 197    -1.1662752998226e-08
 198    -1.2926481920568e-07
 199    4.8574956239741e-06
 200    3.2503629490802e-07
 201    1.7331732103616e-06
 202    -1.4966798526846e-05
 203    8.9133889787433e-06
 204    5.3844867891923e-07
 205    2.4973241410018e-06
 206    2.2296419202251e-05
 207    -9.4545511333304e-06
 208    6.9121757500794e-05
 209    -6.8394378222128e-06
 210     2.35946212418e-05
 211    -3.1235186872879e-06
 212    -1.0460087692017e-05
 213    8.7817253430717e-07
 214    1.3822822683045e-05
 215    -1.5526325995796e-06
 216    5.2499350886001e-05
 217    3.7323135411352e-08
 218    -5.6343617612312e-06
 219    5.8985450141474e-07
 220    -4.2115566578976e-07
 221    3.3755489394938e-06
 222    4.4590795854485e-05
 223    -0.00053136757075944
 224    1.7342455620766e-05
 225    -2.3159910624613e-07
 226    -7.4899452569745e-06
 227    -0.00054025418657341
 228    -0.00020717883911378
 229    0.0004890014139453
 230    3.8920791025966e-06
 231    2.7097460920694e-05
 232    1.2026322885729e-05
 233    -1.4267388060283e-05
 234    -1.5932584669421e-05
 235    2.0432998913134e-05
 236    9.1033645778316e-05
 237    -0.00054153636558145
 238    2.6304190821523e-05
 239    5.0229600933168e-07
 240    2.4139244885564e-06
 241    -5.5803350295821e-05
 242    -0.00025195158117947
 243     0.001442390396621
 244    -2.8376303180179e-05
 245    -5.4105132329047e-05
 246    -6.5684976399002e-06
 247    -1.3960766039059e-05
 248    -9.6848424576258e-07
 249    2.0454456650916e-05
 250    -0.00031284999767314
 251    -1.989204299475e-05
 252    0.00031212054830921
 253    -0.00068460616899876
 254    -8.4746756650112e-05
 255    3.989435226154e-05
 256    -0.00022238241887846
 257    0.00073503866548357
 258    -0.00021464061060698
 259     0.001552716727429
 260    8.8477749524371e-05
 261    4.7808596031511e-07
 262    7.4960070340816e-06
 263    -0.00012863272978155
 264    -8.4455953452214e-05
 265    8.819793943272e-05
 266    -0.00015877782340549
 267    0.00014961495110465
 268    0.00069853825241951
 269    2.0062917592962e-05
 270    0.00025614590695492
 271    -0.0033187818382852
 272    -3.1422171176866e-05
 273    1.8005689404255e-05
 274    -6.4558928213826e-05
 275    0.0015392487681873
 276    0.00078194658435019
 277    -0.0015624818742093
 278    -4.1133634716806e-05
 279    9.7200639995096e-05
 280    2.3949864901723e-05