[Molden Format]
made by pyscf v[2.0.1]
[Atoms] (AU)
C   1   6     0.69100024066471     0.64692934207205    -3.48223131169301
H   2   1     2.68052439830868     1.13355088658700    -3.25784032593313
C   3   6    -0.36286361513219     0.85440132524594    -5.97030179418974
H   4   1    -2.35448549047279     0.36322488579172    -6.17995817793143
C   5   6     0.93697958957450     1.61209284601821    -8.05828437677121
H   6   1     0.50725181311820     3.44287068169954    -8.89764684313250
C   7   6     2.86970100877903     0.12057508237944    -9.23991306333710
H   8   1     3.28022106466413    -1.70875314533660    -8.37692190559989
H   9   1     1.55630230933075    -1.92953025305990    12.99630010416247
C   10   6     0.75233899775814    -2.21270439606481    11.10705728102219
H   11   1    -0.43433408177274    -3.90944857546550    11.22216085340412
C   12   6     2.86362581178706    -2.63237380607947     9.17926416456045
H   13   1     4.39038949912609    -1.24955421540245     9.49899813497433
H   14   1     3.74629220191363    -4.48798724300892     9.47414880959024
C   15   6     2.02478325613682    -2.42177285709634     6.44560829588644
C   16   6     3.88048732735477    -3.58795445234514     4.61402886975252
C   17   6    -0.18412382258602    -1.30464291234259     5.76021113872346
C   18   6    -2.10044360464350    -0.26837831858460     7.71610340967100
C   19   6    -3.08956938670431     2.35282328359417     6.88693925039594
C   20   6    -4.37372924086464    -2.09766595989678     7.93610724222001
C   21   6    -0.83850430601230     0.06372213486173    10.33002307638377
H   22   1     0.38411922151109     1.74281358582432    10.27380136542181
H   23   1    -2.30980003007874     0.45460143924521    11.73986301809809
H   24   1     4.58527064644668    -5.38706904487420     5.36778158031719
H   25   1     5.54944938085014    -2.37631462192748     4.35398898413318
H   26   1     3.06633019150423    -3.94118377050688     2.75255466040884
H   27   1    -4.17727778763735     2.26573369139522     5.12914900961283
H   28   1    -1.52662344944051     3.68001877445626     6.59540397144508
H   29   1    -4.32916174397830     3.13643051467482     8.35225460090378
H   30   1    -5.32329548508442    -2.36691813602939     6.11583672749896
H   31   1    -5.77989366602257    -1.33896741843465     9.25748940450990
H   32   1    -3.79310905208926    -3.96389819310853     8.61386170102686
C   33   6    -1.01100794811226    -1.06331657314144     3.11929490449947
C   34   6     0.37686231036534    -0.33275864505552     1.09165013605873
H   35   1    -3.01671213906703    -1.40297922279997     2.77827895090944
C   36   6    -0.64382707979370    -0.11591880174385    -1.42063131251064
H   37   1     2.35569259782137     0.17174499283897     1.33641070251401
H   38   1    -2.63317482980319    -0.60229203511219    -1.66119700387645
C   39   6     4.20991814769739     0.79575668965015   -11.31949989075694
C   40   6     6.14288813089389    -0.86010693489370   -12.38193355267250
H   41   1     3.89481568247576     2.59125541029260   -12.27063769452772
O   42   8     7.41472391465697    -0.37430332261595   -14.24398959848541
H   43   1     6.40229959564941    -2.67780216203268   -11.34807250251721
[GTO]
1 0
 s    6 1.00
             3047.5249  0.0018347001629433
             457.36951    0.01403730124668
             103.94869   0.068842606114048
             29.210155    0.23218442062076
              9.286663    0.46794134155879
              3.163927    0.36231203217765
 s    3 1.00
             7.8682724   -0.11933240861517
             1.8812885   -0.16085421161283
             0.5442493     1.1434564825515
 s    1 1.00
             0.1687144                   1
 p    3 1.00
             7.8682724   0.068999095584993
             1.8812885    0.31642397975315
             0.5442493    0.74430825237435
 p    1 1.00
             0.1687144                   1
 d    1 1.00
                   0.8                   1

2 0
 s    3 1.00
             18.731137    0.03349459952309
             2.8253937    0.23472694665786
             0.6401217    0.81375731841339
 s    1 1.00
             0.1612778                   1

3 0
 s    6 1.00
             3047.5249  0.0018347001629433
             457.36951    0.01403730124668
             103.94869   0.068842606114048
             29.210155    0.23218442062076
              9.286663    0.46794134155879
              3.163927    0.36231203217765
 s    3 1.00
             7.8682724   -0.11933240861517
             1.8812885   -0.16085421161283
             0.5442493     1.1434564825515
 s    1 1.00
             0.1687144                   1
 p    3 1.00
             7.8682724   0.068999095584993
             1.8812885    0.31642397975315
             0.5442493    0.74430825237435
 p    1 1.00
             0.1687144                   1
 d    1 1.00
                   0.8                   1

4 0
 s    3 1.00
             18.731137    0.03349459952309
             2.8253937    0.23472694665786
             0.6401217    0.81375731841339
 s    1 1.00
             0.1612778                   1

5 0
 s    6 1.00
             3047.5249  0.0018347001629433
             457.36951    0.01403730124668
             103.94869   0.068842606114048
             29.210155    0.23218442062076
              9.286663    0.46794134155879
              3.163927    0.36231203217765
 s    3 1.00
             7.8682724   -0.11933240861517
             1.8812885   -0.16085421161283
             0.5442493     1.1434564825515
 s    1 1.00
             0.1687144                   1
 p    3 1.00
             7.8682724   0.068999095584993
             1.8812885    0.31642397975315
             0.5442493    0.74430825237435
 p    1 1.00
             0.1687144                   1
 d    1 1.00
                   0.8                   1

6 0
 s    3 1.00
             18.731137    0.03349459952309
             2.8253937    0.23472694665786
             0.6401217    0.81375731841339
 s    1 1.00
             0.1612778                   1

7 0
 s    6 1.00
             3047.5249  0.0018347001629433
             457.36951    0.01403730124668
             103.94869   0.068842606114048
             29.210155    0.23218442062076
              9.286663    0.46794134155879
              3.163927    0.36231203217765
 s    3 1.00
             7.8682724   -0.11933240861517
             1.8812885   -0.16085421161283
             0.5442493     1.1434564825515
 s    1 1.00
             0.1687144                   1
 p    3 1.00
             7.8682724   0.068999095584993
             1.8812885    0.31642397975315
             0.5442493    0.74430825237435
 p    1 1.00
             0.1687144                   1
 d    1 1.00
                   0.8                   1

8 0
 s    3 1.00
             18.731137    0.03349459952309
             2.8253937    0.23472694665786
             0.6401217    0.81375731841339
 s    1 1.00
             0.1612778                   1

9 0
 s    3 1.00
             18.731137    0.03349459952309
             2.8253937    0.23472694665786
             0.6401217    0.81375731841339
 s    1 1.00
             0.1612778                   1

10 0
 s    6 1.00
             3047.5249  0.0018347001629433
             457.36951    0.01403730124668
             103.94869   0.068842606114048
             29.210155    0.23218442062076
              9.286663    0.46794134155879
              3.163927    0.36231203217765
 s    3 1.00
             7.8682724   -0.11933240861517
             1.8812885   -0.16085421161283
             0.5442493     1.1434564825515
 s    1 1.00
             0.1687144                   1
 p    3 1.00
             7.8682724   0.068999095584993
             1.8812885    0.31642397975315
             0.5442493    0.74430825237435
 p    1 1.00
             0.1687144                   1
 d    1 1.00
                   0.8                   1

11 0
 s    3 1.00
             18.731137    0.03349459952309
             2.8253937    0.23472694665786
             0.6401217    0.81375731841339
 s    1 1.00
             0.1612778                   1

12 0
 s    6 1.00
             3047.5249  0.0018347001629433
             457.36951    0.01403730124668
             103.94869   0.068842606114048
             29.210155    0.23218442062076
              9.286663    0.46794134155879
              3.163927    0.36231203217765
 s    3 1.00
             7.8682724   -0.11933240861517
             1.8812885   -0.16085421161283
             0.5442493     1.1434564825515
 s    1 1.00
             0.1687144                   1
 p    3 1.00
             7.8682724   0.068999095584993
             1.8812885    0.31642397975315
             0.5442493    0.74430825237435
 p    1 1.00
             0.1687144                   1
 d    1 1.00
                   0.8                   1

13 0
 s    3 1.00
             18.731137    0.03349459952309
             2.8253937    0.23472694665786
             0.6401217    0.81375731841339
 s    1 1.00
             0.1612778                   1

14 0
 s    3 1.00
             18.731137    0.03349459952309
             2.8253937    0.23472694665786
             0.6401217    0.81375731841339
 s    1 1.00
             0.1612778                   1

15 0
 s    6 1.00
             3047.5249  0.0018347001629433
             457.36951    0.01403730124668
             103.94869   0.068842606114048
             29.210155    0.23218442062076
              9.286663    0.46794134155879
              3.163927    0.36231203217765
 s    3 1.00
             7.8682724   -0.11933240861517
             1.8812885   -0.16085421161283
             0.5442493     1.1434564825515
 s    1 1.00
             0.1687144                   1
 p    3 1.00
             7.8682724   0.068999095584993
             1.8812885    0.31642397975315
             0.5442493    0.74430825237435
 p    1 1.00
             0.1687144                   1
 d    1 1.00
                   0.8                   1

16 0
 s    6 1.00
             3047.5249  0.0018347001629433
             457.36951    0.01403730124668
             103.94869   0.068842606114048
             29.210155    0.23218442062076
              9.286663    0.46794134155879
              3.163927    0.36231203217765
 s    3 1.00
             7.8682724   -0.11933240861517
             1.8812885   -0.16085421161283
             0.5442493     1.1434564825515
 s    1 1.00
             0.1687144                   1
 p    3 1.00
             7.8682724   0.068999095584993
             1.8812885    0.31642397975315
             0.5442493    0.74430825237435
 p    1 1.00
             0.1687144                   1
 d    1 1.00
                   0.8                   1

17 0
 s    6 1.00
             3047.5249  0.0018347001629433
             457.36951    0.01403730124668
             103.94869   0.068842606114048
             29.210155    0.23218442062076
              9.286663    0.46794134155879
              3.163927    0.36231203217765
 s    3 1.00
             7.8682724   -0.11933240861517
             1.8812885   -0.16085421161283
             0.5442493     1.1434564825515
 s    1 1.00
             0.1687144                   1
 p    3 1.00
             7.8682724   0.068999095584993
             1.8812885    0.31642397975315
             0.5442493    0.74430825237435
 p    1 1.00
             0.1687144                   1
 d    1 1.00
                   0.8                   1

18 0
 s    6 1.00
             3047.5249  0.0018347001629433
             457.36951    0.01403730124668
             103.94869   0.068842606114048
             29.210155    0.23218442062076
              9.286663    0.46794134155879
              3.163927    0.36231203217765
 s    3 1.00
             7.8682724   -0.11933240861517
             1.8812885   -0.16085421161283
             0.5442493     1.1434564825515
 s    1 1.00
             0.1687144                   1
 p    3 1.00
             7.8682724   0.068999095584993
             1.8812885    0.31642397975315
             0.5442493    0.74430825237435
 p    1 1.00
             0.1687144                   1
 d    1 1.00
                   0.8                   1

19 0
 s    6 1.00
             3047.5249  0.0018347001629433
             457.36951    0.01403730124668
             103.94869   0.068842606114048
             29.210155    0.23218442062076
              9.286663    0.46794134155879
              3.163927    0.36231203217765
 s    3 1.00
             7.8682724   -0.11933240861517
             1.8812885   -0.16085421161283
             0.5442493     1.1434564825515
 s    1 1.00
             0.1687144                   1
 p    3 1.00
             7.8682724   0.068999095584993
             1.8812885    0.31642397975315
             0.5442493    0.74430825237435
 p    1 1.00
             0.1687144                   1
 d    1 1.00
                   0.8                   1

20 0
 s    6 1.00
             3047.5249  0.0018347001629433
             457.36951    0.01403730124668
             103.94869   0.068842606114048
             29.210155    0.23218442062076
              9.286663    0.46794134155879
              3.163927    0.36231203217765
 s    3 1.00
             7.8682724   -0.11933240861517
             1.8812885   -0.16085421161283
             0.5442493     1.1434564825515
 s    1 1.00
             0.1687144                   1
 p    3 1.00
             7.8682724   0.068999095584993
             1.8812885    0.31642397975315
             0.5442493    0.74430825237435
 p    1 1.00
             0.1687144                   1
 d    1 1.00
                   0.8                   1

21 0
 s    6 1.00
             3047.5249  0.0018347001629433
             457.36951    0.01403730124668
             103.94869   0.068842606114048
             29.210155    0.23218442062076
              9.286663    0.46794134155879
              3.163927    0.36231203217765
 s    3 1.00
             7.8682724   -0.11933240861517
             1.8812885   -0.16085421161283
             0.5442493     1.1434564825515
 s    1 1.00
             0.1687144                   1
 p    3 1.00
             7.8682724   0.068999095584993
             1.8812885    0.31642397975315
             0.5442493    0.74430825237435
 p    1 1.00
             0.1687144                   1
 d    1 1.00
                   0.8                   1

22 0
 s    3 1.00
             18.731137    0.03349459952309
             2.8253937    0.23472694665786
             0.6401217    0.81375731841339
 s    1 1.00
             0.1612778                   1

23 0
 s    3 1.00
             18.731137    0.03349459952309
             2.8253937    0.23472694665786
             0.6401217    0.81375731841339
 s    1 1.00
             0.1612778                   1

24 0
 s    3 1.00
             18.731137    0.03349459952309
             2.8253937    0.23472694665786
             0.6401217    0.81375731841339
 s    1 1.00
             0.1612778                   1

25 0
 s    3 1.00
             18.731137    0.03349459952309
             2.8253937    0.23472694665786
             0.6401217    0.81375731841339
 s    1 1.00
             0.1612778                   1

26 0
 s    3 1.00
             18.731137    0.03349459952309
             2.8253937    0.23472694665786
             0.6401217    0.81375731841339
 s    1 1.00
             0.1612778                   1

27 0
 s    3 1.00
             18.731137    0.03349459952309
             2.8253937    0.23472694665786
             0.6401217    0.81375731841339
 s    1 1.00
             0.1612778                   1

28 0
 s    3 1.00
             18.731137    0.03349459952309
             2.8253937    0.23472694665786
             0.6401217    0.81375731841339
 s    1 1.00
             0.1612778                   1

29 0
 s    3 1.00
             18.731137    0.03349459952309
             2.8253937    0.23472694665786
             0.6401217    0.81375731841339
 s    1 1.00
             0.1612778                   1

30 0
 s    3 1.00
             18.731137    0.03349459952309
             2.8253937    0.23472694665786
             0.6401217    0.81375731841339
 s    1 1.00
             0.1612778                   1

31 0
 s    3 1.00
             18.731137    0.03349459952309
             2.8253937    0.23472694665786
             0.6401217    0.81375731841339
 s    1 1.00
             0.1612778                   1

32 0
 s    3 1.00
             18.731137    0.03349459952309
             2.8253937    0.23472694665786
             0.6401217    0.81375731841339
 s    1 1.00
             0.1612778                   1

33 0
 s    6 1.00
             3047.5249  0.0018347001629433
             457.36951    0.01403730124668
             103.94869   0.068842606114048
             29.210155    0.23218442062076
              9.286663    0.46794134155879
              3.163927    0.36231203217765
 s    3 1.00
             7.8682724   -0.11933240861517
             1.8812885   -0.16085421161283
             0.5442493     1.1434564825515
 s    1 1.00
             0.1687144                   1
 p    3 1.00
             7.8682724   0.068999095584993
             1.8812885    0.31642397975315
             0.5442493    0.74430825237435
 p    1 1.00
             0.1687144                   1
 d    1 1.00
                   0.8                   1

34 0
 s    6 1.00
             3047.5249  0.0018347001629433
             457.36951    0.01403730124668
             103.94869   0.068842606114048
             29.210155    0.23218442062076
              9.286663    0.46794134155879
              3.163927    0.36231203217765
 s    3 1.00
             7.8682724   -0.11933240861517
             1.8812885   -0.16085421161283
             0.5442493     1.1434564825515
 s    1 1.00
             0.1687144                   1
 p    3 1.00
             7.8682724   0.068999095584993
             1.8812885    0.31642397975315
             0.5442493    0.74430825237435
 p    1 1.00
             0.1687144                   1
 d    1 1.00
                   0.8                   1

35 0
 s    3 1.00
             18.731137    0.03349459952309
             2.8253937    0.23472694665786
             0.6401217    0.81375731841339
 s    1 1.00
             0.1612778                   1

36 0
 s    6 1.00
             3047.5249  0.0018347001629433
             457.36951    0.01403730124668
             103.94869   0.068842606114048
             29.210155    0.23218442062076
              9.286663    0.46794134155879
              3.163927    0.36231203217765
 s    3 1.00
             7.8682724   -0.11933240861517
             1.8812885   -0.16085421161283
             0.5442493     1.1434564825515
 s    1 1.00
             0.1687144                   1
 p    3 1.00
             7.8682724   0.068999095584993
             1.8812885    0.31642397975315
             0.5442493    0.74430825237435
 p    1 1.00
             0.1687144                   1
 d    1 1.00
                   0.8                   1

37 0
 s    3 1.00
             18.731137    0.03349459952309
             2.8253937    0.23472694665786
             0.6401217    0.81375731841339
 s    1 1.00
             0.1612778                   1

38 0
 s    3 1.00
             18.731137    0.03349459952309
             2.8253937    0.23472694665786
             0.6401217    0.81375731841339
 s    1 1.00
             0.1612778                   1

39 0
 s    6 1.00
             3047.5249  0.0018347001629433
             457.36951    0.01403730124668
             103.94869   0.068842606114048
             29.210155    0.23218442062076
              9.286663    0.46794134155879
              3.163927    0.36231203217765
 s    3 1.00
             7.8682724   -0.11933240861517
             1.8812885   -0.16085421161283
             0.5442493     1.1434564825515
 s    1 1.00
             0.1687144                   1
 p    3 1.00
             7.8682724   0.068999095584993
             1.8812885    0.31642397975315
             0.5442493    0.74430825237435
 p    1 1.00
             0.1687144                   1
 d    1 1.00
                   0.8                   1

40 0
 s    6 1.00
             3047.5249  0.0018347001629433
             457.36951    0.01403730124668
             103.94869   0.068842606114048
             29.210155    0.23218442062076
              9.286663    0.46794134155879
              3.163927    0.36231203217765
 s    3 1.00
             7.8682724   -0.11933240861517
             1.8812885   -0.16085421161283
             0.5442493     1.1434564825515
 s    1 1.00
             0.1687144                   1
 p    3 1.00
             7.8682724   0.068999095584993
             1.8812885    0.31642397975315
             0.5442493    0.74430825237435
 p    1 1.00
             0.1687144                   1
 d    1 1.00
                   0.8                   1

41 0
 s    3 1.00
             18.731137    0.03349459952309
             2.8253937    0.23472694665786
             0.6401217    0.81375731841339
 s    1 1.00
             0.1612778                   1

42 0
 s    6 1.00
             5484.6717   0.001831099805527
             825.23495   0.013950098518422
             188.04696    0.06844509273075
               52.9645    0.23271427528445
              16.89757    0.47019295006289
             5.7996353    0.35852086192309
 s    3 1.00
             15.539616   -0.11077750382508
             3.5999336   -0.14802630511126
             1.0137618     1.1307670390447
 s    1 1.00
             0.2700058                   1
 p    3 1.00
             15.539616   0.070874299543311
             3.5999336    0.33975279781076
             1.0137618    0.72715859531445
 p    1 1.00
             0.2700058                   1
 d    1 1.00
                   0.8                   1

43 0
 s    3 1.00
             18.731137    0.03349459952309
             2.8253937    0.23472694665786
             0.6401217    0.81375731841339
 s    1 1.00
             0.1612778                   1

[5d]
[7f]
[9g]

[MO]
 Sym= A
 Ene=               0
 Spin= Alpha
 Occup=    1.00000
   1    -0.0025122887459268
   2      -0.2952052435317
   3     -0.19870519890271
   4     0.075945882868161
   5     0.048497983956376
   6     -0.14541470024397
   7    -0.010770781162782
   8    0.0074325748598711
   9    -0.050321893202737
  10    -0.003853203559235
  11    0.0051385438469136
  12    0.0046262918748162
  13    -0.0075410958312984
  14    -0.0054216079266746
  15    -0.065092153505701
  16    0.0035221383454818
  17    0.0084668014316976
  18    -0.044964361640898
  19    -0.020009713110635
  20    0.0071225473506511
  21     0.010892593644238
  22    -0.051616379614898
  23     0.012274249157319
  24    0.0078271864674287
  25     -0.02759502848254
  26    -0.0063849094941628
  27    -0.0022745995431405
  28    0.0018712817950841
  29    -0.00087349536609487
  30    -0.00017585750362793
  31    -0.012443676446125
  32    0.00041601054650406
  33    -0.00065066839310913
  34    -0.0010203964166913
  35    -0.020133111084808
  36    -0.0034474969845339
  37    -0.00032869231602699
  38    0.0081581219348238
  39    0.0068175190046861
  40     0.004526985821051
  41    -0.002929626762905
  42    0.00016282346040994
  43    0.0010049301505692
  44    -8.725146567082e-05
  45    -0.00030213003689279
  46    0.00035067408423478
  47    -0.0014064747566147
  48    -0.00094931133489268
  49    0.00035306931869505
  50     -0.03372127887719
  51    -0.026780748446847
  52    -0.012147163102382
  53    -0.0020374841932528
  54      0.01440220313843
  55    -0.0087502285864346
  56    0.00011221523342787
  57    0.0065893515919249
  58    -0.00032552186519657
  59    0.00084366771144363
  60    0.00098100193141055
  61    0.00033950910675734
  62    0.00011788530766706
  63    -0.0089895427334475
  64    -0.001638673586462
  65    -4.8025189161412e-05
  66    -7.380514915188e-05
  67    -2.6433209113221e-05
  68    2.6358484601138e-06
  69    0.00044567341730107
  70    7.3514650326553e-05
  71    -1.484754651157e-05
  72    -5.1855856641857e-05
  73    -0.0001885181741265
  74    -0.000494883548232
  75    -0.00021307991599434
  76    -2.9065957814833e-05
  77    -1.6505819986945e-05
  78    1.1400956889224e-05
  79    6.592739702161e-06
  80    -1.385843959916e-05
  81    -1.7348143209862e-05
  82    -0.00041997691998121
  83    9.6718517502414e-06
  84    -0.00012552199408372
  85    -0.0010888601803676
  86    9.2995590662454e-05
  87    -0.00013759169092015
  88    0.00025818128422143
  89    0.00041427379310571
  90    0.00048604569468751
  91    0.00040692325183005
  92    1.5509971866575e-05
  93    -4.7291987770366e-05
  94    -1.2215944833107e-05
  95    -4.5089204367536e-06
  96    -9.6343995624961e-06
  97    -0.00010739927038975
  98    -0.00040765463303498
  99    0.00013441598289732
 100    0.00029902380340223
 101    -4.5181960174565e-05
 102    -1.6558129557418e-05
 103    0.00088156198286346
 104    0.00043597984529207
 105    0.00040417403937022
 106    -0.00039047523407821
 107    -0.0024680760742809
 108    0.0012974662839741
 109    0.0032241541986486
 110    -3.5915066924925e-05
 111    -7.9794548238836e-05
 112    2.702404759654e-05
 113    5.7649183774258e-05
 114    -3.5018904019125e-05
 115    -7.8130467719607e-05
 116    0.00017976698364666
 117    0.0022529636573006
 118    -0.00012066844970529
 119    0.00033119404580493
 120    -1.2194655002377e-05
 121    -0.00052744154995861
 122    0.00021458167940841
 123    0.0016588719287623
 124    -1.1506863168229e-05
 125    -3.194782787564e-05
 126    6.5979404339932e-05
 127    -1.5550904938377e-05
 128    -3.2702596463934e-05
 129    -2.3920204791447e-05
 130    -0.00066749748253775
 131     0.012166990752488
 132    0.00011651309309033
 133    0.00013342659421284
 134    0.00060279530034538
 135    -0.0017202854276933
 136    0.0012757663006199
 137    -0.013126247052971
 138    0.00041076795137338
 139    -9.5988610507009e-05
 140    -8.0705367351521e-05
 141    -3.6163910222775e-05
 142    -5.2759556239855e-05
 143    -9.5876918915263e-05
 144    0.00010030666144285
 145    0.0024780555798827
 146    1.4185109167244e-05
 147    -0.00014237246150337
 148    -0.00055613749663253
 149    0.0029501233096555
 150    -0.0015988594293297
 151    0.0020466448624049
 152    -9.6283089195295e-05
 153    2.8960465594108e-05
 154    4.2960890952569e-05
 155    5.8341164576315e-05
 156    -5.7048759316448e-05
 157    -3.8127844346405e-05
 158    -0.00012115127768505
 159    0.0016581593607109
 160    -6.9132324757277e-05
 161    -1.5488912918279e-05
 162    -1.5447578818526e-05
 163    -0.00014938688706316
 164    -0.00090787732508366
 165    -0.000292486776764
 166    -3.0800143330187e-05
 167    1.0336127366202e-05
 168    -5.6337486089196e-06
 169    -5.3031135140972e-05
 170    7.5265113994291e-06
 171    -1.3536453049621e-05
 172    0.00023391724038775
 173    -0.00023309911998239
 174    7.4013456158373e-06
 175    -2.8099692213916e-05
 176    -0.00029274187848641
 177    -0.00038760569313306
 178    0.00073745730904261
 179    8.9006787721845e-05
 180    -5.5444445003375e-06
 181    -6.2533273883319e-05
 182    -2.1836248143437e-05
 183    -3.1596032850574e-05
 184    8.3935717824409e-06
 185    1.8072426941491e-05
 186    -4.8959278792505e-05
 187    -0.0017792797709484
 188    -1.2126010140909e-05
 189    5.8511029450878e-05
 190    0.00033301257836419
 191    0.0010499759653419
 192    0.00039404187165938
 193    0.00056821258362091
 194    -1.960067536521e-05
 195    -4.7050802255118e-05
 196    -2.3964096832288e-05
 197    7.3436960305687e-06
 198    -2.590066913694e-05
 199    -1.0791712470056e-05
 200    -0.00036083713495913
 201    0.00015620848896303
 202    0.00056385188086217
 203    -0.00012755730887441
 204    -0.00060995881287794
 205    8.3190600428114e-05
 206    -6.1814396782752e-05
 207    -0.00013001885639717
 208    0.0010172533359093
 209    -7.9547000595309e-05
 210    -0.0002659991692986
 211    -3.1540257120557e-05
 212    8.0240100507669e-05
 213    -2.9067842178358e-05
 214    0.00014166473309791
 215    2.3237625003415e-05
 216    0.00060978483345632
 217    -4.2439017470759e-05
 218    -0.00039819374211868
 219    7.6039460310294e-06
 220    0.00043721491754908
 221    -0.0011573488709533
 222    0.0028112664532683
 223    -0.025350884033885
 224    0.0016161555392454
 225    0.00028096172766687
 226    -0.0030542208156392
 227    -0.017492798281021
 228    -0.0028970309315623
 229    -0.0091947318187381
 230    -0.00017814078502106
 231    0.00016167957994189
 232    0.00015991647733588
 233    -0.00018480488124645
 234    -0.0001747940119451
 235    0.0080926918906594
 236    -0.042197527314184
 237    -0.019858848158535
 238    -0.0070978385562252
 239    -0.010964170370631
 240     0.047679047421955
 241    -0.0079323518968865
 242    -0.0078327218741557
 243     0.031082948748244
 244    -0.0063823991863636
 245    -0.0019186608916603
 246    0.0018458637599298
 247    -0.000907817786813
 248    -0.00023803039406679
 249    -0.00090407963914813
 250    -0.0087372786349333
 251    -0.0011930600354049
 252     -0.29307765464235
 253       -0.186412248119
 254    -0.078370060686828
 255    -0.049461587846468
 256        0.147423103609
 257     0.012909007955452
 258    -0.0051273353224805
 259     0.047617741235704
 260    -0.0035116935334878
 261    0.0049667818696835
 262    0.0046606766137652
 263    -0.0071213803190439
 264    -0.0056752328589208
 265    -0.011633932854368
 266    -0.0016393402965498
 267    -0.063106101359883
 268    0.0051373803526933
 269    -0.0010818994116849
 270    -0.034460281419953
 271    -0.015845000566303
 272    0.0076870849310588
 273    0.0051144244804296
 274    -0.014862888296642
 275    0.0027361424616635
 276    -0.0048294523508597
 277    -0.00072930104781171
 278    -0.00031387556163211
 279    0.00089084478646744
 280    0.00092344425500597
 281    0.00030694817511715
 282    0.00014811521044634
 283    0.0016353581344213