[Molden Format]
made by pyscf v[2.0.1]
[Atoms] (AU)
C   1   6     0.69100024066471     0.64692934207205    -3.48223131169301
H   2   1     2.68052439830868     1.13355088658700    -3.25784032593313
C   3   6    -0.36286361513219     0.85440132524594    -5.97030179418974
H   4   1    -2.35448549047279     0.36322488579172    -6.17995817793143
C   5   6     0.93697958957450     1.61209284601821    -8.05828437677121
H   6   1     0.93570604399073     3.60645829547735    -8.57155587183010
C   7   6     2.33064164489587    -0.08500019610028    -9.65009622470686
H   8   1     2.31545752956704    -2.07726916449957    -9.11124928966168
H   9   1     1.55630230933075    -1.92953025305990    12.99630010416247
C   10   6     0.75233899775814    -2.21270439606481    11.10705728102219
H   11   1    -0.43433408177274    -3.90944857546550    11.22216085340412
C   12   6     2.86362581178706    -2.63237380607947     9.17926416456045
H   13   1     4.39038949912609    -1.24955421540245     9.49899813497433
H   14   1     3.74629220191363    -4.48798724300892     9.47414880959024
C   15   6     2.02478325613682    -2.42177285709634     6.44560829588644
C   16   6     3.88048732735477    -3.58795445234514     4.61402886975252
C   17   6    -0.18412382258602    -1.30464291234259     5.76021113872346
C   18   6    -2.10044360464350    -0.26837831858460     7.71610340967100
C   19   6    -3.08956938670431     2.35282328359417     6.88693925039594
C   20   6    -4.37372924086464    -2.09766595989678     7.93610724222001
C   21   6    -0.83850430601230     0.06372213486173    10.33002307638377
H   22   1     0.38411922151109     1.74281358582432    10.27380136542181
H   23   1    -2.30980003007874     0.45460143924521    11.73986301809809
H   24   1     4.58527064644668    -5.38706904487420     5.36778158031719
H   25   1     5.54944938085014    -2.37631462192748     4.35398898413318
H   26   1     3.06633019150423    -3.94118377050688     2.75255466040884
H   27   1    -4.17727778763735     2.26573369139522     5.12914900961283
H   28   1    -1.52662344944051     3.68001877445626     6.59540397144508
H   29   1    -4.32916174397830     3.13643051467482     8.35225460090378
H   30   1    -5.32329548508442    -2.36691813602939     6.11583672749896
H   31   1    -5.77989366602257    -1.33896741843465     9.25748940450990
H   32   1    -3.79310905208926    -3.96389819310853     8.61386170102686
C   33   6    -1.01100794811226    -1.06331657314144     3.11929490449947
C   34   6     0.37686231036534    -0.33275864505552     1.09165013605873
H   35   1    -3.01671213906703    -1.40297922279997     2.77827895090944
C   36   6    -0.64382707979370    -0.11591880174385    -1.42063131251064
H   37   1     2.35569259782137     0.17174499283897     1.33641070251401
H   38   1    -2.63317482980319    -0.60229203511219    -1.66119700387645
C   39   6     3.64869579482306     0.58263290243353   -11.74621951745329
C   40   6     5.00865186237336    -1.29151691020822   -13.24458681490645
H   41   1     3.74083961582251     2.53414495508714   -12.38721761884598
O   42   8     6.22738846457655    -0.82464446464225   -15.14656876600025
H   43   1     4.86298794977594    -3.26455446446118   -12.51927050350916
[GTO]
1 0
 s    6 1.00
             3047.5249  0.0018347001629433
             457.36951    0.01403730124668
             103.94869   0.068842606114048
             29.210155    0.23218442062076
              9.286663    0.46794134155879
              3.163927    0.36231203217765
 s    3 1.00
             7.8682724   -0.11933240861517
             1.8812885   -0.16085421161283
             0.5442493     1.1434564825515
 s    1 1.00
             0.1687144                   1
 p    3 1.00
             7.8682724   0.068999095584993
             1.8812885    0.31642397975315
             0.5442493    0.74430825237435
 p    1 1.00
             0.1687144                   1
 d    1 1.00
                   0.8                   1

2 0
 s    3 1.00
             18.731137    0.03349459952309
             2.8253937    0.23472694665786
             0.6401217    0.81375731841339
 s    1 1.00
             0.1612778                   1

3 0
 s    6 1.00
             3047.5249  0.0018347001629433
             457.36951    0.01403730124668
             103.94869   0.068842606114048
             29.210155    0.23218442062076
              9.286663    0.46794134155879
              3.163927    0.36231203217765
 s    3 1.00
             7.8682724   -0.11933240861517
             1.8812885   -0.16085421161283
             0.5442493     1.1434564825515
 s    1 1.00
             0.1687144                   1
 p    3 1.00
             7.8682724   0.068999095584993
             1.8812885    0.31642397975315
             0.5442493    0.74430825237435
 p    1 1.00
             0.1687144                   1
 d    1 1.00
                   0.8                   1

4 0
 s    3 1.00
             18.731137    0.03349459952309
             2.8253937    0.23472694665786
             0.6401217    0.81375731841339
 s    1 1.00
             0.1612778                   1

5 0
 s    6 1.00
             3047.5249  0.0018347001629433
             457.36951    0.01403730124668
             103.94869   0.068842606114048
             29.210155    0.23218442062076
              9.286663    0.46794134155879
              3.163927    0.36231203217765
 s    3 1.00
             7.8682724   -0.11933240861517
             1.8812885   -0.16085421161283
             0.5442493     1.1434564825515
 s    1 1.00
             0.1687144                   1
 p    3 1.00
             7.8682724   0.068999095584993
             1.8812885    0.31642397975315
             0.5442493    0.74430825237435
 p    1 1.00
             0.1687144                   1
 d    1 1.00
                   0.8                   1

6 0
 s    3 1.00
             18.731137    0.03349459952309
             2.8253937    0.23472694665786
             0.6401217    0.81375731841339
 s    1 1.00
             0.1612778                   1

7 0
 s    6 1.00
             3047.5249  0.0018347001629433
             457.36951    0.01403730124668
             103.94869   0.068842606114048
             29.210155    0.23218442062076
              9.286663    0.46794134155879
              3.163927    0.36231203217765
 s    3 1.00
             7.8682724   -0.11933240861517
             1.8812885   -0.16085421161283
             0.5442493     1.1434564825515
 s    1 1.00
             0.1687144                   1
 p    3 1.00
             7.8682724   0.068999095584993
             1.8812885    0.31642397975315
             0.5442493    0.74430825237435
 p    1 1.00
             0.1687144                   1
 d    1 1.00
                   0.8                   1

8 0
 s    3 1.00
             18.731137    0.03349459952309
             2.8253937    0.23472694665786
             0.6401217    0.81375731841339
 s    1 1.00
             0.1612778                   1

9 0
 s    3 1.00
             18.731137    0.03349459952309
             2.8253937    0.23472694665786
             0.6401217    0.81375731841339
 s    1 1.00
             0.1612778                   1

10 0
 s    6 1.00
             3047.5249  0.0018347001629433
             457.36951    0.01403730124668
             103.94869   0.068842606114048
             29.210155    0.23218442062076
              9.286663    0.46794134155879
              3.163927    0.36231203217765
 s    3 1.00
             7.8682724   -0.11933240861517
             1.8812885   -0.16085421161283
             0.5442493     1.1434564825515
 s    1 1.00
             0.1687144                   1
 p    3 1.00
             7.8682724   0.068999095584993
             1.8812885    0.31642397975315
             0.5442493    0.74430825237435
 p    1 1.00
             0.1687144                   1
 d    1 1.00
                   0.8                   1

11 0
 s    3 1.00
             18.731137    0.03349459952309
             2.8253937    0.23472694665786
             0.6401217    0.81375731841339
 s    1 1.00
             0.1612778                   1

12 0
 s    6 1.00
             3047.5249  0.0018347001629433
             457.36951    0.01403730124668
             103.94869   0.068842606114048
             29.210155    0.23218442062076
              9.286663    0.46794134155879
              3.163927    0.36231203217765
 s    3 1.00
             7.8682724   -0.11933240861517
             1.8812885   -0.16085421161283
             0.5442493     1.1434564825515
 s    1 1.00
             0.1687144                   1
 p    3 1.00
             7.8682724   0.068999095584993
             1.8812885    0.31642397975315
             0.5442493    0.74430825237435
 p    1 1.00
             0.1687144                   1
 d    1 1.00
                   0.8                   1

13 0
 s    3 1.00
             18.731137    0.03349459952309
             2.8253937    0.23472694665786
             0.6401217    0.81375731841339
 s    1 1.00
             0.1612778                   1

14 0
 s    3 1.00
             18.731137    0.03349459952309
             2.8253937    0.23472694665786
             0.6401217    0.81375731841339
 s    1 1.00
             0.1612778                   1

15 0
 s    6 1.00
             3047.5249  0.0018347001629433
             457.36951    0.01403730124668
             103.94869   0.068842606114048
             29.210155    0.23218442062076
              9.286663    0.46794134155879
              3.163927    0.36231203217765
 s    3 1.00
             7.8682724   -0.11933240861517
             1.8812885   -0.16085421161283
             0.5442493     1.1434564825515
 s    1 1.00
             0.1687144                   1
 p    3 1.00
             7.8682724   0.068999095584993
             1.8812885    0.31642397975315
             0.5442493    0.74430825237435
 p    1 1.00
             0.1687144                   1
 d    1 1.00
                   0.8                   1

16 0
 s    6 1.00
             3047.5249  0.0018347001629433
             457.36951    0.01403730124668
             103.94869   0.068842606114048
             29.210155    0.23218442062076
              9.286663    0.46794134155879
              3.163927    0.36231203217765
 s    3 1.00
             7.8682724   -0.11933240861517
             1.8812885   -0.16085421161283
             0.5442493     1.1434564825515
 s    1 1.00
             0.1687144                   1
 p    3 1.00
             7.8682724   0.068999095584993
             1.8812885    0.31642397975315
             0.5442493    0.74430825237435
 p    1 1.00
             0.1687144                   1
 d    1 1.00
                   0.8                   1

17 0
 s    6 1.00
             3047.5249  0.0018347001629433
             457.36951    0.01403730124668
             103.94869   0.068842606114048
             29.210155    0.23218442062076
              9.286663    0.46794134155879
              3.163927    0.36231203217765
 s    3 1.00
             7.8682724   -0.11933240861517
             1.8812885   -0.16085421161283
             0.5442493     1.1434564825515
 s    1 1.00
             0.1687144                   1
 p    3 1.00
             7.8682724   0.068999095584993
             1.8812885    0.31642397975315
             0.5442493    0.74430825237435
 p    1 1.00
             0.1687144                   1
 d    1 1.00
                   0.8                   1

18 0
 s    6 1.00
             3047.5249  0.0018347001629433
             457.36951    0.01403730124668
             103.94869   0.068842606114048
             29.210155    0.23218442062076
              9.286663    0.46794134155879
              3.163927    0.36231203217765
 s    3 1.00
             7.8682724   -0.11933240861517
             1.8812885   -0.16085421161283
             0.5442493     1.1434564825515
 s    1 1.00
             0.1687144                   1
 p    3 1.00
             7.8682724   0.068999095584993
             1.8812885    0.31642397975315
             0.5442493    0.74430825237435
 p    1 1.00
             0.1687144                   1
 d    1 1.00
                   0.8                   1

19 0
 s    6 1.00
             3047.5249  0.0018347001629433
             457.36951    0.01403730124668
             103.94869   0.068842606114048
             29.210155    0.23218442062076
              9.286663    0.46794134155879
              3.163927    0.36231203217765
 s    3 1.00
             7.8682724   -0.11933240861517
             1.8812885   -0.16085421161283
             0.5442493     1.1434564825515
 s    1 1.00
             0.1687144                   1
 p    3 1.00
             7.8682724   0.068999095584993
             1.8812885    0.31642397975315
             0.5442493    0.74430825237435
 p    1 1.00
             0.1687144                   1
 d    1 1.00
                   0.8                   1

20 0
 s    6 1.00
             3047.5249  0.0018347001629433
             457.36951    0.01403730124668
             103.94869   0.068842606114048
             29.210155    0.23218442062076
              9.286663    0.46794134155879
              3.163927    0.36231203217765
 s    3 1.00
             7.8682724   -0.11933240861517
             1.8812885   -0.16085421161283
             0.5442493     1.1434564825515
 s    1 1.00
             0.1687144                   1
 p    3 1.00
             7.8682724   0.068999095584993
             1.8812885    0.31642397975315
             0.5442493    0.74430825237435
 p    1 1.00
             0.1687144                   1
 d    1 1.00
                   0.8                   1

21 0
 s    6 1.00
             3047.5249  0.0018347001629433
             457.36951    0.01403730124668
             103.94869   0.068842606114048
             29.210155    0.23218442062076
              9.286663    0.46794134155879
              3.163927    0.36231203217765
 s    3 1.00
             7.8682724   -0.11933240861517
             1.8812885   -0.16085421161283
             0.5442493     1.1434564825515
 s    1 1.00
             0.1687144                   1
 p    3 1.00
             7.8682724   0.068999095584993
             1.8812885    0.31642397975315
             0.5442493    0.74430825237435
 p    1 1.00
             0.1687144                   1
 d    1 1.00
                   0.8                   1

22 0
 s    3 1.00
             18.731137    0.03349459952309
             2.8253937    0.23472694665786
             0.6401217    0.81375731841339
 s    1 1.00
             0.1612778                   1

23 0
 s    3 1.00
             18.731137    0.03349459952309
             2.8253937    0.23472694665786
             0.6401217    0.81375731841339
 s    1 1.00
             0.1612778                   1

24 0
 s    3 1.00
             18.731137    0.03349459952309
             2.8253937    0.23472694665786
             0.6401217    0.81375731841339
 s    1 1.00
             0.1612778                   1

25 0
 s    3 1.00
             18.731137    0.03349459952309
             2.8253937    0.23472694665786
             0.6401217    0.81375731841339
 s    1 1.00
             0.1612778                   1

26 0
 s    3 1.00
             18.731137    0.03349459952309
             2.8253937    0.23472694665786
             0.6401217    0.81375731841339
 s    1 1.00
             0.1612778                   1

27 0
 s    3 1.00
             18.731137    0.03349459952309
             2.8253937    0.23472694665786
             0.6401217    0.81375731841339
 s    1 1.00
             0.1612778                   1

28 0
 s    3 1.00
             18.731137    0.03349459952309
             2.8253937    0.23472694665786
             0.6401217    0.81375731841339
 s    1 1.00
             0.1612778                   1

29 0
 s    3 1.00
             18.731137    0.03349459952309
             2.8253937    0.23472694665786
             0.6401217    0.81375731841339
 s    1 1.00
             0.1612778                   1

30 0
 s    3 1.00
             18.731137    0.03349459952309
             2.8253937    0.23472694665786
             0.6401217    0.81375731841339
 s    1 1.00
             0.1612778                   1

31 0
 s    3 1.00
             18.731137    0.03349459952309
             2.8253937    0.23472694665786
             0.6401217    0.81375731841339
 s    1 1.00
             0.1612778                   1

32 0
 s    3 1.00
             18.731137    0.03349459952309
             2.8253937    0.23472694665786
             0.6401217    0.81375731841339
 s    1 1.00
             0.1612778                   1

33 0
 s    6 1.00
             3047.5249  0.0018347001629433
             457.36951    0.01403730124668
             103.94869   0.068842606114048
             29.210155    0.23218442062076
              9.286663    0.46794134155879
              3.163927    0.36231203217765
 s    3 1.00
             7.8682724   -0.11933240861517
             1.8812885   -0.16085421161283
             0.5442493     1.1434564825515
 s    1 1.00
             0.1687144                   1
 p    3 1.00
             7.8682724   0.068999095584993
             1.8812885    0.31642397975315
             0.5442493    0.74430825237435
 p    1 1.00
             0.1687144                   1
 d    1 1.00
                   0.8                   1

34 0
 s    6 1.00
             3047.5249  0.0018347001629433
             457.36951    0.01403730124668
             103.94869   0.068842606114048
             29.210155    0.23218442062076
              9.286663    0.46794134155879
              3.163927    0.36231203217765
 s    3 1.00
             7.8682724   -0.11933240861517
             1.8812885   -0.16085421161283
             0.5442493     1.1434564825515
 s    1 1.00
             0.1687144                   1
 p    3 1.00
             7.8682724   0.068999095584993
             1.8812885    0.31642397975315
             0.5442493    0.74430825237435
 p    1 1.00
             0.1687144                   1
 d    1 1.00
                   0.8                   1

35 0
 s    3 1.00
             18.731137    0.03349459952309
             2.8253937    0.23472694665786
             0.6401217    0.81375731841339
 s    1 1.00
             0.1612778                   1

36 0
 s    6 1.00
             3047.5249  0.0018347001629433
             457.36951    0.01403730124668
             103.94869   0.068842606114048
             29.210155    0.23218442062076
              9.286663    0.46794134155879
              3.163927    0.36231203217765
 s    3 1.00
             7.8682724   -0.11933240861517
             1.8812885   -0.16085421161283
             0.5442493     1.1434564825515
 s    1 1.00
             0.1687144                   1
 p    3 1.00
             7.8682724   0.068999095584993
             1.8812885    0.31642397975315
             0.5442493    0.74430825237435
 p    1 1.00
             0.1687144                   1
 d    1 1.00
                   0.8                   1

37 0
 s    3 1.00
             18.731137    0.03349459952309
             2.8253937    0.23472694665786
             0.6401217    0.81375731841339
 s    1 1.00
             0.1612778                   1

38 0
 s    3 1.00
             18.731137    0.03349459952309
             2.8253937    0.23472694665786
             0.6401217    0.81375731841339
 s    1 1.00
             0.1612778                   1

39 0
 s    6 1.00
             3047.5249  0.0018347001629433
             457.36951    0.01403730124668
             103.94869   0.068842606114048
             29.210155    0.23218442062076
              9.286663    0.46794134155879
              3.163927    0.36231203217765
 s    3 1.00
             7.8682724   -0.11933240861517
             1.8812885   -0.16085421161283
             0.5442493     1.1434564825515
 s    1 1.00
             0.1687144                   1
 p    3 1.00
             7.8682724   0.068999095584993
             1.8812885    0.31642397975315
             0.5442493    0.74430825237435
 p    1 1.00
             0.1687144                   1
 d    1 1.00
                   0.8                   1

40 0
 s    6 1.00
             3047.5249  0.0018347001629433
             457.36951    0.01403730124668
             103.94869   0.068842606114048
             29.210155    0.23218442062076
              9.286663    0.46794134155879
              3.163927    0.36231203217765
 s    3 1.00
             7.8682724   -0.11933240861517
             1.8812885   -0.16085421161283
             0.5442493     1.1434564825515
 s    1 1.00
             0.1687144                   1
 p    3 1.00
             7.8682724   0.068999095584993
             1.8812885    0.31642397975315
             0.5442493    0.74430825237435
 p    1 1.00
             0.1687144                   1
 d    1 1.00
                   0.8                   1

41 0
 s    3 1.00
             18.731137    0.03349459952309
             2.8253937    0.23472694665786
             0.6401217    0.81375731841339
 s    1 1.00
             0.1612778                   1

42 0
 s    6 1.00
             5484.6717   0.001831099805527
             825.23495   0.013950098518422
             188.04696    0.06844509273075
               52.9645    0.23271427528445
              16.89757    0.47019295006289
             5.7996353    0.35852086192309
 s    3 1.00
             15.539616   -0.11077750382508
             3.5999336   -0.14802630511126
             1.0137618     1.1307670390447
 s    1 1.00
             0.2700058                   1
 p    3 1.00
             15.539616   0.070874299543311
             3.5999336    0.33975279781076
             1.0137618    0.72715859531445
 p    1 1.00
             0.2700058                   1
 d    1 1.00
                   0.8                   1

43 0
 s    3 1.00
             18.731137    0.03349459952309
             2.8253937    0.23472694665786
             0.6401217    0.81375731841339
 s    1 1.00
             0.1612778                   1

[5d]
[7f]
[9g]

[MO]
 Sym= A
 Ene=               0
 Spin= Alpha
 Occup=    1.00000
   1     0.017010822160778
   2    -0.0011341300191962
   3    0.0077434624721441
   4    0.00043887290793867
   5    -0.00016159425878015
   6    0.0013371496083884
   7    0.00088973878823824
   8    0.0014419001925435
   9    -0.0061013687726191
  10    -0.00099346363877146
  11    -0.00096182618941306
  12    0.00015556202780867
  13    -0.00021659808802157
  14    5.2489799608237e-05
  15    -0.00053860396296919
  16    -0.0010024841288107
  17      0.99471239779786
  18     0.039362718101215
  19    -0.031496160154056
  20    0.0010566068032089
  21    0.0002035083718465
  22    -0.00064728403343769
  23    -0.0040737390459922
  24    -0.0012297306028825
  25    -0.00085552275032477
  26    0.00080277420499527
  27    -0.00032741578156777
  28    -0.000349115682016
  29    0.00027512718786114
  30    0.00020798923075569
  31    -0.0013069698902544
  32    0.0041857090985063
  33     0.012436599838783
  34    -0.0004081498257406
  35    0.0012684095140882
  36    0.00096127402773604
  37     0.000377695511408
  38    -0.0013004847621874
  39    -0.0027812027944783
  40    0.0037699145195491
  41     0.004413581859696
  42    -0.00067023152237223
  43    0.0013286541610098
  44    0.00053378540851002
  45    -0.00039220329031133
  46    -0.00041745081367031
  47    -0.00060853038541238
  48    -0.00063163379400768
  49    -0.00034908851746395
  50    -0.00059636924580866
  51    0.00020100099311147
  52    0.00030025742147788
  53    2.9654298924509e-05
  54    -0.00042804559850353
  55    -0.0055272424427965
  56    0.0011580214974474
  57    0.0075287533442221
  58    -0.00017715767280989
  59    -1.2858454771706e-05
  60    0.0001548231885824
  61    -0.00024970416218334
  62    -0.00023409592207482
  63    -0.00052184475294571
  64    0.00027236362845295
  65    -2.8551122639307e-06
  66    -4.3084246330023e-06
  67    -6.2030098734451e-08
  68    -1.4955713705736e-06
  69    6.5284835854117e-06
  70    2.0676471983827e-06
  71    -4.907759679589e-06
  72    -5.5270337666019e-09
  73    1.4362514953355e-05
  74    2.8040555374987e-05
  75    1.0101861462986e-05
  76    -1.1449334437524e-07
  77    -3.0674817536039e-07
  78    3.2839898164414e-07
  79    6.2305719029774e-07
  80    5.1210653463478e-09
  81    2.7980712261741e-06
  82    1.4406252336509e-05
  83    2.3637025021552e-07
  84    1.4381768676015e-06
  85    -7.2036224781255e-05
  86    4.4286879447906e-06
  87    3.7305739459948e-06
  88    5.5435559936876e-06
  89    2.5722755751504e-05
  90    -6.9890761643803e-05
  91    8.2781353949255e-06
  92    1.7301551354028e-06
  93    -2.8920975045818e-06
  94    4.1753230350246e-06
  95    -7.8109410522049e-07
  96    -1.0966332928184e-06
  97    8.1603751496203e-06
  98    1.4129584888769e-05
  99    -3.9287552352481e-06
 100    -2.1255418585405e-05
 101    -1.2308717791841e-06
 102    -1.2094624342443e-05
 103    0.00024714807787852
 104    -3.166005334561e-06
 105    -1.0424388240398e-05
 106    -3.7129279497973e-06
 107    -0.0002055755921218
 108    0.00019841654841492
 109    0.00014901450983512
 110    -6.5242631382885e-06
 111    -9.4758405924916e-08
 112    2.693177717136e-08
 113    1.366282909557e-06
 114    -5.7771839266296e-06
 115    -3.7035545325503e-06
 116    -3.504711822046e-05
 117    0.00025582980295781
 118    -2.5515441377489e-06
 119    3.4465274591981e-06
 120    5.0487807029153e-06
 121    -5.3499627183423e-05
 122    1.3189927764082e-05
 123    3.1725312188728e-05
 124    1.6757715428715e-06
 125    -3.259259147962e-06
 126    -2.6230159124978e-06
 127    8.7383269790785e-07
 128    -2.3045493975511e-06
 129    -5.7973359457949e-06
 130    -5.6297922224471e-05
 131    0.00015729596091507
 132    6.0772862065381e-06
 133    -6.0166301044995e-06
 134    2.3608472709012e-05
 135    -0.00037585705440773
 136    3.7790847697183e-05
 137    -0.00043397450626814
 138    9.6388064872172e-06
 139    1.4483460281086e-05
 140    6.0616511687527e-06
 141    4.8266616932526e-06
 142    7.374955249064e-06
 143    -2.2345455512558e-06
 144    -2.9687402553248e-05
 145    3.2876341712265e-05
 146    2.3296750034788e-06
 147    6.3236205491001e-06
 148    1.4373793644924e-05
 149    1.5354616814755e-05
 150    3.1971258199856e-06
 151    -7.1938558637713e-05
 152    -7.290221532573e-06
 153    -4.2602475790199e-06
 154    -3.4056263626823e-06
 155    4.4462686461156e-06
 156    -4.4143974796925e-06
 157    1.7654756667728e-06
 158    1.4130353692458e-05
 159    -4.3105349491195e-05
 160    6.4917685687579e-06
 161    -1.3437062167812e-07
 162    -1.586594207634e-06
 163    -5.3985836469227e-05
 164    2.7562416074115e-05
 165    1.2422950769649e-05
 166    4.8071752967122e-06
 167    -8.4698596844264e-07
 168    -2.4534579688407e-07
 169    9.8890883152819e-07
 170    2.0994665492015e-06
 171    -5.5053389293391e-07
 172    -1.359848396819e-05
 173    2.5476019905325e-05
 174    -4.6262735398793e-06
 175    -3.0045095254981e-07
 176    1.1717189000122e-05
 177    -2.3403568305592e-07
 178    -1.9590612699151e-06
 179    -2.8709981772626e-05
 180    1.6891615443941e-06
 181    5.2556343016609e-06
 182    9.5878695815026e-07
 183    -1.2195467731819e-06
 184    1.8083524081221e-06
 185    -3.6527019914888e-06
 186    -3.1332174541728e-05
 187    9.2752759267416e-05
 188    -2.6039963709523e-06
 189    6.8929820024909e-07
 190    5.0386088727755e-06
 191    -3.9409974447404e-06
 192    -1.5240415968835e-05
 193    -7.7859842655002e-05
 194    3.4988121806833e-06
 195    1.916416478242e-06
 196    3.0163185217027e-06
 197    -3.6258459149141e-07
 198    4.8826795761863e-07
 199    -8.1467808094257e-06
 200    5.4171090194353e-07
 201    -2.7704699145196e-06
 202    2.1086214794257e-05
 203    -1.2672376275238e-05
 204    -6.5757823922588e-06
 205    -2.9496516216895e-09
 206    -2.9065361250468e-05
 207    1.0335885087301e-05
 208    -6.6899908482845e-05
 209    1.1928995541622e-05
 210    -2.7865199516641e-05
 211    6.7999027681299e-06
 212    1.8812213186316e-05
 213    -6.4651300147618e-07
 214    -2.303365575782e-05
 215    -2.9854406063171e-06
 216    -2.9812939269855e-05
 217    1.5574730833456e-06
 218    9.8870318957683e-06
 219    4.3613037991146e-07
 220    -1.9471530697475e-06
 221    -9.8735980747752e-06
 222    -9.3745555982941e-05
 223    0.00095317579757407
 224    -1.1548545540723e-05
 225    7.8977017252328e-07
 226    1.2626160697514e-05
 227    0.00068209216910815
 228    0.00033070382826309
 229    -0.00098462091411484
 230    2.8438053338496e-06
 231    -4.6572969495363e-05
 232    -2.3257108941663e-05
 233    2.3118433565688e-05
 234    2.3928703355096e-05
 235    -1.4972128694492e-05
 236    -7.0005353019316e-05
 237    -0.00028854528733375
 238    -3.311614515174e-05
 239    -6.0997427592243e-06
 240    3.4539658983561e-05
 241    0.00030657632635989
 242    0.00037172782550205
 243    -0.0016207418559909
 244    9.4093759991469e-06
 245    7.5796980085138e-05
 246    1.4295614927918e-05
 247    1.9467426387245e-05
 248    -3.4000772242018e-06
 249    -3.7431211634505e-05
 250    0.00032455541705414
 251    4.9146110609894e-06
 252    -0.00043318242915392
 253    0.0022514706996316
 254    6.1168690733838e-05
 255    -3.258379686256e-05
 256    0.00021394733081481
 257    2.8638237470677e-06
 258    0.00039863585527117
 259    -0.0018781538810744
 260    -7.0676947566025e-05
 261    -2.1788237407522e-05
 262    -1.4201344692158e-05
 263    0.00015022284051001
 264    8.8864834922991e-05
 265    -0.00011265930870906
 266    0.0002100666218886
 267    -0.00013588409853813
 268    -0.00053580376586154
 269    -6.1014075938612e-05
 270    -0.00055818984381188
 271    0.0073529768636475
 272    -8.5089771001462e-05
 273    0.00010575701953145
 274    0.00012859838129061
 275    -0.0015773596838332
 276    -0.0029944230776572
 277    0.0030331798119497
 278    9.3480902161401e-05
 279    -0.00019009574446139
 280    -0.00010962213586512