[Molden Format]
made by pyscf v[2.0.1]
[Atoms] (AU)
C   1   6     0.69100024066471     0.64692934207205    -3.48223131169301
H   2   1     2.68052439830868     1.13355088658700    -3.25784032593313
C   3   6    -0.36286361513219     0.85440132524594    -5.97030179418974
H   4   1    -2.35448549047279     0.36322488579172    -6.17995817793143
C   5   6     0.93697958957450     1.61209284601821    -8.05828437677121
H   6   1    -0.09693119212527     2.00604603919817    -9.79517014534402
C   7   6     3.63030097622708     1.92762357571405    -8.11066704391556
H   8   1     4.64038155806228     1.52704759336691    -6.35595956986227
H   9   1     1.55630230933075    -1.92953025305990    12.99630010416247
C   10   6     0.75233899775814    -2.21270439606481    11.10705728102219
H   11   1    -0.43433408177274    -3.90944857546550    11.22216085340412
C   12   6     2.86362581178706    -2.63237380607947     9.17926416456045
H   13   1     4.39038949912609    -1.24955421540245     9.49899813497433
H   14   1     3.74629220191363    -4.48798724300892     9.47414880959024
C   15   6     2.02478325613682    -2.42177285709634     6.44560829588644
C   16   6     3.88048732735477    -3.58795445234514     4.61402886975252
C   17   6    -0.18412382258602    -1.30464291234259     5.76021113872346
C   18   6    -2.10044360464350    -0.26837831858460     7.71610340967100
C   19   6    -3.08956938670431     2.35282328359417     6.88693925039594
C   20   6    -4.37372924086464    -2.09766595989678     7.93610724222001
C   21   6    -0.83850430601230     0.06372213486173    10.33002307638377
H   22   1     0.38411922151109     1.74281358582432    10.27380136542181
H   23   1    -2.30980003007874     0.45460143924521    11.73986301809809
H   24   1     4.58527064644668    -5.38706904487420     5.36778158031719
H   25   1     5.54944938085014    -2.37631462192748     4.35398898413318
H   26   1     3.06633019150423    -3.94118377050688     2.75255466040884
H   27   1    -4.17727778763735     2.26573369139522     5.12914900961283
H   28   1    -1.52662344944051     3.68001877445626     6.59540397144508
H   29   1    -4.32916174397830     3.13643051467482     8.35225460090378
H   30   1    -5.32329548508442    -2.36691813602939     6.11583672749896
H   31   1    -5.77989366602257    -1.33896741843465     9.25748940450990
H   32   1    -3.79310905208926    -3.96389819310853     8.61386170102686
C   33   6    -1.01100794811226    -1.06331657314144     3.11929490449947
C   34   6     0.37686231036534    -0.33275864505552     1.09165013605873
H   35   1    -3.01671213906703    -1.40297922279997     2.77827895090944
C   36   6    -0.64382707979370    -0.11591880174385    -1.42063131251064
H   37   1     2.35569259782137     0.17174499283897     1.33641070251401
H   38   1    -2.63317482980319    -0.60229203511219    -1.66119700387645
C   39   6     5.00345825531076     2.67452304879010   -10.14372233560053
C   40   6     7.74537676211387     2.93885238802377   -10.00575318331397
H   41   1     4.11504514624535     3.10282594680410   -11.94789724846226
O   42   8     9.09456961333047     3.59889471504076   -11.75642359916462
H   43   1     8.57474602054619     2.48152315519597    -8.12342071425648
[GTO]
1 0
 s    6 1.00
             3047.5249  0.0018347001629433
             457.36951    0.01403730124668
             103.94869   0.068842606114048
             29.210155    0.23218442062076
              9.286663    0.46794134155879
              3.163927    0.36231203217765
 s    3 1.00
             7.8682724   -0.11933240861517
             1.8812885   -0.16085421161283
             0.5442493     1.1434564825515
 s    1 1.00
             0.1687144                   1
 p    3 1.00
             7.8682724   0.068999095584993
             1.8812885    0.31642397975315
             0.5442493    0.74430825237435
 p    1 1.00
             0.1687144                   1
 d    1 1.00
                   0.8                   1

2 0
 s    3 1.00
             18.731137    0.03349459952309
             2.8253937    0.23472694665786
             0.6401217    0.81375731841339
 s    1 1.00
             0.1612778                   1

3 0
 s    6 1.00
             3047.5249  0.0018347001629433
             457.36951    0.01403730124668
             103.94869   0.068842606114048
             29.210155    0.23218442062076
              9.286663    0.46794134155879
              3.163927    0.36231203217765
 s    3 1.00
             7.8682724   -0.11933240861517
             1.8812885   -0.16085421161283
             0.5442493     1.1434564825515
 s    1 1.00
             0.1687144                   1
 p    3 1.00
             7.8682724   0.068999095584993
             1.8812885    0.31642397975315
             0.5442493    0.74430825237435
 p    1 1.00
             0.1687144                   1
 d    1 1.00
                   0.8                   1

4 0
 s    3 1.00
             18.731137    0.03349459952309
             2.8253937    0.23472694665786
             0.6401217    0.81375731841339
 s    1 1.00
             0.1612778                   1

5 0
 s    6 1.00
             3047.5249  0.0018347001629433
             457.36951    0.01403730124668
             103.94869   0.068842606114048
             29.210155    0.23218442062076
              9.286663    0.46794134155879
              3.163927    0.36231203217765
 s    3 1.00
             7.8682724   -0.11933240861517
             1.8812885   -0.16085421161283
             0.5442493     1.1434564825515
 s    1 1.00
             0.1687144                   1
 p    3 1.00
             7.8682724   0.068999095584993
             1.8812885    0.31642397975315
             0.5442493    0.74430825237435
 p    1 1.00
             0.1687144                   1
 d    1 1.00
                   0.8                   1

6 0
 s    3 1.00
             18.731137    0.03349459952309
             2.8253937    0.23472694665786
             0.6401217    0.81375731841339
 s    1 1.00
             0.1612778                   1

7 0
 s    6 1.00
             3047.5249  0.0018347001629433
             457.36951    0.01403730124668
             103.94869   0.068842606114048
             29.210155    0.23218442062076
              9.286663    0.46794134155879
              3.163927    0.36231203217765
 s    3 1.00
             7.8682724   -0.11933240861517
             1.8812885   -0.16085421161283
             0.5442493     1.1434564825515
 s    1 1.00
             0.1687144                   1
 p    3 1.00
             7.8682724   0.068999095584993
             1.8812885    0.31642397975315
             0.5442493    0.74430825237435
 p    1 1.00
             0.1687144                   1
 d    1 1.00
                   0.8                   1

8 0
 s    3 1.00
             18.731137    0.03349459952309
             2.8253937    0.23472694665786
             0.6401217    0.81375731841339
 s    1 1.00
             0.1612778                   1

9 0
 s    3 1.00
             18.731137    0.03349459952309
             2.8253937    0.23472694665786
             0.6401217    0.81375731841339
 s    1 1.00
             0.1612778                   1

10 0
 s    6 1.00
             3047.5249  0.0018347001629433
             457.36951    0.01403730124668
             103.94869   0.068842606114048
             29.210155    0.23218442062076
              9.286663    0.46794134155879
              3.163927    0.36231203217765
 s    3 1.00
             7.8682724   -0.11933240861517
             1.8812885   -0.16085421161283
             0.5442493     1.1434564825515
 s    1 1.00
             0.1687144                   1
 p    3 1.00
             7.8682724   0.068999095584993
             1.8812885    0.31642397975315
             0.5442493    0.74430825237435
 p    1 1.00
             0.1687144                   1
 d    1 1.00
                   0.8                   1

11 0
 s    3 1.00
             18.731137    0.03349459952309
             2.8253937    0.23472694665786
             0.6401217    0.81375731841339
 s    1 1.00
             0.1612778                   1

12 0
 s    6 1.00
             3047.5249  0.0018347001629433
             457.36951    0.01403730124668
             103.94869   0.068842606114048
             29.210155    0.23218442062076
              9.286663    0.46794134155879
              3.163927    0.36231203217765
 s    3 1.00
             7.8682724   -0.11933240861517
             1.8812885   -0.16085421161283
             0.5442493     1.1434564825515
 s    1 1.00
             0.1687144                   1
 p    3 1.00
             7.8682724   0.068999095584993
             1.8812885    0.31642397975315
             0.5442493    0.74430825237435
 p    1 1.00
             0.1687144                   1
 d    1 1.00
                   0.8                   1

13 0
 s    3 1.00
             18.731137    0.03349459952309
             2.8253937    0.23472694665786
             0.6401217    0.81375731841339
 s    1 1.00
             0.1612778                   1

14 0
 s    3 1.00
             18.731137    0.03349459952309
             2.8253937    0.23472694665786
             0.6401217    0.81375731841339
 s    1 1.00
             0.1612778                   1

15 0
 s    6 1.00
             3047.5249  0.0018347001629433
             457.36951    0.01403730124668
             103.94869   0.068842606114048
             29.210155    0.23218442062076
              9.286663    0.46794134155879
              3.163927    0.36231203217765
 s    3 1.00
             7.8682724   -0.11933240861517
             1.8812885   -0.16085421161283
             0.5442493     1.1434564825515
 s    1 1.00
             0.1687144                   1
 p    3 1.00
             7.8682724   0.068999095584993
             1.8812885    0.31642397975315
             0.5442493    0.74430825237435
 p    1 1.00
             0.1687144                   1
 d    1 1.00
                   0.8                   1

16 0
 s    6 1.00
             3047.5249  0.0018347001629433
             457.36951    0.01403730124668
             103.94869   0.068842606114048
             29.210155    0.23218442062076
              9.286663    0.46794134155879
              3.163927    0.36231203217765
 s    3 1.00
             7.8682724   -0.11933240861517
             1.8812885   -0.16085421161283
             0.5442493     1.1434564825515
 s    1 1.00
             0.1687144                   1
 p    3 1.00
             7.8682724   0.068999095584993
             1.8812885    0.31642397975315
             0.5442493    0.74430825237435
 p    1 1.00
             0.1687144                   1
 d    1 1.00
                   0.8                   1

17 0
 s    6 1.00
             3047.5249  0.0018347001629433
             457.36951    0.01403730124668
             103.94869   0.068842606114048
             29.210155    0.23218442062076
              9.286663    0.46794134155879
              3.163927    0.36231203217765
 s    3 1.00
             7.8682724   -0.11933240861517
             1.8812885   -0.16085421161283
             0.5442493     1.1434564825515
 s    1 1.00
             0.1687144                   1
 p    3 1.00
             7.8682724   0.068999095584993
             1.8812885    0.31642397975315
             0.5442493    0.74430825237435
 p    1 1.00
             0.1687144                   1
 d    1 1.00
                   0.8                   1

18 0
 s    6 1.00
             3047.5249  0.0018347001629433
             457.36951    0.01403730124668
             103.94869   0.068842606114048
             29.210155    0.23218442062076
              9.286663    0.46794134155879
              3.163927    0.36231203217765
 s    3 1.00
             7.8682724   -0.11933240861517
             1.8812885   -0.16085421161283
             0.5442493     1.1434564825515
 s    1 1.00
             0.1687144                   1
 p    3 1.00
             7.8682724   0.068999095584993
             1.8812885    0.31642397975315
             0.5442493    0.74430825237435
 p    1 1.00
             0.1687144                   1
 d    1 1.00
                   0.8                   1

19 0
 s    6 1.00
             3047.5249  0.0018347001629433
             457.36951    0.01403730124668
             103.94869   0.068842606114048
             29.210155    0.23218442062076
              9.286663    0.46794134155879
              3.163927    0.36231203217765
 s    3 1.00
             7.8682724   -0.11933240861517
             1.8812885   -0.16085421161283
             0.5442493     1.1434564825515
 s    1 1.00
             0.1687144                   1
 p    3 1.00
             7.8682724   0.068999095584993
             1.8812885    0.31642397975315
             0.5442493    0.74430825237435
 p    1 1.00
             0.1687144                   1
 d    1 1.00
                   0.8                   1

20 0
 s    6 1.00
             3047.5249  0.0018347001629433
             457.36951    0.01403730124668
             103.94869   0.068842606114048
             29.210155    0.23218442062076
              9.286663    0.46794134155879
              3.163927    0.36231203217765
 s    3 1.00
             7.8682724   -0.11933240861517
             1.8812885   -0.16085421161283
             0.5442493     1.1434564825515
 s    1 1.00
             0.1687144                   1
 p    3 1.00
             7.8682724   0.068999095584993
             1.8812885    0.31642397975315
             0.5442493    0.74430825237435
 p    1 1.00
             0.1687144                   1
 d    1 1.00
                   0.8                   1

21 0
 s    6 1.00
             3047.5249  0.0018347001629433
             457.36951    0.01403730124668
             103.94869   0.068842606114048
             29.210155    0.23218442062076
              9.286663    0.46794134155879
              3.163927    0.36231203217765
 s    3 1.00
             7.8682724   -0.11933240861517
             1.8812885   -0.16085421161283
             0.5442493     1.1434564825515
 s    1 1.00
             0.1687144                   1
 p    3 1.00
             7.8682724   0.068999095584993
             1.8812885    0.31642397975315
             0.5442493    0.74430825237435
 p    1 1.00
             0.1687144                   1
 d    1 1.00
                   0.8                   1

22 0
 s    3 1.00
             18.731137    0.03349459952309
             2.8253937    0.23472694665786
             0.6401217    0.81375731841339
 s    1 1.00
             0.1612778                   1

23 0
 s    3 1.00
             18.731137    0.03349459952309
             2.8253937    0.23472694665786
             0.6401217    0.81375731841339
 s    1 1.00
             0.1612778                   1

24 0
 s    3 1.00
             18.731137    0.03349459952309
             2.8253937    0.23472694665786
             0.6401217    0.81375731841339
 s    1 1.00
             0.1612778                   1

25 0
 s    3 1.00
             18.731137    0.03349459952309
             2.8253937    0.23472694665786
             0.6401217    0.81375731841339
 s    1 1.00
             0.1612778                   1

26 0
 s    3 1.00
             18.731137    0.03349459952309
             2.8253937    0.23472694665786
             0.6401217    0.81375731841339
 s    1 1.00
             0.1612778                   1

27 0
 s    3 1.00
             18.731137    0.03349459952309
             2.8253937    0.23472694665786
             0.6401217    0.81375731841339
 s    1 1.00
             0.1612778                   1

28 0
 s    3 1.00
             18.731137    0.03349459952309
             2.8253937    0.23472694665786
             0.6401217    0.81375731841339
 s    1 1.00
             0.1612778                   1

29 0
 s    3 1.00
             18.731137    0.03349459952309
             2.8253937    0.23472694665786
             0.6401217    0.81375731841339
 s    1 1.00
             0.1612778                   1

30 0
 s    3 1.00
             18.731137    0.03349459952309
             2.8253937    0.23472694665786
             0.6401217    0.81375731841339
 s    1 1.00
             0.1612778                   1

31 0
 s    3 1.00
             18.731137    0.03349459952309
             2.8253937    0.23472694665786
             0.6401217    0.81375731841339
 s    1 1.00
             0.1612778                   1

32 0
 s    3 1.00
             18.731137    0.03349459952309
             2.8253937    0.23472694665786
             0.6401217    0.81375731841339
 s    1 1.00
             0.1612778                   1

33 0
 s    6 1.00
             3047.5249  0.0018347001629433
             457.36951    0.01403730124668
             103.94869   0.068842606114048
             29.210155    0.23218442062076
              9.286663    0.46794134155879
              3.163927    0.36231203217765
 s    3 1.00
             7.8682724   -0.11933240861517
             1.8812885   -0.16085421161283
             0.5442493     1.1434564825515
 s    1 1.00
             0.1687144                   1
 p    3 1.00
             7.8682724   0.068999095584993
             1.8812885    0.31642397975315
             0.5442493    0.74430825237435
 p    1 1.00
             0.1687144                   1
 d    1 1.00
                   0.8                   1

34 0
 s    6 1.00
             3047.5249  0.0018347001629433
             457.36951    0.01403730124668
             103.94869   0.068842606114048
             29.210155    0.23218442062076
              9.286663    0.46794134155879
              3.163927    0.36231203217765
 s    3 1.00
             7.8682724   -0.11933240861517
             1.8812885   -0.16085421161283
             0.5442493     1.1434564825515
 s    1 1.00
             0.1687144                   1
 p    3 1.00
             7.8682724   0.068999095584993
             1.8812885    0.31642397975315
             0.5442493    0.74430825237435
 p    1 1.00
             0.1687144                   1
 d    1 1.00
                   0.8                   1

35 0
 s    3 1.00
             18.731137    0.03349459952309
             2.8253937    0.23472694665786
             0.6401217    0.81375731841339
 s    1 1.00
             0.1612778                   1

36 0
 s    6 1.00
             3047.5249  0.0018347001629433
             457.36951    0.01403730124668
             103.94869   0.068842606114048
             29.210155    0.23218442062076
              9.286663    0.46794134155879
              3.163927    0.36231203217765
 s    3 1.00
             7.8682724   -0.11933240861517
             1.8812885   -0.16085421161283
             0.5442493     1.1434564825515
 s    1 1.00
             0.1687144                   1
 p    3 1.00
             7.8682724   0.068999095584993
             1.8812885    0.31642397975315
             0.5442493    0.74430825237435
 p    1 1.00
             0.1687144                   1
 d    1 1.00
                   0.8                   1

37 0
 s    3 1.00
             18.731137    0.03349459952309
             2.8253937    0.23472694665786
             0.6401217    0.81375731841339
 s    1 1.00
             0.1612778                   1

38 0
 s    3 1.00
             18.731137    0.03349459952309
             2.8253937    0.23472694665786
             0.6401217    0.81375731841339
 s    1 1.00
             0.1612778                   1

39 0
 s    6 1.00
             3047.5249  0.0018347001629433
             457.36951    0.01403730124668
             103.94869   0.068842606114048
             29.210155    0.23218442062076
              9.286663    0.46794134155879
              3.163927    0.36231203217765
 s    3 1.00
             7.8682724   -0.11933240861517
             1.8812885   -0.16085421161283
             0.5442493     1.1434564825515
 s    1 1.00
             0.1687144                   1
 p    3 1.00
             7.8682724   0.068999095584993
             1.8812885    0.31642397975315
             0.5442493    0.74430825237435
 p    1 1.00
             0.1687144                   1
 d    1 1.00
                   0.8                   1

40 0
 s    6 1.00
             3047.5249  0.0018347001629433
             457.36951    0.01403730124668
             103.94869   0.068842606114048
             29.210155    0.23218442062076
              9.286663    0.46794134155879
              3.163927    0.36231203217765
 s    3 1.00
             7.8682724   -0.11933240861517
             1.8812885   -0.16085421161283
             0.5442493     1.1434564825515
 s    1 1.00
             0.1687144                   1
 p    3 1.00
             7.8682724   0.068999095584993
             1.8812885    0.31642397975315
             0.5442493    0.74430825237435
 p    1 1.00
             0.1687144                   1
 d    1 1.00
                   0.8                   1

41 0
 s    3 1.00
             18.731137    0.03349459952309
             2.8253937    0.23472694665786
             0.6401217    0.81375731841339
 s    1 1.00
             0.1612778                   1

42 0
 s    6 1.00
             5484.6717   0.001831099805527
             825.23495   0.013950098518422
             188.04696    0.06844509273075
               52.9645    0.23271427528445
              16.89757    0.47019295006289
             5.7996353    0.35852086192309
 s    3 1.00
             15.539616   -0.11077750382508
             3.5999336   -0.14802630511126
             1.0137618     1.1307670390447
 s    1 1.00
             0.2700058                   1
 p    3 1.00
             15.539616   0.070874299543311
             3.5999336    0.33975279781076
             1.0137618    0.72715859531445
 p    1 1.00
             0.2700058                   1
 d    1 1.00
                   0.8                   1

43 0
 s    3 1.00
             18.731137    0.03349459952309
             2.8253937    0.23472694665786
             0.6401217    0.81375731841339
 s    1 1.00
             0.1612778                   1

[5d]
[7f]
[9g]

[MO]
 Sym= A
 Ene=               0
 Spin= Alpha
 Occup=    1.00000
   1    0.00073967411067813
   2    0.00019636129536418
   3    0.00038036959788968
   4    0.00012019542881998
   5    8.6917700479674e-05
   6    -9.9959040185061e-05
   7    -0.0016092688364962
   8    -0.00070337349338802
   9    0.0005996068507727
  10    6.3762349571816e-05
  11    -7.4419172638656e-05
  12    -2.5322324313859e-05
  13    -3.100050090564e-05
  14    1.1254534304912e-07
  15    8.9522517702724e-05
  16    0.0016107265804504
  17    -0.00027180921295537
  18    0.00036675414843645
  19    -0.0015274649831579
  20    0.00018409058036994
  21    4.4051464062323e-05
  22    -0.00010134226675542
  23    -0.00013972595535163
  24    -7.5979534337051e-05
  25    0.00044726311765106
  26    -0.00011679755761358
  27    -8.135336347193e-05
  28    8.060265726538e-05
  29    -6.5812389232975e-05
  30    1.9050492594912e-05
  31    4.9436418380472e-05
  32    -0.00011621273375508
  33    -0.0089390275441408
  34    0.0013157717313521
  35    -0.0073544064412363
  36     0.001369589677679
  37    0.00017321670687056
  38    -7.8014118627602e-05
  39    -0.0038051366805535
  40    -0.0009709600899671
  41    0.0018809997116623
  42    -0.00074845228025612
  43    8.125832015689e-05
  44    2.2569601832817e-06
  45    0.0012982472972838
  46    0.00027539119232357
  47    0.00045958079233818
  48    0.00060547197156886
  49     -0.99483558559309
  50    -0.038568638772062
  51     0.031071092902181
  52    0.00014302210146884
  53    -0.00018245177183229
  54    0.00075091086286548
  55    -0.001227270726174
  56    0.00065511614782505
  57    -0.002827234751946
  58    -0.00012320669886771
  59    0.00067854079074942
  60    0.00035855778698259
  61    -0.00061513639339247
  62    -0.00035385944976911
  63    0.0013602022770912
  64    -0.0050778112188383
  65    8.5151170976821e-07
  66    1.2634606147958e-06
  67    -1.069988384293e-08
  68    5.7936653784763e-07
  69    -1.1866298605593e-06
  70    -6.8971513005786e-07
  71    1.5583889798174e-06
  72    -4.1295418708713e-07
  73    -4.9337386528122e-06
  74    -8.4734803252514e-06
  75    -3.3452689930354e-06
  76    1.955154355482e-07
  77    1.5400835319547e-07
  78    -1.7177646974468e-07
  79    -2.0782823726299e-07
  80    6.4892313436838e-08
  81    -1.0011420727075e-06
  82    -4.1925803611796e-06
  83    -3.1446227519484e-08
  84    1.8291404291735e-07
  85    3.1115855952444e-05
  86    -2.4943953213427e-06
  87    -5.7352026691616e-07
  88    -2.3375615693377e-06
  89    -8.0289876141118e-06
  90    2.2698122035132e-05
  91    -4.2565961625387e-06
  92    -8.314654762745e-07
  93    1.1858603027028e-06
  94    -1.6749152741374e-06
  95    1.4442070288687e-08
  96    3.6261575612327e-07
  97    -2.6939072921299e-06
  98    -5.9840203606123e-06
  99    7.333625424401e-07
 100    6.1487215269999e-06
 101    4.7599474972064e-07
 102    4.0697040832615e-06
 103    -9.6257732519936e-05
 104    -1.0518168470315e-07
 105    3.9673484876631e-06
 106    1.9144505204784e-06
 107    9.4754258708188e-05
 108    -8.5121319941612e-05
 109    -7.1316935985203e-05
 110    2.3229153480926e-06
 111    8.2133963271769e-07
 112    -8.9343604208516e-09
 113    -5.4867926194243e-07
 114    2.356370191438e-06
 115    1.2157653618184e-06
 116    1.0510806775281e-05
 117    -0.00010593695816265
 118    3.3560073450584e-06
 119    -3.9114753825906e-06
 120    4.4704298261487e-07
 121    1.0109821915716e-05
 122    1.856106270192e-06
 123    -3.6382119515394e-05
 124    -2.0930835185545e-07
 125    1.7060239478277e-06
 126    1.1870399143293e-06
 127    5.6785686130461e-08
 128    1.8261946793712e-06
 129    2.6641073488738e-06
 130    2.3273778932492e-05
 131    -7.6063822226877e-05
 132    -2.8046548127672e-06
 133    -3.8152674829039e-07
 134    -9.806729438034e-06
 135    0.00014335695035921
 136    -5.7506872557587e-06
 137    0.00023242081431752
 138    -6.2024842514446e-06
 139    -6.6450050019493e-06
 140    -1.5914620821056e-06
 141    -1.6898884954258e-06
 142    -2.5130831954268e-06
 143    1.5847134589351e-06
 144    1.7302557397912e-05
 145    -5.2818618690872e-05
 146    -7.1387376336506e-08
 147    -1.3327918576624e-06
 148    -5.1194050888931e-06
 149    -3.0898960283692e-05
 150    2.6460711584674e-06
 151    2.8582230344641e-05
 152    3.3296243622014e-06
 153    2.0472706787778e-06
 154    1.1655459051365e-06
 155    -2.3273362639661e-06
 156    2.6041832806284e-06
 157    -6.5117186497254e-07
 158    -4.6940801032488e-06
 159    1.5363627371488e-05
 160    -2.1216243774754e-06
 161    -3.6775880988253e-07
 162    9.9312702367224e-07
 163    2.4756358163783e-05
 164    -9.5745150332502e-06
 165    -5.2172118052885e-06
 166    -2.2560262602642e-06
 167    8.0265906031556e-07
 168    4.2601720029143e-08
 169    -8.3591842797744e-09
 170    -1.2575368712056e-06
 171    1.4083845188582e-07
 172    4.1173227269284e-06
 173    -1.1060258891399e-05
 174    1.3383944401177e-06
 175    2.703371422752e-07
 176    -3.7859022464678e-06
 177    3.938961910475e-06
 178    -3.4941283807049e-06
 179    8.877672388699e-06
 180    -4.6345885063737e-07
 181    -1.8898676350502e-06
 182    -6.6757741141529e-07
 183    9.0965146591677e-07
 184    -5.8718182336108e-07
 185    1.3514105796774e-06
 186    1.2333531247888e-05
 187    -2.5217320578942e-05
 188    6.9822132767222e-07
 189    -4.7801976924815e-07
 190    -3.2112638874393e-06
 191    -2.2610742621836e-07
 192    5.9356454978093e-06
 193    2.4948308573421e-05
 194    -9.7403207197582e-07
 195    -6.0227331799433e-07
 196    -1.2839365270816e-06
 197    -1.8432420044358e-07
 198    3.8516165973397e-08
 199    2.7356015288307e-06
 200    -2.0503897133823e-07
 201    9.426429526987e-07
 202    -9.5182869286606e-06
 203    6.8614798559304e-06
 204    1.3369444029015e-05
 205    -5.6523112970809e-06
 206    2.8380680787116e-05
 207    -3.8708256838979e-06
 208    1.5553789366385e-06
 209    -4.8140242974099e-06
 210    1.2275375073558e-05
 211    -3.2203689739229e-06
 212    -7.6213314254888e-06
 213    6.1595373961572e-07
 214    9.0009416067966e-06
 215    4.5655468496191e-07
 216    1.2679830239949e-05
 217    -1.3066874213483e-07
 218    -1.4602855734364e-06
 219    -6.2500000340556e-07
 220    -1.4951269053938e-06
 221    4.1150552992139e-06
 222    4.0823446684201e-05
 223    -0.000116752730476
 224    3.5908100741721e-06
 225     4.03821165952e-06
 226    -1.5284634936214e-05
 227    -0.00021162471813687
 228    -0.00011471715591294
 229    0.00034505626059058
 230    1.8322907899768e-06
 231    1.8422726536562e-05
 232    7.7462367567005e-06
 233    -1.1652091274684e-05
 234    -9.9909753281851e-06
 235    -4.5806781095073e-07
 236    -2.541517931678e-06
 237    -2.4991652296066e-05
 238    -3.8667219364716e-06
 239    -1.6410158104096e-06
 240    -1.0202119242587e-05
 241    0.00022098990111008
 242    -5.616028176874e-05
 243    0.00052559040615521
 244    2.1943390273019e-06
 245    -2.7403223335281e-05
 246    -4.1230355842153e-06
 247    -5.2675339934129e-06
 248    6.3502589667051e-06
 249    1.5381871787763e-05
 250    -0.00012609222565427
 251    6.3217607908858e-06
 252    7.9838406821198e-05
 253    -0.0011210033034648
 254    -1.1132007767643e-05
 255    -1.3317660721283e-05
 256    5.8117949353728e-07
 257    -7.921579847924e-05
 258    -0.00019687440654077
 259    0.0012761989406675
 260    -3.8573274139674e-05
 261    4.6811945761208e-05
 262    2.2322426472832e-05
 263    -1.1430984778258e-05
 264    -9.0806447197874e-06
 265    3.8947105790559e-05
 266    -0.0002955839175509
 267    3.7599879586693e-05
 268    0.00012078326875345
 269    -0.00011947845522317
 270    0.0023689972609382
 271    -0.0097741805286281
 272    -0.00095501238744065
 273    -0.00054623444731167
 274    0.0014989703449716
 275    0.0031155837945583
 276    0.0010293728456109
 277    -0.0022820054971225
 278    0.00080289301248602
 279    -0.0010709140284202
 280    -0.00066014994678761