[Molden Format]
made by pyscf v[2.0.1]
[Atoms] (AU)
C   1   6     0.69100024066471     0.64692934207205    -3.48223131169301
H   2   1     2.68052439830868     1.13355088658700    -3.25784032593313
C   3   6    -0.36286361513219     0.85440132524594    -5.97030179418974
H   4   1    -2.35448549047279     0.36322488579172    -6.17995817793143
C   5   6     0.93697958957450     1.61209284601821    -8.05828437677121
H   6   1     1.25179717896080     3.62344259528190    -8.36861463213972
C   7   6     1.93299030663405    -0.10622024085708    -9.90534865945394
H   8   1     1.60367989661651    -2.11561190296467    -9.56827000221191
H   9   1     1.55630230933075    -1.92953025305990    12.99630010416247
C   10   6     0.75233899775814    -2.21270439606481    11.10705728102219
H   11   1    -0.43433408177274    -3.90944857546550    11.22216085340412
C   12   6     2.86362581178706    -2.63237380607947     9.17926416456045
H   13   1     4.39038949912609    -1.24955421540245     9.49899813497433
H   14   1     3.74629220191363    -4.48798724300892     9.47414880959024
C   15   6     2.02478325613682    -2.42177285709634     6.44560829588644
C   16   6     3.88048732735477    -3.58795445234514     4.61402886975252
C   17   6    -0.18412382258602    -1.30464291234259     5.76021113872346
C   18   6    -2.10044360464350    -0.26837831858460     7.71610340967100
C   19   6    -3.08956938670431     2.35282328359417     6.88693925039594
C   20   6    -4.37372924086464    -2.09766595989678     7.93610724222001
C   21   6    -0.83850430601230     0.06372213486173    10.33002307638377
H   22   1     0.38411922151109     1.74281358582432    10.27380136542181
H   23   1    -2.30980003007874     0.45460143924521    11.73986301809809
H   24   1     4.58527064644668    -5.38706904487420     5.36778158031719
H   25   1     5.54944938085014    -2.37631462192748     4.35398898413318
H   26   1     3.06633019150423    -3.94118377050688     2.75255466040884
H   27   1    -4.17727778763735     2.26573369139522     5.12914900961283
H   28   1    -1.52662344944051     3.68001877445626     6.59540397144508
H   29   1    -4.32916174397830     3.13643051467482     8.35225460090378
H   30   1    -5.32329548508442    -2.36691813602939     6.11583672749896
H   31   1    -5.77989366602257    -1.33896741843465     9.25748940450990
H   32   1    -3.79310905208926    -3.96389819310853     8.61386170102686
C   33   6    -1.01100794811226    -1.06331657314144     3.11929490449947
C   34   6     0.37686231036534    -0.33275864505552     1.09165013605873
H   35   1    -3.01671213906703    -1.40297922279997     2.77827895090944
C   36   6    -0.64382707979370    -0.11591880174385    -1.42063131251064
H   37   1     2.35569259782137     0.17174499283897     1.33641070251401
H   38   1    -2.63317482980319    -0.60229203511219    -1.66119700387645
C   39   6     3.23483881481583     0.56109494848388   -12.01167590238676
C   40   6     4.17213386166354    -1.33546547775814   -13.78129708499957
H   41   1     3.62751071831436     2.52907164005278   -12.45960989181140
O   42   8     5.35190984410731    -0.86987395658954   -15.70799822813352
H   43   1     3.72751838268070    -3.32497850208065   -13.24806737881206
[GTO]
1 0
 s    6 1.00
             3047.5249  0.0018347001629433
             457.36951    0.01403730124668
             103.94869   0.068842606114048
             29.210155    0.23218442062076
              9.286663    0.46794134155879
              3.163927    0.36231203217765
 s    3 1.00
             7.8682724   -0.11933240861517
             1.8812885   -0.16085421161283
             0.5442493     1.1434564825515
 s    1 1.00
             0.1687144                   1
 p    3 1.00
             7.8682724   0.068999095584993
             1.8812885    0.31642397975315
             0.5442493    0.74430825237435
 p    1 1.00
             0.1687144                   1
 d    1 1.00
                   0.8                   1

2 0
 s    3 1.00
             18.731137    0.03349459952309
             2.8253937    0.23472694665786
             0.6401217    0.81375731841339
 s    1 1.00
             0.1612778                   1

3 0
 s    6 1.00
             3047.5249  0.0018347001629433
             457.36951    0.01403730124668
             103.94869   0.068842606114048
             29.210155    0.23218442062076
              9.286663    0.46794134155879
              3.163927    0.36231203217765
 s    3 1.00
             7.8682724   -0.11933240861517
             1.8812885   -0.16085421161283
             0.5442493     1.1434564825515
 s    1 1.00
             0.1687144                   1
 p    3 1.00
             7.8682724   0.068999095584993
             1.8812885    0.31642397975315
             0.5442493    0.74430825237435
 p    1 1.00
             0.1687144                   1
 d    1 1.00
                   0.8                   1

4 0
 s    3 1.00
             18.731137    0.03349459952309
             2.8253937    0.23472694665786
             0.6401217    0.81375731841339
 s    1 1.00
             0.1612778                   1

5 0
 s    6 1.00
             3047.5249  0.0018347001629433
             457.36951    0.01403730124668
             103.94869   0.068842606114048
             29.210155    0.23218442062076
              9.286663    0.46794134155879
              3.163927    0.36231203217765
 s    3 1.00
             7.8682724   -0.11933240861517
             1.8812885   -0.16085421161283
             0.5442493     1.1434564825515
 s    1 1.00
             0.1687144                   1
 p    3 1.00
             7.8682724   0.068999095584993
             1.8812885    0.31642397975315
             0.5442493    0.74430825237435
 p    1 1.00
             0.1687144                   1
 d    1 1.00
                   0.8                   1

6 0
 s    3 1.00
             18.731137    0.03349459952309
             2.8253937    0.23472694665786
             0.6401217    0.81375731841339
 s    1 1.00
             0.1612778                   1

7 0
 s    6 1.00
             3047.5249  0.0018347001629433
             457.36951    0.01403730124668
             103.94869   0.068842606114048
             29.210155    0.23218442062076
              9.286663    0.46794134155879
              3.163927    0.36231203217765
 s    3 1.00
             7.8682724   -0.11933240861517
             1.8812885   -0.16085421161283
             0.5442493     1.1434564825515
 s    1 1.00
             0.1687144                   1
 p    3 1.00
             7.8682724   0.068999095584993
             1.8812885    0.31642397975315
             0.5442493    0.74430825237435
 p    1 1.00
             0.1687144                   1
 d    1 1.00
                   0.8                   1

8 0
 s    3 1.00
             18.731137    0.03349459952309
             2.8253937    0.23472694665786
             0.6401217    0.81375731841339
 s    1 1.00
             0.1612778                   1

9 0
 s    3 1.00
             18.731137    0.03349459952309
             2.8253937    0.23472694665786
             0.6401217    0.81375731841339
 s    1 1.00
             0.1612778                   1

10 0
 s    6 1.00
             3047.5249  0.0018347001629433
             457.36951    0.01403730124668
             103.94869   0.068842606114048
             29.210155    0.23218442062076
              9.286663    0.46794134155879
              3.163927    0.36231203217765
 s    3 1.00
             7.8682724   -0.11933240861517
             1.8812885   -0.16085421161283
             0.5442493     1.1434564825515
 s    1 1.00
             0.1687144                   1
 p    3 1.00
             7.8682724   0.068999095584993
             1.8812885    0.31642397975315
             0.5442493    0.74430825237435
 p    1 1.00
             0.1687144                   1
 d    1 1.00
                   0.8                   1

11 0
 s    3 1.00
             18.731137    0.03349459952309
             2.8253937    0.23472694665786
             0.6401217    0.81375731841339
 s    1 1.00
             0.1612778                   1

12 0
 s    6 1.00
             3047.5249  0.0018347001629433
             457.36951    0.01403730124668
             103.94869   0.068842606114048
             29.210155    0.23218442062076
              9.286663    0.46794134155879
              3.163927    0.36231203217765
 s    3 1.00
             7.8682724   -0.11933240861517
             1.8812885   -0.16085421161283
             0.5442493     1.1434564825515
 s    1 1.00
             0.1687144                   1
 p    3 1.00
             7.8682724   0.068999095584993
             1.8812885    0.31642397975315
             0.5442493    0.74430825237435
 p    1 1.00
             0.1687144                   1
 d    1 1.00
                   0.8                   1

13 0
 s    3 1.00
             18.731137    0.03349459952309
             2.8253937    0.23472694665786
             0.6401217    0.81375731841339
 s    1 1.00
             0.1612778                   1

14 0
 s    3 1.00
             18.731137    0.03349459952309
             2.8253937    0.23472694665786
             0.6401217    0.81375731841339
 s    1 1.00
             0.1612778                   1

15 0
 s    6 1.00
             3047.5249  0.0018347001629433
             457.36951    0.01403730124668
             103.94869   0.068842606114048
             29.210155    0.23218442062076
              9.286663    0.46794134155879
              3.163927    0.36231203217765
 s    3 1.00
             7.8682724   -0.11933240861517
             1.8812885   -0.16085421161283
             0.5442493     1.1434564825515
 s    1 1.00
             0.1687144                   1
 p    3 1.00
             7.8682724   0.068999095584993
             1.8812885    0.31642397975315
             0.5442493    0.74430825237435
 p    1 1.00
             0.1687144                   1
 d    1 1.00
                   0.8                   1

16 0
 s    6 1.00
             3047.5249  0.0018347001629433
             457.36951    0.01403730124668
             103.94869   0.068842606114048
             29.210155    0.23218442062076
              9.286663    0.46794134155879
              3.163927    0.36231203217765
 s    3 1.00
             7.8682724   -0.11933240861517
             1.8812885   -0.16085421161283
             0.5442493     1.1434564825515
 s    1 1.00
             0.1687144                   1
 p    3 1.00
             7.8682724   0.068999095584993
             1.8812885    0.31642397975315
             0.5442493    0.74430825237435
 p    1 1.00
             0.1687144                   1
 d    1 1.00
                   0.8                   1

17 0
 s    6 1.00
             3047.5249  0.0018347001629433
             457.36951    0.01403730124668
             103.94869   0.068842606114048
             29.210155    0.23218442062076
              9.286663    0.46794134155879
              3.163927    0.36231203217765
 s    3 1.00
             7.8682724   -0.11933240861517
             1.8812885   -0.16085421161283
             0.5442493     1.1434564825515
 s    1 1.00
             0.1687144                   1
 p    3 1.00
             7.8682724   0.068999095584993
             1.8812885    0.31642397975315
             0.5442493    0.74430825237435
 p    1 1.00
             0.1687144                   1
 d    1 1.00
                   0.8                   1

18 0
 s    6 1.00
             3047.5249  0.0018347001629433
             457.36951    0.01403730124668
             103.94869   0.068842606114048
             29.210155    0.23218442062076
              9.286663    0.46794134155879
              3.163927    0.36231203217765
 s    3 1.00
             7.8682724   -0.11933240861517
             1.8812885   -0.16085421161283
             0.5442493     1.1434564825515
 s    1 1.00
             0.1687144                   1
 p    3 1.00
             7.8682724   0.068999095584993
             1.8812885    0.31642397975315
             0.5442493    0.74430825237435
 p    1 1.00
             0.1687144                   1
 d    1 1.00
                   0.8                   1

19 0
 s    6 1.00
             3047.5249  0.0018347001629433
             457.36951    0.01403730124668
             103.94869   0.068842606114048
             29.210155    0.23218442062076
              9.286663    0.46794134155879
              3.163927    0.36231203217765
 s    3 1.00
             7.8682724   -0.11933240861517
             1.8812885   -0.16085421161283
             0.5442493     1.1434564825515
 s    1 1.00
             0.1687144                   1
 p    3 1.00
             7.8682724   0.068999095584993
             1.8812885    0.31642397975315
             0.5442493    0.74430825237435
 p    1 1.00
             0.1687144                   1
 d    1 1.00
                   0.8                   1

20 0
 s    6 1.00
             3047.5249  0.0018347001629433
             457.36951    0.01403730124668
             103.94869   0.068842606114048
             29.210155    0.23218442062076
              9.286663    0.46794134155879
              3.163927    0.36231203217765
 s    3 1.00
             7.8682724   -0.11933240861517
             1.8812885   -0.16085421161283
             0.5442493     1.1434564825515
 s    1 1.00
             0.1687144                   1
 p    3 1.00
             7.8682724   0.068999095584993
             1.8812885    0.31642397975315
             0.5442493    0.74430825237435
 p    1 1.00
             0.1687144                   1
 d    1 1.00
                   0.8                   1

21 0
 s    6 1.00
             3047.5249  0.0018347001629433
             457.36951    0.01403730124668
             103.94869   0.068842606114048
             29.210155    0.23218442062076
              9.286663    0.46794134155879
              3.163927    0.36231203217765
 s    3 1.00
             7.8682724   -0.11933240861517
             1.8812885   -0.16085421161283
             0.5442493     1.1434564825515
 s    1 1.00
             0.1687144                   1
 p    3 1.00
             7.8682724   0.068999095584993
             1.8812885    0.31642397975315
             0.5442493    0.74430825237435
 p    1 1.00
             0.1687144                   1
 d    1 1.00
                   0.8                   1

22 0
 s    3 1.00
             18.731137    0.03349459952309
             2.8253937    0.23472694665786
             0.6401217    0.81375731841339
 s    1 1.00
             0.1612778                   1

23 0
 s    3 1.00
             18.731137    0.03349459952309
             2.8253937    0.23472694665786
             0.6401217    0.81375731841339
 s    1 1.00
             0.1612778                   1

24 0
 s    3 1.00
             18.731137    0.03349459952309
             2.8253937    0.23472694665786
             0.6401217    0.81375731841339
 s    1 1.00
             0.1612778                   1

25 0
 s    3 1.00
             18.731137    0.03349459952309
             2.8253937    0.23472694665786
             0.6401217    0.81375731841339
 s    1 1.00
             0.1612778                   1

26 0
 s    3 1.00
             18.731137    0.03349459952309
             2.8253937    0.23472694665786
             0.6401217    0.81375731841339
 s    1 1.00
             0.1612778                   1

27 0
 s    3 1.00
             18.731137    0.03349459952309
             2.8253937    0.23472694665786
             0.6401217    0.81375731841339
 s    1 1.00
             0.1612778                   1

28 0
 s    3 1.00
             18.731137    0.03349459952309
             2.8253937    0.23472694665786
             0.6401217    0.81375731841339
 s    1 1.00
             0.1612778                   1

29 0
 s    3 1.00
             18.731137    0.03349459952309
             2.8253937    0.23472694665786
             0.6401217    0.81375731841339
 s    1 1.00
             0.1612778                   1

30 0
 s    3 1.00
             18.731137    0.03349459952309
             2.8253937    0.23472694665786
             0.6401217    0.81375731841339
 s    1 1.00
             0.1612778                   1

31 0
 s    3 1.00
             18.731137    0.03349459952309
             2.8253937    0.23472694665786
             0.6401217    0.81375731841339
 s    1 1.00
             0.1612778                   1

32 0
 s    3 1.00
             18.731137    0.03349459952309
             2.8253937    0.23472694665786
             0.6401217    0.81375731841339
 s    1 1.00
             0.1612778                   1

33 0
 s    6 1.00
             3047.5249  0.0018347001629433
             457.36951    0.01403730124668
             103.94869   0.068842606114048
             29.210155    0.23218442062076
              9.286663    0.46794134155879
              3.163927    0.36231203217765
 s    3 1.00
             7.8682724   -0.11933240861517
             1.8812885   -0.16085421161283
             0.5442493     1.1434564825515
 s    1 1.00
             0.1687144                   1
 p    3 1.00
             7.8682724   0.068999095584993
             1.8812885    0.31642397975315
             0.5442493    0.74430825237435
 p    1 1.00
             0.1687144                   1
 d    1 1.00
                   0.8                   1

34 0
 s    6 1.00
             3047.5249  0.0018347001629433
             457.36951    0.01403730124668
             103.94869   0.068842606114048
             29.210155    0.23218442062076
              9.286663    0.46794134155879
              3.163927    0.36231203217765
 s    3 1.00
             7.8682724   -0.11933240861517
             1.8812885   -0.16085421161283
             0.5442493     1.1434564825515
 s    1 1.00
             0.1687144                   1
 p    3 1.00
             7.8682724   0.068999095584993
             1.8812885    0.31642397975315
             0.5442493    0.74430825237435
 p    1 1.00
             0.1687144                   1
 d    1 1.00
                   0.8                   1

35 0
 s    3 1.00
             18.731137    0.03349459952309
             2.8253937    0.23472694665786
             0.6401217    0.81375731841339
 s    1 1.00
             0.1612778                   1

36 0
 s    6 1.00
             3047.5249  0.0018347001629433
             457.36951    0.01403730124668
             103.94869   0.068842606114048
             29.210155    0.23218442062076
              9.286663    0.46794134155879
              3.163927    0.36231203217765
 s    3 1.00
             7.8682724   -0.11933240861517
             1.8812885   -0.16085421161283
             0.5442493     1.1434564825515
 s    1 1.00
             0.1687144                   1
 p    3 1.00
             7.8682724   0.068999095584993
             1.8812885    0.31642397975315
             0.5442493    0.74430825237435
 p    1 1.00
             0.1687144                   1
 d    1 1.00
                   0.8                   1

37 0
 s    3 1.00
             18.731137    0.03349459952309
             2.8253937    0.23472694665786
             0.6401217    0.81375731841339
 s    1 1.00
             0.1612778                   1

38 0
 s    3 1.00
             18.731137    0.03349459952309
             2.8253937    0.23472694665786
             0.6401217    0.81375731841339
 s    1 1.00
             0.1612778                   1

39 0
 s    6 1.00
             3047.5249  0.0018347001629433
             457.36951    0.01403730124668
             103.94869   0.068842606114048
             29.210155    0.23218442062076
              9.286663    0.46794134155879
              3.163927    0.36231203217765
 s    3 1.00
             7.8682724   -0.11933240861517
             1.8812885   -0.16085421161283
             0.5442493     1.1434564825515
 s    1 1.00
             0.1687144                   1
 p    3 1.00
             7.8682724   0.068999095584993
             1.8812885    0.31642397975315
             0.5442493    0.74430825237435
 p    1 1.00
             0.1687144                   1
 d    1 1.00
                   0.8                   1

40 0
 s    6 1.00
             3047.5249  0.0018347001629433
             457.36951    0.01403730124668
             103.94869   0.068842606114048
             29.210155    0.23218442062076
              9.286663    0.46794134155879
              3.163927    0.36231203217765
 s    3 1.00
             7.8682724   -0.11933240861517
             1.8812885   -0.16085421161283
             0.5442493     1.1434564825515
 s    1 1.00
             0.1687144                   1
 p    3 1.00
             7.8682724   0.068999095584993
             1.8812885    0.31642397975315
             0.5442493    0.74430825237435
 p    1 1.00
             0.1687144                   1
 d    1 1.00
                   0.8                   1

41 0
 s    3 1.00
             18.731137    0.03349459952309
             2.8253937    0.23472694665786
             0.6401217    0.81375731841339
 s    1 1.00
             0.1612778                   1

42 0
 s    6 1.00
             5484.6717   0.001831099805527
             825.23495   0.013950098518422
             188.04696    0.06844509273075
               52.9645    0.23271427528445
              16.89757    0.47019295006289
             5.7996353    0.35852086192309
 s    3 1.00
             15.539616   -0.11077750382508
             3.5999336   -0.14802630511126
             1.0137618     1.1307670390447
 s    1 1.00
             0.2700058                   1
 p    3 1.00
             15.539616   0.070874299543311
             3.5999336    0.33975279781076
             1.0137618    0.72715859531445
 p    1 1.00
             0.2700058                   1
 d    1 1.00
                   0.8                   1

43 0
 s    3 1.00
             18.731137    0.03349459952309
             2.8253937    0.23472694665786
             0.6401217    0.81375731841339
 s    1 1.00
             0.1612778                   1

[5d]
[7f]
[9g]

[MO]
 Sym= A
 Ene=               0
 Spin= Alpha
 Occup=    1.00000
   1      0.01646515326099
   2    -0.0011632597354594
   3    0.0076234230772448
   4    0.00043143753994786
   5    -0.00011781675825297
   6    0.0013603338211866
   7    0.00089201853976011
   8    0.0012270440525971
   9    -0.0058830425323615
  10    -0.001011736249474
  11    -0.0009614364351391
  12    0.00016383869391144
  13    -0.0002206810948299
  14    5.4131948392157e-05
  15    -0.00053882968035912
  16    -0.00098183024098439
  17       0.9946873102502
  18     0.039287111285375
  19    -0.031250565589514
  20    0.00099938160345105
  21    0.00017620823894119
  22    -0.00062490344697622
  23    -0.003900613597699
  24    -0.0011281046237353
  25    -0.00075426227053477
  26    0.00081802020133478
  27    -0.00031253175945086
  28    -0.00037004022942862
  29    0.00028508686478949
  30    0.00016045886371339
  31    -0.001272422542976
  32    0.0042472012325792
  33     0.014508474014927
  34    -0.00037241349253129
  35    0.0013612950323041
  36    0.00096055649007253
  37    0.00037450269467128
  38    -0.0013183226530676
  39    -0.0020369839059818
  40    0.0037085457570598
  41    0.0049042558954525
  42    -0.00071340692739208
  43    0.0012965657381114
  44    0.00050561281907086
  45    -0.00037142567167052
  46    -0.00044877439569651
  47    -0.00060160405278668
  48    -0.00065124727083998
  49    -0.0004424903440906
  50    -0.00060540853661061
  51    0.00040366293273371
  52    0.00021190380109964
  53    2.2465760970592e-05
  54    -0.00047065044088952
  55    -0.0044653134243417
  56    0.0012395908057724
  57    0.0078325451929126
  58    -0.00013806467952117
  59    3.1125409911748e-06
  60    0.00021795928158693
  61    -0.00028203092789581
  62    -0.00011457165678446
  63    -0.00050758796506999
  64    0.00026352118501938
  65    -2.9270974701514e-06
  66    -4.5899384646229e-06
  67    -1.120416721371e-07
  68    -1.501943403445e-06
  69    8.2616104072728e-06
  70    2.4312105569687e-06
  71    -4.8657397134464e-06
  72    -3.0137221953206e-07
  73    1.3668922451196e-05
  74    2.6510856050085e-05
  75    1.0079668621043e-05
  76    -1.4923157042681e-07
  77    -3.9290857439426e-07
  78    3.8945101765521e-07
  79    6.4623537385616e-07
  80    -4.4423190023695e-08
  81    2.4988821720327e-06
  82    1.3296771483314e-05
  83    2.4135525173046e-07
  84    1.6864151936956e-06
  85    -6.9218643056046e-05
  86    3.7664979536704e-06
  87    3.3727859536104e-06
  88    5.5335332001705e-06
  89    2.637874421079e-05
  90    -6.8083865150093e-05
  91    6.9656424653295e-06
  92    1.6980263864907e-06
  93    -2.9833590328512e-06
  94    3.9845195245442e-06
  95    -8.4291111035956e-07
  96    -1.1076064398219e-06
  97    7.2854287910706e-06
  98    1.2674125193735e-05
  99    -3.5939449218712e-06
 100    -2.0192113437976e-05
 101    -1.3316501817173e-06
 102    -1.3525474920951e-05
 103    0.00026142529717736
 104    -1.8817029318385e-06
 105    -7.9452572517268e-06
 106    -3.6350476264455e-06
 107    -0.00020672388288383
 108    0.0001957934751815
 109    0.0001384190532793
 110    -6.2213682475554e-06
 111    -4.9026126226663e-08
 112    1.9289004178498e-08
 113    1.9125099773496e-06
 114    -5.8185215147092e-06
 115    -3.5608289559894e-06
 116    -3.4571529810136e-05
 117    0.00025089533824567
 118    -2.663169905312e-06
 119    3.7383939429092e-06
 120    5.2230565316703e-06
 121    -4.938454373325e-05
 122    8.2930789960835e-06
 123    2.9269307976213e-05
 124    1.7466767894869e-06
 125    -2.8325938676013e-06
 126    -2.6820702981279e-06
 127    4.2270070471105e-07
 128    -2.1658686192103e-06
 129    -5.8208642829047e-06
 130    -5.5982505030329e-05
 131    0.00014875572628096
 132    6.688647300047e-06
 133    -5.5416409597915e-06
 134    2.3410408549685e-05
 135    -0.00038070490589079
 136    5.4537563449771e-05
 137    -0.00042242347505399
 138    1.0065800236821e-05
 139    1.3592342023529e-05
 140    6.0679377905306e-06
 141    4.5853868980956e-06
 142    7.2354211392629e-06
 143    -1.8867643179962e-06
 144    -2.5784888802435e-05
 145    1.4980005450177e-05
 146    2.4899859305403e-06
 147     6.57889139897e-06
 148    1.2895598316155e-05
 149    1.0959185109729e-05
 150    -5.5035879583452e-06
 151    -5.699395650519e-05
 152    -7.5695220775818e-06
 153    -3.7818209109286e-06
 154    -3.1539504199758e-06
 155    4.4986385711824e-06
 156    -3.9565157157555e-06
 157    1.5618615499323e-06
 158    1.2483122785927e-05
 159    -3.081474847407e-05
 160    6.2696105025369e-06
 161    -3.3689117110834e-07
 162    -1.1442485092236e-06
 163    -4.9973908196237e-05
 164    2.2280732038291e-05
 165    9.9749875062224e-06
 166    4.3017637424998e-06
 167    -3.8129940421669e-07
 168    -2.3204538917684e-07
 169    7.2129485358876e-07
 170    1.8914259338875e-06
 171    -5.4086922052336e-07
 172    -1.260385738789e-05
 173    2.3298805652624e-05
 174    -3.9950710060706e-06
 175    -1.0314455935426e-07
 176    1.1235570974786e-05
 177    -3.8167707990983e-06
 178    -2.4880168459251e-06
 179    -2.9764085431223e-05
 180    1.7604280802715e-06
 181    4.9210521838241e-06
 182    7.0434228857831e-07
 183    -1.379979470243e-06
 184    1.6012940066169e-06
 185    -3.5320846954681e-06
 186    -3.0782286250193e-05
 187    8.8635174000055e-05
 188    -2.6343409641834e-06
 189    7.9051377575012e-07
 190    5.3883633942258e-06
 191    -9.1652805782645e-07
 192    -1.2856991800663e-05
 193    -7.6663233760365e-05
 194    3.6736199888075e-06
 195    1.7028976954176e-06
 196    2.6313821546016e-06
 197    -4.3432130657246e-07
 198    4.0848221915311e-07
 199    -8.230084364327e-06
 200    -6.764968738739e-07
 201    -2.194672534078e-06
 202    2.1933438255595e-05
 203    -1.2333025952115e-05
 204    -8.1241148686442e-06
 205    -5.3139086280116e-07
 206    -2.8537874672859e-05
 207    1.153718680305e-05
 208    -7.3031596321708e-05
 209    1.0985130198398e-05
 210    -2.8001518534825e-05
 211    5.9631366420839e-06
 212    1.785568559876e-05
 213    -6.0435725228595e-07
 214    -2.1604096168712e-05
 215    -2.4372535097429e-06
 216    -3.3202078668081e-05
 217    1.5075575032269e-06
 218    8.7230249084011e-06
 219    4.4793978293114e-07
 220    -9.498509050401e-07
 221    -8.9924890017183e-06
 222    -8.77168520474e-05
 223    0.00088542913988678
 224    -1.2577511872469e-05
 225    9.2506438810187e-08
 226    1.2543837734208e-05
 227    0.00066640734303432
 228    0.00030983691195936
 229    -0.00093906367190669
 230    1.4789933705929e-06
 231    -4.4027146880734e-05
 232    -2.2379811612296e-05
 233    2.1847193876437e-05
 234    2.3217063873079e-05
 235    -1.5642741723739e-05
 236    -7.324042421986e-05
 237    -0.00019026707628557
 238    -3.0893133649362e-05
 239    -9.3918436500306e-06
 240    2.8399055263384e-05
 241    0.00027955642611914
 242    0.00033474571377504
 243    -0.0015956495202207
 244    1.2779540435141e-05
 245    7.2730121179023e-05
 246    1.6514126219603e-05
 247    1.8041984231607e-05
 248    -1.0606300986464e-07
 249    -3.5135088464126e-05
 250    0.0003252165352918
 251    5.8837107308677e-06
 252    -0.00042214319264993
 253    0.0020949938075746
 254    6.9247280443388e-05
 255    -4.5638393145554e-05
 256    0.00021123439126759
 257    -9.4756921667904e-05
 258    0.00045503232199538
 259    -0.001842442017386
 260    -7.3176047464921e-05
 261    -1.9568209842066e-05
 262    -2.0634155156189e-05
 263    0.00014395701489513
 264    9.6571112503589e-05
 265    -0.00010992712418538
 266    0.00020664696587542
 267    -0.00013720224884586
 268    -0.00055783795232744
 269    -5.7093453756603e-05
 270    -0.00053418372166692
 271     0.007012510627404
 272    -4.0100172460561e-05
 273    9.8144388973762e-05
 274    0.00014551679965664
 275    -0.0019323195650837
 276    -0.0028831965826884
 277    0.0026427310128195
 278    7.9200647500243e-05
 279    -0.00018936816616175
 280    -8.5881045591005e-05