[Molden Format]
made by pyscf v[2.0.1]
[Atoms] (AU)
C   1   6     0.69100024066471     0.64692934207205    -3.48223131169301
H   2   1     2.68052439830868     1.13355088658700    -3.25784032593313
C   3   6    -0.36286361513219     0.85440132524594    -5.97030179418974
H   4   1    -2.35448549047279     0.36322488579172    -6.17995817793143
C   5   6     0.93697958957450     1.61209284601821    -8.05828437677121
H   6   1    -0.09693119212527     2.00604603919817    -9.79517014534402
C   7   6     3.63030097622708     1.92762357571405    -8.11066704391556
H   8   1     4.64038155806228     1.52704759336691    -6.35595956986227
H   9   1     1.55630230933075    -1.92953025305990    12.99630010416247
C   10   6     0.75233899775814    -2.21270439606481    11.10705728102219
H   11   1    -0.43433408177274    -3.90944857546550    11.22216085340412
C   12   6     2.86362581178706    -2.63237380607947     9.17926416456045
H   13   1     4.39038949912609    -1.24955421540245     9.49899813497433
H   14   1     3.74629220191363    -4.48798724300892     9.47414880959024
C   15   6     2.02478325613682    -2.42177285709634     6.44560829588644
C   16   6     3.88048732735477    -3.58795445234514     4.61402886975252
C   17   6    -0.18412382258602    -1.30464291234259     5.76021113872346
C   18   6    -2.10044360464350    -0.26837831858460     7.71610340967100
C   19   6    -3.08956938670431     2.35282328359417     6.88693925039594
C   20   6    -4.37372924086464    -2.09766595989678     7.93610724222001
C   21   6    -0.83850430601230     0.06372213486173    10.33002307638377
H   22   1     0.38411922151109     1.74281358582432    10.27380136542181
H   23   1    -2.30980003007874     0.45460143924521    11.73986301809809
H   24   1     4.58527064644668    -5.38706904487420     5.36778158031719
H   25   1     5.54944938085014    -2.37631462192748     4.35398898413318
H   26   1     3.06633019150423    -3.94118377050688     2.75255466040884
H   27   1    -4.17727778763735     2.26573369139522     5.12914900961283
H   28   1    -1.52662344944051     3.68001877445626     6.59540397144508
H   29   1    -4.32916174397830     3.13643051467482     8.35225460090378
H   30   1    -5.32329548508442    -2.36691813602939     6.11583672749896
H   31   1    -5.77989366602257    -1.33896741843465     9.25748940450990
H   32   1    -3.79310905208926    -3.96389819310853     8.61386170102686
C   33   6    -1.01100794811226    -1.06331657314144     3.11929490449947
C   34   6     0.37686231036534    -0.33275864505552     1.09165013605873
H   35   1    -3.01671213906703    -1.40297922279997     2.77827895090944
C   36   6    -0.64382707979370    -0.11591880174385    -1.42063131251064
H   37   1     2.35569259782137     0.17174499283897     1.33641070251401
H   38   1    -2.63317482980319    -0.60229203511219    -1.66119700387645
C   39   6     5.00345825531076     2.67452304879010   -10.14372233560053
C   40   6     7.74537676211387     2.93885238802377   -10.00575318331397
H   41   1     4.11504514624535     3.10282594680410   -11.94789724846226
O   42   8     9.09456961333047     3.59889471504076   -11.75642359916462
H   43   1     8.57474602054619     2.48152315519597    -8.12342071425648
[GTO]
1 0
 s    6 1.00
             3047.5249  0.0018347001629433
             457.36951    0.01403730124668
             103.94869   0.068842606114048
             29.210155    0.23218442062076
              9.286663    0.46794134155879
              3.163927    0.36231203217765
 s    3 1.00
             7.8682724   -0.11933240861517
             1.8812885   -0.16085421161283
             0.5442493     1.1434564825515
 s    1 1.00
             0.1687144                   1
 p    3 1.00
             7.8682724   0.068999095584993
             1.8812885    0.31642397975315
             0.5442493    0.74430825237435
 p    1 1.00
             0.1687144                   1
 d    1 1.00
                   0.8                   1

2 0
 s    3 1.00
             18.731137    0.03349459952309
             2.8253937    0.23472694665786
             0.6401217    0.81375731841339
 s    1 1.00
             0.1612778                   1

3 0
 s    6 1.00
             3047.5249  0.0018347001629433
             457.36951    0.01403730124668
             103.94869   0.068842606114048
             29.210155    0.23218442062076
              9.286663    0.46794134155879
              3.163927    0.36231203217765
 s    3 1.00
             7.8682724   -0.11933240861517
             1.8812885   -0.16085421161283
             0.5442493     1.1434564825515
 s    1 1.00
             0.1687144                   1
 p    3 1.00
             7.8682724   0.068999095584993
             1.8812885    0.31642397975315
             0.5442493    0.74430825237435
 p    1 1.00
             0.1687144                   1
 d    1 1.00
                   0.8                   1

4 0
 s    3 1.00
             18.731137    0.03349459952309
             2.8253937    0.23472694665786
             0.6401217    0.81375731841339
 s    1 1.00
             0.1612778                   1

5 0
 s    6 1.00
             3047.5249  0.0018347001629433
             457.36951    0.01403730124668
             103.94869   0.068842606114048
             29.210155    0.23218442062076
              9.286663    0.46794134155879
              3.163927    0.36231203217765
 s    3 1.00
             7.8682724   -0.11933240861517
             1.8812885   -0.16085421161283
             0.5442493     1.1434564825515
 s    1 1.00
             0.1687144                   1
 p    3 1.00
             7.8682724   0.068999095584993
             1.8812885    0.31642397975315
             0.5442493    0.74430825237435
 p    1 1.00
             0.1687144                   1
 d    1 1.00
                   0.8                   1

6 0
 s    3 1.00
             18.731137    0.03349459952309
             2.8253937    0.23472694665786
             0.6401217    0.81375731841339
 s    1 1.00
             0.1612778                   1

7 0
 s    6 1.00
             3047.5249  0.0018347001629433
             457.36951    0.01403730124668
             103.94869   0.068842606114048
             29.210155    0.23218442062076
              9.286663    0.46794134155879
              3.163927    0.36231203217765
 s    3 1.00
             7.8682724   -0.11933240861517
             1.8812885   -0.16085421161283
             0.5442493     1.1434564825515
 s    1 1.00
             0.1687144                   1
 p    3 1.00
             7.8682724   0.068999095584993
             1.8812885    0.31642397975315
             0.5442493    0.74430825237435
 p    1 1.00
             0.1687144                   1
 d    1 1.00
                   0.8                   1

8 0
 s    3 1.00
             18.731137    0.03349459952309
             2.8253937    0.23472694665786
             0.6401217    0.81375731841339
 s    1 1.00
             0.1612778                   1

9 0
 s    3 1.00
             18.731137    0.03349459952309
             2.8253937    0.23472694665786
             0.6401217    0.81375731841339
 s    1 1.00
             0.1612778                   1

10 0
 s    6 1.00
             3047.5249  0.0018347001629433
             457.36951    0.01403730124668
             103.94869   0.068842606114048
             29.210155    0.23218442062076
              9.286663    0.46794134155879
              3.163927    0.36231203217765
 s    3 1.00
             7.8682724   -0.11933240861517
             1.8812885   -0.16085421161283
             0.5442493     1.1434564825515
 s    1 1.00
             0.1687144                   1
 p    3 1.00
             7.8682724   0.068999095584993
             1.8812885    0.31642397975315
             0.5442493    0.74430825237435
 p    1 1.00
             0.1687144                   1
 d    1 1.00
                   0.8                   1

11 0
 s    3 1.00
             18.731137    0.03349459952309
             2.8253937    0.23472694665786
             0.6401217    0.81375731841339
 s    1 1.00
             0.1612778                   1

12 0
 s    6 1.00
             3047.5249  0.0018347001629433
             457.36951    0.01403730124668
             103.94869   0.068842606114048
             29.210155    0.23218442062076
              9.286663    0.46794134155879
              3.163927    0.36231203217765
 s    3 1.00
             7.8682724   -0.11933240861517
             1.8812885   -0.16085421161283
             0.5442493     1.1434564825515
 s    1 1.00
             0.1687144                   1
 p    3 1.00
             7.8682724   0.068999095584993
             1.8812885    0.31642397975315
             0.5442493    0.74430825237435
 p    1 1.00
             0.1687144                   1
 d    1 1.00
                   0.8                   1

13 0
 s    3 1.00
             18.731137    0.03349459952309
             2.8253937    0.23472694665786
             0.6401217    0.81375731841339
 s    1 1.00
             0.1612778                   1

14 0
 s    3 1.00
             18.731137    0.03349459952309
             2.8253937    0.23472694665786
             0.6401217    0.81375731841339
 s    1 1.00
             0.1612778                   1

15 0
 s    6 1.00
             3047.5249  0.0018347001629433
             457.36951    0.01403730124668
             103.94869   0.068842606114048
             29.210155    0.23218442062076
              9.286663    0.46794134155879
              3.163927    0.36231203217765
 s    3 1.00
             7.8682724   -0.11933240861517
             1.8812885   -0.16085421161283
             0.5442493     1.1434564825515
 s    1 1.00
             0.1687144                   1
 p    3 1.00
             7.8682724   0.068999095584993
             1.8812885    0.31642397975315
             0.5442493    0.74430825237435
 p    1 1.00
             0.1687144                   1
 d    1 1.00
                   0.8                   1

16 0
 s    6 1.00
             3047.5249  0.0018347001629433
             457.36951    0.01403730124668
             103.94869   0.068842606114048
             29.210155    0.23218442062076
              9.286663    0.46794134155879
              3.163927    0.36231203217765
 s    3 1.00
             7.8682724   -0.11933240861517
             1.8812885   -0.16085421161283
             0.5442493     1.1434564825515
 s    1 1.00
             0.1687144                   1
 p    3 1.00
             7.8682724   0.068999095584993
             1.8812885    0.31642397975315
             0.5442493    0.74430825237435
 p    1 1.00
             0.1687144                   1
 d    1 1.00
                   0.8                   1

17 0
 s    6 1.00
             3047.5249  0.0018347001629433
             457.36951    0.01403730124668
             103.94869   0.068842606114048
             29.210155    0.23218442062076
              9.286663    0.46794134155879
              3.163927    0.36231203217765
 s    3 1.00
             7.8682724   -0.11933240861517
             1.8812885   -0.16085421161283
             0.5442493     1.1434564825515
 s    1 1.00
             0.1687144                   1
 p    3 1.00
             7.8682724   0.068999095584993
             1.8812885    0.31642397975315
             0.5442493    0.74430825237435
 p    1 1.00
             0.1687144                   1
 d    1 1.00
                   0.8                   1

18 0
 s    6 1.00
             3047.5249  0.0018347001629433
             457.36951    0.01403730124668
             103.94869   0.068842606114048
             29.210155    0.23218442062076
              9.286663    0.46794134155879
              3.163927    0.36231203217765
 s    3 1.00
             7.8682724   -0.11933240861517
             1.8812885   -0.16085421161283
             0.5442493     1.1434564825515
 s    1 1.00
             0.1687144                   1
 p    3 1.00
             7.8682724   0.068999095584993
             1.8812885    0.31642397975315
             0.5442493    0.74430825237435
 p    1 1.00
             0.1687144                   1
 d    1 1.00
                   0.8                   1

19 0
 s    6 1.00
             3047.5249  0.0018347001629433
             457.36951    0.01403730124668
             103.94869   0.068842606114048
             29.210155    0.23218442062076
              9.286663    0.46794134155879
              3.163927    0.36231203217765
 s    3 1.00
             7.8682724   -0.11933240861517
             1.8812885   -0.16085421161283
             0.5442493     1.1434564825515
 s    1 1.00
             0.1687144                   1
 p    3 1.00
             7.8682724   0.068999095584993
             1.8812885    0.31642397975315
             0.5442493    0.74430825237435
 p    1 1.00
             0.1687144                   1
 d    1 1.00
                   0.8                   1

20 0
 s    6 1.00
             3047.5249  0.0018347001629433
             457.36951    0.01403730124668
             103.94869   0.068842606114048
             29.210155    0.23218442062076
              9.286663    0.46794134155879
              3.163927    0.36231203217765
 s    3 1.00
             7.8682724   -0.11933240861517
             1.8812885   -0.16085421161283
             0.5442493     1.1434564825515
 s    1 1.00
             0.1687144                   1
 p    3 1.00
             7.8682724   0.068999095584993
             1.8812885    0.31642397975315
             0.5442493    0.74430825237435
 p    1 1.00
             0.1687144                   1
 d    1 1.00
                   0.8                   1

21 0
 s    6 1.00
             3047.5249  0.0018347001629433
             457.36951    0.01403730124668
             103.94869   0.068842606114048
             29.210155    0.23218442062076
              9.286663    0.46794134155879
              3.163927    0.36231203217765
 s    3 1.00
             7.8682724   -0.11933240861517
             1.8812885   -0.16085421161283
             0.5442493     1.1434564825515
 s    1 1.00
             0.1687144                   1
 p    3 1.00
             7.8682724   0.068999095584993
             1.8812885    0.31642397975315
             0.5442493    0.74430825237435
 p    1 1.00
             0.1687144                   1
 d    1 1.00
                   0.8                   1

22 0
 s    3 1.00
             18.731137    0.03349459952309
             2.8253937    0.23472694665786
             0.6401217    0.81375731841339
 s    1 1.00
             0.1612778                   1

23 0
 s    3 1.00
             18.731137    0.03349459952309
             2.8253937    0.23472694665786
             0.6401217    0.81375731841339
 s    1 1.00
             0.1612778                   1

24 0
 s    3 1.00
             18.731137    0.03349459952309
             2.8253937    0.23472694665786
             0.6401217    0.81375731841339
 s    1 1.00
             0.1612778                   1

25 0
 s    3 1.00
             18.731137    0.03349459952309
             2.8253937    0.23472694665786
             0.6401217    0.81375731841339
 s    1 1.00
             0.1612778                   1

26 0
 s    3 1.00
             18.731137    0.03349459952309
             2.8253937    0.23472694665786
             0.6401217    0.81375731841339
 s    1 1.00
             0.1612778                   1

27 0
 s    3 1.00
             18.731137    0.03349459952309
             2.8253937    0.23472694665786
             0.6401217    0.81375731841339
 s    1 1.00
             0.1612778                   1

28 0
 s    3 1.00
             18.731137    0.03349459952309
             2.8253937    0.23472694665786
             0.6401217    0.81375731841339
 s    1 1.00
             0.1612778                   1

29 0
 s    3 1.00
             18.731137    0.03349459952309
             2.8253937    0.23472694665786
             0.6401217    0.81375731841339
 s    1 1.00
             0.1612778                   1

30 0
 s    3 1.00
             18.731137    0.03349459952309
             2.8253937    0.23472694665786
             0.6401217    0.81375731841339
 s    1 1.00
             0.1612778                   1

31 0
 s    3 1.00
             18.731137    0.03349459952309
             2.8253937    0.23472694665786
             0.6401217    0.81375731841339
 s    1 1.00
             0.1612778                   1

32 0
 s    3 1.00
             18.731137    0.03349459952309
             2.8253937    0.23472694665786
             0.6401217    0.81375731841339
 s    1 1.00
             0.1612778                   1

33 0
 s    6 1.00
             3047.5249  0.0018347001629433
             457.36951    0.01403730124668
             103.94869   0.068842606114048
             29.210155    0.23218442062076
              9.286663    0.46794134155879
              3.163927    0.36231203217765
 s    3 1.00
             7.8682724   -0.11933240861517
             1.8812885   -0.16085421161283
             0.5442493     1.1434564825515
 s    1 1.00
             0.1687144                   1
 p    3 1.00
             7.8682724   0.068999095584993
             1.8812885    0.31642397975315
             0.5442493    0.74430825237435
 p    1 1.00
             0.1687144                   1
 d    1 1.00
                   0.8                   1

34 0
 s    6 1.00
             3047.5249  0.0018347001629433
             457.36951    0.01403730124668
             103.94869   0.068842606114048
             29.210155    0.23218442062076
              9.286663    0.46794134155879
              3.163927    0.36231203217765
 s    3 1.00
             7.8682724   -0.11933240861517
             1.8812885   -0.16085421161283
             0.5442493     1.1434564825515
 s    1 1.00
             0.1687144                   1
 p    3 1.00
             7.8682724   0.068999095584993
             1.8812885    0.31642397975315
             0.5442493    0.74430825237435
 p    1 1.00
             0.1687144                   1
 d    1 1.00
                   0.8                   1

35 0
 s    3 1.00
             18.731137    0.03349459952309
             2.8253937    0.23472694665786
             0.6401217    0.81375731841339
 s    1 1.00
             0.1612778                   1

36 0
 s    6 1.00
             3047.5249  0.0018347001629433
             457.36951    0.01403730124668
             103.94869   0.068842606114048
             29.210155    0.23218442062076
              9.286663    0.46794134155879
              3.163927    0.36231203217765
 s    3 1.00
             7.8682724   -0.11933240861517
             1.8812885   -0.16085421161283
             0.5442493     1.1434564825515
 s    1 1.00
             0.1687144                   1
 p    3 1.00
             7.8682724   0.068999095584993
             1.8812885    0.31642397975315
             0.5442493    0.74430825237435
 p    1 1.00
             0.1687144                   1
 d    1 1.00
                   0.8                   1

37 0
 s    3 1.00
             18.731137    0.03349459952309
             2.8253937    0.23472694665786
             0.6401217    0.81375731841339
 s    1 1.00
             0.1612778                   1

38 0
 s    3 1.00
             18.731137    0.03349459952309
             2.8253937    0.23472694665786
             0.6401217    0.81375731841339
 s    1 1.00
             0.1612778                   1

39 0
 s    6 1.00
             3047.5249  0.0018347001629433
             457.36951    0.01403730124668
             103.94869   0.068842606114048
             29.210155    0.23218442062076
              9.286663    0.46794134155879
              3.163927    0.36231203217765
 s    3 1.00
             7.8682724   -0.11933240861517
             1.8812885   -0.16085421161283
             0.5442493     1.1434564825515
 s    1 1.00
             0.1687144                   1
 p    3 1.00
             7.8682724   0.068999095584993
             1.8812885    0.31642397975315
             0.5442493    0.74430825237435
 p    1 1.00
             0.1687144                   1
 d    1 1.00
                   0.8                   1

40 0
 s    6 1.00
             3047.5249  0.0018347001629433
             457.36951    0.01403730124668
             103.94869   0.068842606114048
             29.210155    0.23218442062076
              9.286663    0.46794134155879
              3.163927    0.36231203217765
 s    3 1.00
             7.8682724   -0.11933240861517
             1.8812885   -0.16085421161283
             0.5442493     1.1434564825515
 s    1 1.00
             0.1687144                   1
 p    3 1.00
             7.8682724   0.068999095584993
             1.8812885    0.31642397975315
             0.5442493    0.74430825237435
 p    1 1.00
             0.1687144                   1
 d    1 1.00
                   0.8                   1

41 0
 s    3 1.00
             18.731137    0.03349459952309
             2.8253937    0.23472694665786
             0.6401217    0.81375731841339
 s    1 1.00
             0.1612778                   1

42 0
 s    6 1.00
             5484.6717   0.001831099805527
             825.23495   0.013950098518422
             188.04696    0.06844509273075
               52.9645    0.23271427528445
              16.89757    0.47019295006289
             5.7996353    0.35852086192309
 s    3 1.00
             15.539616   -0.11077750382508
             3.5999336   -0.14802630511126
             1.0137618     1.1307670390447
 s    1 1.00
             0.2700058                   1
 p    3 1.00
             15.539616   0.070874299543311
             3.5999336    0.33975279781076
             1.0137618    0.72715859531445
 p    1 1.00
             0.2700058                   1
 d    1 1.00
                   0.8                   1

43 0
 s    3 1.00
             18.731137    0.03349459952309
             2.8253937    0.23472694665786
             0.6401217    0.81375731841339
 s    1 1.00
             0.1612778                   1

[5d]
[7f]
[9g]

[MO]
 Sym= A
 Ene=               0
 Spin= Alpha
 Occup=    1.00000
   1    -0.00012278949023378
   2     -0.14571645248568
   3    -0.079362305580574
   4     0.035117589761691
   5     0.023631936845204
   6    -0.077286853737845
   7    -0.016687551687141
   8    0.00018023075289001
   9    -0.029530368270075
  10    -0.0016535264410837
  11    0.0024825023282838
  12    0.0021782615142192
  13    -0.003705325386783
  14    -0.0027212875121975
  15    -0.033008202409385
  16    0.0056432254370325
  17    0.0044994510359086
  18    -0.020201867962112
  19     0.002020707982357
  20     0.001407221266621
  21    0.0045367400710337
  22    -0.019948341267809
  23    -0.00050100044617497
  24    0.0077716793874111
  25    -0.033052018861256
  26    -0.0030454513054573
  27    -0.0011625750802614
  28    0.0007676866544489
  29    -0.00055179184800033
  30    -4.4990795241296e-05
  31    -0.0056680778017184
  32    -0.004879419352269
  33    -0.006892891199125
  34     0.034451999841085
  35    0.0069018675882931
  36     0.032616336265256
  37    0.0094289164619342
  38    -0.019324154227814
  39     0.031422717166322
  40     0.010483959546606
  41    -0.020031012217491
  42    -0.0020086905658718
  43    -0.0019210270966166
  44    -0.00070974163463822
  45    0.0050551577998904
  46    0.0016681216037788
  47    0.0092571646012834
  48    0.0030564594846555
  49    0.00069989077630073
  50      0.25622522380813
  51      0.15640922882388
  52     0.096641075603309
  53     0.042212522594279
  54     -0.11065282964224
  55     0.048720142674634
  56    0.0049971793444951
  57    -0.0014982771838131
  58    0.0065861728310942
  59    -0.0024119330219479
  60    -0.005312482742858
  61    0.0044026512369304
  62    0.0019093062115693
  63      0.05753226511397
  64    -0.0058755707655124
  65    -2.6589923338619e-05
  66    -2.4745995598065e-05
  67    -3.3509194235055e-06
  68    -1.818052913707e-05
  69    0.00019164623825224
  70    1.4435393512904e-05
  71    -1.2256723977014e-06
  72    -9.0198745814098e-06
  73    -0.00012636653561395
  74    -0.00019348358962484
  75    -0.0001181558462058
  76    -1.4954159531093e-05
  77    -5.6606828919602e-06
  78    5.7116731292704e-06
  79    3.4813049631764e-06
  80    -5.7573780081675e-06
  81    -2.2071203601603e-06
  82    -0.00016305927211401
  83    1.8789719449316e-05
  84    -9.7081416848072e-05
  85    -0.0005423199488956
  86    8.3363375625063e-05
  87    -4.8903016364235e-05
  88    0.00018451527152315
  89    0.00018414501371764
  90    0.00024540944420718
  91    0.00026632355813955
  92    4.5222511504252e-06
  93    -9.6315903316159e-06
  94    -4.3226876720046e-07
  95    3.4276968715452e-06
  96    1.6994810169951e-06
  97    9.1036105802741e-06
  98    -5.4175633296183e-05
  99    3.9774298989191e-05
 100    9.0702557190283e-05
 101    -3.0382620588341e-05
 102    4.4727562740252e-05
 103    -0.00011918829761685
 104    2.1566776172252e-05
 105    -3.13619678503e-05
 106    -0.00016683364152566
 107    -0.0010066014695109
 108    0.00013474005608578
 109    0.0015062442847186
 110    -2.6658014797768e-05
 111    -5.4514995973917e-05
 112    2.0096579328535e-05
 113    3.0371556674849e-05
 114    -8.984342160247e-06
 115    -4.9186676619892e-05
 116    9.7273011970866e-05
 117    0.0010103710661397
 118    -4.9939862295233e-05
 119    0.00018964656977105
 120    3.3657636734639e-05
 121    -0.00029735913686542
 122    0.00028194023014042
 123    0.0006570238034757
 124    -9.4787083776349e-06
 125    -2.0699194955842e-05
 126    2.8705337332278e-05
 127    3.3979168662516e-06
 128    -6.7174009950758e-06
 129    8.3486686562165e-05
 130    -0.00049049910221557
 131    0.0048563242191816
 132    0.00013931539336539
 133    4.8392878950066e-05
 134    0.0007224941940476
 135    5.9862933859663e-05
 136    0.00047215486666162
 137    -0.0053311524391723
 138    0.00018492082182757
 139    -7.339697958569e-05
 140    -7.1250893038723e-05
 141     -2.9509272913e-05
 142    -4.0434841624189e-05
 143    -6.4056543462816e-05
 144    9.4667690363877e-05
 145    0.0014301493865163
 146    6.5481773385656e-05
 147    -0.00011833802990209
 148    -0.00035760050354646
 149    0.0013901418700139
 150    -0.00098248876940312
 151    0.00085926168628559
 152    -4.645342866606e-05
 153    9.6528411481062e-06
 154    2.4297035830356e-05
 155     2.63300835318e-05
 156    -2.8844606016933e-05
 157    -1.5413603419733e-05
 158    -7.2560360211393e-05
 159    0.00082976108860442
 160    -2.1555864174993e-05
 161    -2.3204915282096e-05
 162    3.1083941631363e-05
 163    2.1398882460367e-05
 164    -0.00048148994609936
 165    -8.3538825084919e-05
 166    -1.6843192420635e-05
 167    -2.7872520122347e-07
 168    1.1889409570413e-07
 169    -2.5759506352239e-05
 170    -1.5635994021025e-06
 171    -7.2538509803474e-06
 172    0.00010864224991216
 173    -0.00022926264135393
 174    -1.8927422515034e-06
 175    -3.1009636466996e-06
 176    -0.0001553023702528
 177    -0.0001906022292769
 178    0.00032023083059665
 179    1.1316823201505e-05
 180    -2.6634999802707e-06
 181    -3.2121210684816e-05
 182    -1.2071075012107e-05
 183    -1.3030308302882e-05
 184    2.6427962811681e-06
 185    2.6382546673451e-05
 186    -2.0093416990647e-05
 187    -0.00098951117343903
 188    2.1741913115947e-05
 189    3.9255537430934e-05
 190    0.00021011262808597
 191     0.000458736694242
 192    0.00027967507257124
 193    0.0003897876465126
 194    -8.1962510491831e-06
 195    -2.5845983635075e-05
 196    -1.2182463542442e-05
 197    2.2977906407515e-06
 198    -1.1634744751083e-05
 199    7.5519352837431e-06
 200    -0.00016605788841306
 201    8.5599585475681e-05
 202    0.00024847195564046
 203    -8.3463976795333e-05
 204    -0.00022674199432198
 205    8.9517735651089e-05
 206    7.7448700580622e-05
 207    -0.00010428932320227
 208    0.00037209235805372
 209    -6.3078849808722e-05
 210    -0.00010035546715181
 211    -2.5814787088942e-05
 212    1.9463900751448e-05
 213    9.3119512283977e-06
 214    0.00013158267188198
 215    1.0714723665406e-05
 216    0.00028834656191832
 217    -1.5606438832028e-05
 218    -0.00013615049007552
 219    -4.9215496089732e-06
 220    0.00021479111981888
 221    -0.00080835871087326
 222    0.0018335415164382
 223    -0.010501835207235
 224    0.0010583993851726
 225    0.00068335450712453
 226    -0.0021850408034157
 227    -0.0082179818358004
 228    -0.0011063119533535
 229    -0.0034812470448001
 230    -0.00016090646639452
 231    0.00010065697980141
 232    0.0001276530333525
 233    -6.571630258327e-05
 234    -8.4787409266842e-05
 235    0.0049052410461769
 236    -0.025693187526228
 237    -0.012085617394877
 238    -0.0033741905010088
 239    -0.0069257931040543
 240     0.028811689521118
 241    -0.0033848631951129
 242    -0.0041037329269777
 243     0.015715065450305
 244    -0.0032847096311955
 245    -0.0010626995664048
 246     0.001022088536776
 247    -0.00051605386893662
 248    -0.00012177069111987
 249    -0.0002078326907547
 250    -0.0042831295033701
 251    -0.0022234567419622
 252     -0.15065672903764
 253     -0.10613721957161
 254    -0.041816783451049
 255    -0.025989312425355
 256      0.06895951025038
 257    0.0044261603691119
 258    -0.0047117166261807
 259     0.026758111619806
 260    -0.0019427034883849
 261    0.0023688287216423
 262    0.0022969942012518
 263    -0.0037415172013142
 264    -0.0028233837844377
 265    -0.0069332225854345
 266    -0.0015286179109852
 267    -0.031533237913017
 268    0.0040696190368199
 269    0.0034493943264808
 270      0.25544347445657
 271      0.17838996139694
 272     -0.08490578768551
 273    -0.042975672801041
 274      0.11168399238867
 275    -0.039380241421488
 276    -0.0076531338813072
 277     0.009659482527207
 278    0.0070682060173726
 279    -0.0027222370485037
 280    -0.0058148797723744
 281    0.0045158882240653
 282    0.0020498350345151
 283    -0.0086074629703498
 284     0.043828893555176