[Molden Format]
made by pyscf v[2.0.1]
[Atoms] (AU)
C   1   6     0.69100024066471     0.64692934207205    -3.48223131169301
H   2   1     2.68052439830868     1.13355088658700    -3.25784032593313
C   3   6    -0.36286361513219     0.85440132524594    -5.97030179418974
H   4   1    -2.35448549047279     0.36322488579172    -6.17995817793143
C   5   6     0.93697958957450     1.61209284601821    -8.05828437677121
H   6   1     0.30646242799847     3.28538583431710    -9.07979378939352
C   7   6     3.12235401223615     0.31857752265429    -9.01077606594223
H   8   1     3.73232478675010    -1.35404880050347    -7.96675544506269
H   9   1     1.55630230933075    -1.92953025305990    12.99630010416247
C   10   6     0.75233899775814    -2.21270439606481    11.10705728102219
H   11   1    -0.43433408177274    -3.90944857546550    11.22216085340412
C   12   6     2.86362581178706    -2.63237380607947     9.17926416456045
H   13   1     4.39038949912609    -1.24955421540245     9.49899813497433
H   14   1     3.74629220191363    -4.48798724300892     9.47414880959024
C   15   6     2.02478325613682    -2.42177285709634     6.44560829588644
C   16   6     3.88048732735477    -3.58795445234514     4.61402886975252
C   17   6    -0.18412382258602    -1.30464291234259     5.76021113872346
C   18   6    -2.10044360464350    -0.26837831858460     7.71610340967100
C   19   6    -3.08956938670431     2.35282328359417     6.88693925039594
C   20   6    -4.37372924086464    -2.09766595989678     7.93610724222001
C   21   6    -0.83850430601230     0.06372213486173    10.33002307638377
H   22   1     0.38411922151109     1.74281358582432    10.27380136542181
H   23   1    -2.30980003007874     0.45460143924521    11.73986301809809
H   24   1     4.58527064644668    -5.38706904487420     5.36778158031719
H   25   1     5.54944938085014    -2.37631462192748     4.35398898413318
H   26   1     3.06633019150423    -3.94118377050688     2.75255466040884
H   27   1    -4.17727778763735     2.26573369139522     5.12914900961283
H   28   1    -1.52662344944051     3.68001877445626     6.59540397144508
H   29   1    -4.32916174397830     3.13643051467482     8.35225460090378
H   30   1    -5.32329548508442    -2.36691813602939     6.11583672749896
H   31   1    -5.77989366602257    -1.33896741843465     9.25748940450990
H   32   1    -3.79310905208926    -3.96389819310853     8.61386170102686
C   33   6    -1.01100794811226    -1.06331657314144     3.11929490449947
C   34   6     0.37686231036534    -0.33275864505552     1.09165013605873
H   35   1    -3.01671213906703    -1.40297922279997     2.77827895090944
C   36   6    -0.64382707979370    -0.11591880174385    -1.42063131251064
H   37   1     2.35569259782137     0.17174499283897     1.33641070251401
H   38   1    -2.63317482980319    -0.60229203511219    -1.66119700387645
C   39   6     4.47307059082302     1.00138906809445   -11.08105785168909
C   40   6     6.67463726557562    -0.44413475967984   -11.89995199897600
H   41   1     3.96718229655089     2.64690253849906   -12.20539356366280
O   42   8     7.97152342098443     0.06042731610533   -13.73960618931333
H   43   1     7.12379765531873    -2.11255344586070   -10.69379572801653
[GTO]
1 0
 s    6 1.00
             3047.5249  0.0018347001629433
             457.36951    0.01403730124668
             103.94869   0.068842606114048
             29.210155    0.23218442062076
              9.286663    0.46794134155879
              3.163927    0.36231203217765
 s    3 1.00
             7.8682724   -0.11933240861517
             1.8812885   -0.16085421161283
             0.5442493     1.1434564825515
 s    1 1.00
             0.1687144                   1
 p    3 1.00
             7.8682724   0.068999095584993
             1.8812885    0.31642397975315
             0.5442493    0.74430825237435
 p    1 1.00
             0.1687144                   1
 d    1 1.00
                   0.8                   1

2 0
 s    3 1.00
             18.731137    0.03349459952309
             2.8253937    0.23472694665786
             0.6401217    0.81375731841339
 s    1 1.00
             0.1612778                   1

3 0
 s    6 1.00
             3047.5249  0.0018347001629433
             457.36951    0.01403730124668
             103.94869   0.068842606114048
             29.210155    0.23218442062076
              9.286663    0.46794134155879
              3.163927    0.36231203217765
 s    3 1.00
             7.8682724   -0.11933240861517
             1.8812885   -0.16085421161283
             0.5442493     1.1434564825515
 s    1 1.00
             0.1687144                   1
 p    3 1.00
             7.8682724   0.068999095584993
             1.8812885    0.31642397975315
             0.5442493    0.74430825237435
 p    1 1.00
             0.1687144                   1
 d    1 1.00
                   0.8                   1

4 0
 s    3 1.00
             18.731137    0.03349459952309
             2.8253937    0.23472694665786
             0.6401217    0.81375731841339
 s    1 1.00
             0.1612778                   1

5 0
 s    6 1.00
             3047.5249  0.0018347001629433
             457.36951    0.01403730124668
             103.94869   0.068842606114048
             29.210155    0.23218442062076
              9.286663    0.46794134155879
              3.163927    0.36231203217765
 s    3 1.00
             7.8682724   -0.11933240861517
             1.8812885   -0.16085421161283
             0.5442493     1.1434564825515
 s    1 1.00
             0.1687144                   1
 p    3 1.00
             7.8682724   0.068999095584993
             1.8812885    0.31642397975315
             0.5442493    0.74430825237435
 p    1 1.00
             0.1687144                   1
 d    1 1.00
                   0.8                   1

6 0
 s    3 1.00
             18.731137    0.03349459952309
             2.8253937    0.23472694665786
             0.6401217    0.81375731841339
 s    1 1.00
             0.1612778                   1

7 0
 s    6 1.00
             3047.5249  0.0018347001629433
             457.36951    0.01403730124668
             103.94869   0.068842606114048
             29.210155    0.23218442062076
              9.286663    0.46794134155879
              3.163927    0.36231203217765
 s    3 1.00
             7.8682724   -0.11933240861517
             1.8812885   -0.16085421161283
             0.5442493     1.1434564825515
 s    1 1.00
             0.1687144                   1
 p    3 1.00
             7.8682724   0.068999095584993
             1.8812885    0.31642397975315
             0.5442493    0.74430825237435
 p    1 1.00
             0.1687144                   1
 d    1 1.00
                   0.8                   1

8 0
 s    3 1.00
             18.731137    0.03349459952309
             2.8253937    0.23472694665786
             0.6401217    0.81375731841339
 s    1 1.00
             0.1612778                   1

9 0
 s    3 1.00
             18.731137    0.03349459952309
             2.8253937    0.23472694665786
             0.6401217    0.81375731841339
 s    1 1.00
             0.1612778                   1

10 0
 s    6 1.00
             3047.5249  0.0018347001629433
             457.36951    0.01403730124668
             103.94869   0.068842606114048
             29.210155    0.23218442062076
              9.286663    0.46794134155879
              3.163927    0.36231203217765
 s    3 1.00
             7.8682724   -0.11933240861517
             1.8812885   -0.16085421161283
             0.5442493     1.1434564825515
 s    1 1.00
             0.1687144                   1
 p    3 1.00
             7.8682724   0.068999095584993
             1.8812885    0.31642397975315
             0.5442493    0.74430825237435
 p    1 1.00
             0.1687144                   1
 d    1 1.00
                   0.8                   1

11 0
 s    3 1.00
             18.731137    0.03349459952309
             2.8253937    0.23472694665786
             0.6401217    0.81375731841339
 s    1 1.00
             0.1612778                   1

12 0
 s    6 1.00
             3047.5249  0.0018347001629433
             457.36951    0.01403730124668
             103.94869   0.068842606114048
             29.210155    0.23218442062076
              9.286663    0.46794134155879
              3.163927    0.36231203217765
 s    3 1.00
             7.8682724   -0.11933240861517
             1.8812885   -0.16085421161283
             0.5442493     1.1434564825515
 s    1 1.00
             0.1687144                   1
 p    3 1.00
             7.8682724   0.068999095584993
             1.8812885    0.31642397975315
             0.5442493    0.74430825237435
 p    1 1.00
             0.1687144                   1
 d    1 1.00
                   0.8                   1

13 0
 s    3 1.00
             18.731137    0.03349459952309
             2.8253937    0.23472694665786
             0.6401217    0.81375731841339
 s    1 1.00
             0.1612778                   1

14 0
 s    3 1.00
             18.731137    0.03349459952309
             2.8253937    0.23472694665786
             0.6401217    0.81375731841339
 s    1 1.00
             0.1612778                   1

15 0
 s    6 1.00
             3047.5249  0.0018347001629433
             457.36951    0.01403730124668
             103.94869   0.068842606114048
             29.210155    0.23218442062076
              9.286663    0.46794134155879
              3.163927    0.36231203217765
 s    3 1.00
             7.8682724   -0.11933240861517
             1.8812885   -0.16085421161283
             0.5442493     1.1434564825515
 s    1 1.00
             0.1687144                   1
 p    3 1.00
             7.8682724   0.068999095584993
             1.8812885    0.31642397975315
             0.5442493    0.74430825237435
 p    1 1.00
             0.1687144                   1
 d    1 1.00
                   0.8                   1

16 0
 s    6 1.00
             3047.5249  0.0018347001629433
             457.36951    0.01403730124668
             103.94869   0.068842606114048
             29.210155    0.23218442062076
              9.286663    0.46794134155879
              3.163927    0.36231203217765
 s    3 1.00
             7.8682724   -0.11933240861517
             1.8812885   -0.16085421161283
             0.5442493     1.1434564825515
 s    1 1.00
             0.1687144                   1
 p    3 1.00
             7.8682724   0.068999095584993
             1.8812885    0.31642397975315
             0.5442493    0.74430825237435
 p    1 1.00
             0.1687144                   1
 d    1 1.00
                   0.8                   1

17 0
 s    6 1.00
             3047.5249  0.0018347001629433
             457.36951    0.01403730124668
             103.94869   0.068842606114048
             29.210155    0.23218442062076
              9.286663    0.46794134155879
              3.163927    0.36231203217765
 s    3 1.00
             7.8682724   -0.11933240861517
             1.8812885   -0.16085421161283
             0.5442493     1.1434564825515
 s    1 1.00
             0.1687144                   1
 p    3 1.00
             7.8682724   0.068999095584993
             1.8812885    0.31642397975315
             0.5442493    0.74430825237435
 p    1 1.00
             0.1687144                   1
 d    1 1.00
                   0.8                   1

18 0
 s    6 1.00
             3047.5249  0.0018347001629433
             457.36951    0.01403730124668
             103.94869   0.068842606114048
             29.210155    0.23218442062076
              9.286663    0.46794134155879
              3.163927    0.36231203217765
 s    3 1.00
             7.8682724   -0.11933240861517
             1.8812885   -0.16085421161283
             0.5442493     1.1434564825515
 s    1 1.00
             0.1687144                   1
 p    3 1.00
             7.8682724   0.068999095584993
             1.8812885    0.31642397975315
             0.5442493    0.74430825237435
 p    1 1.00
             0.1687144                   1
 d    1 1.00
                   0.8                   1

19 0
 s    6 1.00
             3047.5249  0.0018347001629433
             457.36951    0.01403730124668
             103.94869   0.068842606114048
             29.210155    0.23218442062076
              9.286663    0.46794134155879
              3.163927    0.36231203217765
 s    3 1.00
             7.8682724   -0.11933240861517
             1.8812885   -0.16085421161283
             0.5442493     1.1434564825515
 s    1 1.00
             0.1687144                   1
 p    3 1.00
             7.8682724   0.068999095584993
             1.8812885    0.31642397975315
             0.5442493    0.74430825237435
 p    1 1.00
             0.1687144                   1
 d    1 1.00
                   0.8                   1

20 0
 s    6 1.00
             3047.5249  0.0018347001629433
             457.36951    0.01403730124668
             103.94869   0.068842606114048
             29.210155    0.23218442062076
              9.286663    0.46794134155879
              3.163927    0.36231203217765
 s    3 1.00
             7.8682724   -0.11933240861517
             1.8812885   -0.16085421161283
             0.5442493     1.1434564825515
 s    1 1.00
             0.1687144                   1
 p    3 1.00
             7.8682724   0.068999095584993
             1.8812885    0.31642397975315
             0.5442493    0.74430825237435
 p    1 1.00
             0.1687144                   1
 d    1 1.00
                   0.8                   1

21 0
 s    6 1.00
             3047.5249  0.0018347001629433
             457.36951    0.01403730124668
             103.94869   0.068842606114048
             29.210155    0.23218442062076
              9.286663    0.46794134155879
              3.163927    0.36231203217765
 s    3 1.00
             7.8682724   -0.11933240861517
             1.8812885   -0.16085421161283
             0.5442493     1.1434564825515
 s    1 1.00
             0.1687144                   1
 p    3 1.00
             7.8682724   0.068999095584993
             1.8812885    0.31642397975315
             0.5442493    0.74430825237435
 p    1 1.00
             0.1687144                   1
 d    1 1.00
                   0.8                   1

22 0
 s    3 1.00
             18.731137    0.03349459952309
             2.8253937    0.23472694665786
             0.6401217    0.81375731841339
 s    1 1.00
             0.1612778                   1

23 0
 s    3 1.00
             18.731137    0.03349459952309
             2.8253937    0.23472694665786
             0.6401217    0.81375731841339
 s    1 1.00
             0.1612778                   1

24 0
 s    3 1.00
             18.731137    0.03349459952309
             2.8253937    0.23472694665786
             0.6401217    0.81375731841339
 s    1 1.00
             0.1612778                   1

25 0
 s    3 1.00
             18.731137    0.03349459952309
             2.8253937    0.23472694665786
             0.6401217    0.81375731841339
 s    1 1.00
             0.1612778                   1

26 0
 s    3 1.00
             18.731137    0.03349459952309
             2.8253937    0.23472694665786
             0.6401217    0.81375731841339
 s    1 1.00
             0.1612778                   1

27 0
 s    3 1.00
             18.731137    0.03349459952309
             2.8253937    0.23472694665786
             0.6401217    0.81375731841339
 s    1 1.00
             0.1612778                   1

28 0
 s    3 1.00
             18.731137    0.03349459952309
             2.8253937    0.23472694665786
             0.6401217    0.81375731841339
 s    1 1.00
             0.1612778                   1

29 0
 s    3 1.00
             18.731137    0.03349459952309
             2.8253937    0.23472694665786
             0.6401217    0.81375731841339
 s    1 1.00
             0.1612778                   1

30 0
 s    3 1.00
             18.731137    0.03349459952309
             2.8253937    0.23472694665786
             0.6401217    0.81375731841339
 s    1 1.00
             0.1612778                   1

31 0
 s    3 1.00
             18.731137    0.03349459952309
             2.8253937    0.23472694665786
             0.6401217    0.81375731841339
 s    1 1.00
             0.1612778                   1

32 0
 s    3 1.00
             18.731137    0.03349459952309
             2.8253937    0.23472694665786
             0.6401217    0.81375731841339
 s    1 1.00
             0.1612778                   1

33 0
 s    6 1.00
             3047.5249  0.0018347001629433
             457.36951    0.01403730124668
             103.94869   0.068842606114048
             29.210155    0.23218442062076
              9.286663    0.46794134155879
              3.163927    0.36231203217765
 s    3 1.00
             7.8682724   -0.11933240861517
             1.8812885   -0.16085421161283
             0.5442493     1.1434564825515
 s    1 1.00
             0.1687144                   1
 p    3 1.00
             7.8682724   0.068999095584993
             1.8812885    0.31642397975315
             0.5442493    0.74430825237435
 p    1 1.00
             0.1687144                   1
 d    1 1.00
                   0.8                   1

34 0
 s    6 1.00
             3047.5249  0.0018347001629433
             457.36951    0.01403730124668
             103.94869   0.068842606114048
             29.210155    0.23218442062076
              9.286663    0.46794134155879
              3.163927    0.36231203217765
 s    3 1.00
             7.8682724   -0.11933240861517
             1.8812885   -0.16085421161283
             0.5442493     1.1434564825515
 s    1 1.00
             0.1687144                   1
 p    3 1.00
             7.8682724   0.068999095584993
             1.8812885    0.31642397975315
             0.5442493    0.74430825237435
 p    1 1.00
             0.1687144                   1
 d    1 1.00
                   0.8                   1

35 0
 s    3 1.00
             18.731137    0.03349459952309
             2.8253937    0.23472694665786
             0.6401217    0.81375731841339
 s    1 1.00
             0.1612778                   1

36 0
 s    6 1.00
             3047.5249  0.0018347001629433
             457.36951    0.01403730124668
             103.94869   0.068842606114048
             29.210155    0.23218442062076
              9.286663    0.46794134155879
              3.163927    0.36231203217765
 s    3 1.00
             7.8682724   -0.11933240861517
             1.8812885   -0.16085421161283
             0.5442493     1.1434564825515
 s    1 1.00
             0.1687144                   1
 p    3 1.00
             7.8682724   0.068999095584993
             1.8812885    0.31642397975315
             0.5442493    0.74430825237435
 p    1 1.00
             0.1687144                   1
 d    1 1.00
                   0.8                   1

37 0
 s    3 1.00
             18.731137    0.03349459952309
             2.8253937    0.23472694665786
             0.6401217    0.81375731841339
 s    1 1.00
             0.1612778                   1

38 0
 s    3 1.00
             18.731137    0.03349459952309
             2.8253937    0.23472694665786
             0.6401217    0.81375731841339
 s    1 1.00
             0.1612778                   1

39 0
 s    6 1.00
             3047.5249  0.0018347001629433
             457.36951    0.01403730124668
             103.94869   0.068842606114048
             29.210155    0.23218442062076
              9.286663    0.46794134155879
              3.163927    0.36231203217765
 s    3 1.00
             7.8682724   -0.11933240861517
             1.8812885   -0.16085421161283
             0.5442493     1.1434564825515
 s    1 1.00
             0.1687144                   1
 p    3 1.00
             7.8682724   0.068999095584993
             1.8812885    0.31642397975315
             0.5442493    0.74430825237435
 p    1 1.00
             0.1687144                   1
 d    1 1.00
                   0.8                   1

40 0
 s    6 1.00
             3047.5249  0.0018347001629433
             457.36951    0.01403730124668
             103.94869   0.068842606114048
             29.210155    0.23218442062076
              9.286663    0.46794134155879
              3.163927    0.36231203217765
 s    3 1.00
             7.8682724   -0.11933240861517
             1.8812885   -0.16085421161283
             0.5442493     1.1434564825515
 s    1 1.00
             0.1687144                   1
 p    3 1.00
             7.8682724   0.068999095584993
             1.8812885    0.31642397975315
             0.5442493    0.74430825237435
 p    1 1.00
             0.1687144                   1
 d    1 1.00
                   0.8                   1

41 0
 s    3 1.00
             18.731137    0.03349459952309
             2.8253937    0.23472694665786
             0.6401217    0.81375731841339
 s    1 1.00
             0.1612778                   1

42 0
 s    6 1.00
             5484.6717   0.001831099805527
             825.23495   0.013950098518422
             188.04696    0.06844509273075
               52.9645    0.23271427528445
              16.89757    0.47019295006289
             5.7996353    0.35852086192309
 s    3 1.00
             15.539616   -0.11077750382508
             3.5999336   -0.14802630511126
             1.0137618     1.1307670390447
 s    1 1.00
             0.2700058                   1
 p    3 1.00
             15.539616   0.070874299543311
             3.5999336    0.33975279781076
             1.0137618    0.72715859531445
 p    1 1.00
             0.2700058                   1
 d    1 1.00
                   0.8                   1

43 0
 s    3 1.00
             18.731137    0.03349459952309
             2.8253937    0.23472694665786
             0.6401217    0.81375731841339
 s    1 1.00
             0.1612778                   1

[5d]
[7f]
[9g]

[MO]
 Sym= A
 Ene=               0
 Spin= Alpha
 Occup=    1.00000
   1     0.002527881788823
   2      0.29450702431633
   3      0.19803701304525
   4    -0.075963820645797
   5    -0.048497026983586
   6      0.14514137258437
   7      0.01092329587696
   8    -0.0074775431695356
   9     0.050039124010814
  10    0.0037657923915807
  11    -0.0050694798334205
  12    -0.0045886843815133
  13     0.007548187252625
  14    0.0054037875828815
  15     0.064943376422196
  16    -0.0034755290582082
  17    -0.0083882131148005
  18     0.044815370972558
  19     0.019650532577913
  20    -0.007235851279582
  21    -0.011022761024573
  22     0.051413456574735
  23     -0.01211449431323
  24    -0.0080571277090269
  25     0.027699371735738
  26    0.0064332036421794
  27    0.0022388611757325
  28    -0.0018725593849009
  29    0.00089640332491874
  30    0.00016440545339496
  31     0.012431990918772
  32    -0.00031081088445481
  33    0.00049467626661318
  34    0.0020480790611405
  35     0.019690529490018
  36    0.0045782129339575
  37    0.00027390041928719
  38    -0.0084431782218837
  39    -0.0074351383930277
  40    -0.0036184940435544
  41    0.0030292015525783
  42    -0.00024611170743005
  43    -0.0010129072825184
  44    -2.7498905792938e-05
  45    0.00049438661676921
  46    -0.00037498272025742
  47    0.0015710655328599
  48    0.00022177194983611
  49    -0.00018439496952947
  50       0.0383297966326
  51     0.032210098384009
  52      0.01406564755632
  53     0.003328128326775
  54    -0.015864963959991
  55    0.0090725801504358
  56    0.0011688106280043
  57    -0.0063346322498851
  58    0.00045885483161946
  59    -0.00086599290566347
  60    -0.0011980814312878
  61    -0.00015687649081532
  62    -0.00025173211069123
  63        0.010035263565
  64    0.0016812156803531
  65    4.4362416251289e-05
  66    6.0382378156132e-05
  67    2.5060565232731e-05
  68    2.657867676456e-06
  69    -0.00044588341392722
  70    -6.2845214195806e-05
  71    9.0664568925714e-06
  72    4.3680507029409e-05
  73    0.00019905721928635
  74    0.00047803698533396
  75    0.00022193199594792
  76    2.8795248574626e-05
  77    1.5620135872596e-05
  78    -1.0999486722426e-05
  79    -6.8961978839369e-06
  80    1.3040299428731e-05
  81    1.566321858455e-05
  82    0.00040887383803264
  83    -1.1155205546809e-05
  84    0.00012629035793343
  85     0.001107758178148
  86    -0.00010730447097535
  87    0.00012634760231367
  88    -0.00025866260891836
  89    -0.00042267188328538
  90    -0.00048019258180197
  91    -0.00041858407840923
  92    -1.4054473342901e-05
  93    4.432534102662e-05
  94    8.5819694125444e-06
  95    3.2044722447396e-06
  96    6.643922220241e-06
  97    8.2094691512704e-05
  98    0.00036205674684424
  99    -0.00012175096635549
 100    -0.00027306548353668
 101    5.0716602600861e-05
 102    6.0685877981094e-06
 103    -0.00093655391132961
 104    -0.00036763543072396
 105    -0.00031561551330589
 106    0.00039104807333479
 107    0.0025005313858961
 108    -0.0012132743057583
 109    -0.0032156861828538
 110    3.5551356277261e-05
 111    7.9149573829666e-05
 112    -2.671761730632e-05
 113    -5.8729454786457e-05
 114    3.3086968080353e-05
 115    7.8083815623185e-05
 116    -0.0001851515217473
 117    -0.0022258436137398
 118    0.00011781604254151
 119    -0.0003365319711357
 120    2.5063295181208e-05
 121    0.00051515853959426
 122    -0.0002058130049452
 123    -0.0016392815201968
 124    1.1648908377541e-05
 125    3.4393719562478e-05
 126    -6.4108755790625e-05
 127    1.2506575180295e-05
 128    2.9637896760095e-05
 129    2.710175985213e-05
 130    0.00065420077927861
 131    -0.012168373761181
 132    -0.00010808219378788
 133    -9.9529768530617e-05
 134    -0.00057718015107653
 135    0.0017428894456455
 136    -0.0012621277710704
 137     0.013089766664536
 138    -0.00040662164873418
 139    9.3402728734238e-05
 140    8.8642035327437e-05
 141    3.9930200702963e-05
 142    5.7513150267465e-05
 143    8.9032154587383e-05
 144    -8.8274268967084e-05
 145    -0.0024146310350984
 146    4.8169217900582e-06
 147    0.00013133764017225
 148    0.0005218163114207
 149    -0.0029130073340302
 150    0.0015979242082584
 151    -0.0020701648815195
 152    9.4302410660788e-05
 153    -3.0203996752421e-05
 154    -4.3350084447957e-05
 155    -5.6849333188604e-05
 156    5.689282317946e-05
 157    3.547716613676e-05
 158    0.00012816169018892
 159    -0.0016439552845888
 160    6.4809990035156e-05
 161    1.6114414832376e-05
 162    -2.7298779890271e-07
 163    0.00012485361364614
 164    0.00091922137442265
 165    0.00028677839529501
 166    2.9729512080135e-05
 167    -9.4005722045974e-06
 168    5.5580584871087e-06
 169    5.3125244037355e-05
 170    -7.6909630086771e-06
 171    1.2112928145176e-05
 172    -0.00023287888147806
 173    0.00025195529103578
 174    -3.9695778731088e-06
 175    2.804977945744e-05
 176    0.0002951051536986
 177    0.00039334703657943
 178    -0.00073808419551773
 179    -9.132733659046e-05
 180    5.4077804712917e-06
 181    6.145140748976e-05
 182    2.1243357876397e-05
 183    3.1685307413342e-05
 184    -8.2184367588883e-06
 185    -1.5709832909002e-05
 186    4.1214880117826e-05
 187    0.0017707545285243
 188    1.3900100731596e-05
 189    -5.6641590925807e-05
 190    -0.00031238174363226
 191    -0.0010341253616962
 192    -0.00040065320507554
 193    -0.00055596152846726
 194    2.0446748286002e-05
 195    4.5102804759165e-05
 196    2.4759571149161e-05
 197    -7.037327716086e-06
 198    2.5306359402472e-05
 199    6.8236645428388e-06
 200    0.00035607280721848
 201    -0.0001434111137259
 202    -0.00053525852726255
 203    0.00014195157721379
 204    0.00063840365320261
 205    -0.00010243589839851
 206    2.4468733509595e-05
 207    0.0001342720400917
 208    -0.0010060801633979
 209    8.6981479684093e-05
 210    0.00025024597298687
 211    3.3110235456946e-05
 212    -8.0057021776842e-05
 213    2.4788512190082e-05
 214    -0.00015689110877871
 215    -2.767707098272e-05
 216    -0.00061923003148815
 217    4.5165950273739e-05
 218    0.00040572313855073
 219    -7.1753217991445e-06
 220    -0.00044422890665963
 221    0.0011407909993951
 222    -0.0027772454064553
 223     0.025380839017442
 224    -0.0015565647072914
 225    -0.00044464421998986
 226    0.0029809379493448
 227      0.01752975834624
 228    0.0027721939461807
 229    0.0091286175675183
 230    0.00017420900365891
 231    -0.00016258381693509
 232    -0.00015688970771511
 233    0.00018640968886274
 234    0.00017525391682244
 235    -0.0080588536309509
 236      0.04199831747828
 237     0.019896609897544
 238    0.0070601501614828
 239     0.010886036754879
 240    -0.047513654546013
 241    0.0078730292040331
 242     0.007772401533887
 243    -0.031140487585485
 244    0.0063832794014727
 245    0.0019106767896096
 246    -0.0018582532480874
 247    0.00089761984309977
 248    0.00023664621701931
 249    0.00090493653321343
 250    0.0087438671100306
 251    0.0011944654286972
 252      0.29242769695838
 253       0.1864753545769
 254     0.078216786542775
 255     0.049493124538437
 256     -0.14718930923503
 257    -0.012921545380352
 258    0.0054279480979167
 259    -0.047972429646802
 260    0.0035015878790584
 261    -0.0049256332190954
 262    -0.0046251055462613
 263    0.0071301025503999
 264    0.0056408929597371
 265     0.011531870661157
 266    0.0015916341170943
 267     0.062951215751144
 268    -0.0052602357995846
 269    0.0009111215204807
 270     0.038336913777698
 271      0.01775354817149
 272    -0.0093645373719084
 273    -0.0050729447305015
 274     0.017466409711534
 275    -0.0036745734318199
 276    0.0048042370973319
 277    0.00042486489908925
 278    0.00045131899686281
 279    -0.00087422503156111
 280    -0.0011411129109409
 281    -0.00013060615396117
 282    -0.00024007791327619
 283    -0.0016882818287835
 284    0.0077948208414287
 285    0.0074571591202788