[Molden Format]
made by pyscf v[2.0.1]
[Atoms] (AU)
C   1   6     0.69100024066471     0.64692934207205    -3.48223131169301
H   2   1     2.68052439830868     1.13355088658700    -3.25784032593313
C   3   6    -0.36286361513219     0.85440132524594    -5.97030179418974
H   4   1    -2.35448549047279     0.36322488579172    -6.17995817793143
C   5   6     0.93697958957450     1.61209284601821    -8.05828437677121
H   6   1     0.73648971111668     3.55370010139060    -8.71472010856714
C   7   6     2.58127687438623    -0.01872844577485    -9.47001807350619
H   8   1     2.76404479428938    -1.95840164828389    -8.78885291415754
H   9   1     1.55630230933075    -1.92953025305990    12.99630010416247
C   10   6     0.75233899775814    -2.21270439606481    11.10705728102219
H   11   1    -0.43433408177274    -3.90944857546550    11.22216085340412
C   12   6     2.86362581178706    -2.63237380607947     9.17926416456045
H   13   1     4.39038949912609    -1.24955421540245     9.49899813497433
H   14   1     3.74629220191363    -4.48798724300892     9.47414880959024
C   15   6     2.02478325613682    -2.42177285709634     6.44560829588644
C   16   6     3.88048732735477    -3.58795445234514     4.61402886975252
C   17   6    -0.18412382258602    -1.30464291234259     5.76021113872346
C   18   6    -2.10044360464350    -0.26837831858460     7.71610340967100
C   19   6    -3.08956938670431     2.35282328359417     6.88693925039594
C   20   6    -4.37372924086464    -2.09766595989678     7.93610724222001
C   21   6    -0.83850430601230     0.06372213486173    10.33002307638377
H   22   1     0.38411922151109     1.74281358582432    10.27380136542181
H   23   1    -2.30980003007874     0.45460143924521    11.73986301809809
H   24   1     4.58527064644668    -5.38706904487420     5.36778158031719
H   25   1     5.54944938085014    -2.37631462192748     4.35398898413318
H   26   1     3.06633019150423    -3.94118377050688     2.75255466040884
H   27   1    -4.17727778763735     2.26573369139522     5.12914900961283
H   28   1    -1.52662344944051     3.68001877445626     6.59540397144508
H   29   1    -4.32916174397830     3.13643051467482     8.35225460090378
H   30   1    -5.32329548508442    -2.36691813602939     6.11583672749896
H   31   1    -5.77989366602257    -1.33896741843465     9.25748940450990
H   32   1    -3.79310905208926    -3.96389819310853     8.61386170102686
C   33   6    -1.01100794811226    -1.06331657314144     3.11929490449947
C   34   6     0.37686231036534    -0.33275864505552     1.09165013605873
H   35   1    -3.01671213906703    -1.40297922279997     2.77827895090944
C   36   6    -0.64382707979370    -0.11591880174385    -1.42063131251064
H   37   1     2.35569259782137     0.17174499283897     1.33641070251401
H   38   1    -2.63317482980319    -0.60229203511219    -1.66119700387645
C   39   6     3.90960344721415     0.65123442372143   -11.55890098643101
C   40   6     5.53597339482346    -1.15257329589011   -12.86589030877460
H   41   1     3.81237322709460     2.55237110239842   -12.33607146621226
O   42   8     6.77935136485374    -0.67974925370394   -14.75037240649433
H   43   1     5.57867975922019    -3.07543379045103   -12.00509846248917
[GTO]
1 0
 s    6 1.00
             3047.5249  0.0018347001629433
             457.36951    0.01403730124668
             103.94869   0.068842606114048
             29.210155    0.23218442062076
              9.286663    0.46794134155879
              3.163927    0.36231203217765
 s    3 1.00
             7.8682724   -0.11933240861517
             1.8812885   -0.16085421161283
             0.5442493     1.1434564825515
 s    1 1.00
             0.1687144                   1
 p    3 1.00
             7.8682724   0.068999095584993
             1.8812885    0.31642397975315
             0.5442493    0.74430825237435
 p    1 1.00
             0.1687144                   1
 d    1 1.00
                   0.8                   1

2 0
 s    3 1.00
             18.731137    0.03349459952309
             2.8253937    0.23472694665786
             0.6401217    0.81375731841339
 s    1 1.00
             0.1612778                   1

3 0
 s    6 1.00
             3047.5249  0.0018347001629433
             457.36951    0.01403730124668
             103.94869   0.068842606114048
             29.210155    0.23218442062076
              9.286663    0.46794134155879
              3.163927    0.36231203217765
 s    3 1.00
             7.8682724   -0.11933240861517
             1.8812885   -0.16085421161283
             0.5442493     1.1434564825515
 s    1 1.00
             0.1687144                   1
 p    3 1.00
             7.8682724   0.068999095584993
             1.8812885    0.31642397975315
             0.5442493    0.74430825237435
 p    1 1.00
             0.1687144                   1
 d    1 1.00
                   0.8                   1

4 0
 s    3 1.00
             18.731137    0.03349459952309
             2.8253937    0.23472694665786
             0.6401217    0.81375731841339
 s    1 1.00
             0.1612778                   1

5 0
 s    6 1.00
             3047.5249  0.0018347001629433
             457.36951    0.01403730124668
             103.94869   0.068842606114048
             29.210155    0.23218442062076
              9.286663    0.46794134155879
              3.163927    0.36231203217765
 s    3 1.00
             7.8682724   -0.11933240861517
             1.8812885   -0.16085421161283
             0.5442493     1.1434564825515
 s    1 1.00
             0.1687144                   1
 p    3 1.00
             7.8682724   0.068999095584993
             1.8812885    0.31642397975315
             0.5442493    0.74430825237435
 p    1 1.00
             0.1687144                   1
 d    1 1.00
                   0.8                   1

6 0
 s    3 1.00
             18.731137    0.03349459952309
             2.8253937    0.23472694665786
             0.6401217    0.81375731841339
 s    1 1.00
             0.1612778                   1

7 0
 s    6 1.00
             3047.5249  0.0018347001629433
             457.36951    0.01403730124668
             103.94869   0.068842606114048
             29.210155    0.23218442062076
              9.286663    0.46794134155879
              3.163927    0.36231203217765
 s    3 1.00
             7.8682724   -0.11933240861517
             1.8812885   -0.16085421161283
             0.5442493     1.1434564825515
 s    1 1.00
             0.1687144                   1
 p    3 1.00
             7.8682724   0.068999095584993
             1.8812885    0.31642397975315
             0.5442493    0.74430825237435
 p    1 1.00
             0.1687144                   1
 d    1 1.00
                   0.8                   1

8 0
 s    3 1.00
             18.731137    0.03349459952309
             2.8253937    0.23472694665786
             0.6401217    0.81375731841339
 s    1 1.00
             0.1612778                   1

9 0
 s    3 1.00
             18.731137    0.03349459952309
             2.8253937    0.23472694665786
             0.6401217    0.81375731841339
 s    1 1.00
             0.1612778                   1

10 0
 s    6 1.00
             3047.5249  0.0018347001629433
             457.36951    0.01403730124668
             103.94869   0.068842606114048
             29.210155    0.23218442062076
              9.286663    0.46794134155879
              3.163927    0.36231203217765
 s    3 1.00
             7.8682724   -0.11933240861517
             1.8812885   -0.16085421161283
             0.5442493     1.1434564825515
 s    1 1.00
             0.1687144                   1
 p    3 1.00
             7.8682724   0.068999095584993
             1.8812885    0.31642397975315
             0.5442493    0.74430825237435
 p    1 1.00
             0.1687144                   1
 d    1 1.00
                   0.8                   1

11 0
 s    3 1.00
             18.731137    0.03349459952309
             2.8253937    0.23472694665786
             0.6401217    0.81375731841339
 s    1 1.00
             0.1612778                   1

12 0
 s    6 1.00
             3047.5249  0.0018347001629433
             457.36951    0.01403730124668
             103.94869   0.068842606114048
             29.210155    0.23218442062076
              9.286663    0.46794134155879
              3.163927    0.36231203217765
 s    3 1.00
             7.8682724   -0.11933240861517
             1.8812885   -0.16085421161283
             0.5442493     1.1434564825515
 s    1 1.00
             0.1687144                   1
 p    3 1.00
             7.8682724   0.068999095584993
             1.8812885    0.31642397975315
             0.5442493    0.74430825237435
 p    1 1.00
             0.1687144                   1
 d    1 1.00
                   0.8                   1

13 0
 s    3 1.00
             18.731137    0.03349459952309
             2.8253937    0.23472694665786
             0.6401217    0.81375731841339
 s    1 1.00
             0.1612778                   1

14 0
 s    3 1.00
             18.731137    0.03349459952309
             2.8253937    0.23472694665786
             0.6401217    0.81375731841339
 s    1 1.00
             0.1612778                   1

15 0
 s    6 1.00
             3047.5249  0.0018347001629433
             457.36951    0.01403730124668
             103.94869   0.068842606114048
             29.210155    0.23218442062076
              9.286663    0.46794134155879
              3.163927    0.36231203217765
 s    3 1.00
             7.8682724   -0.11933240861517
             1.8812885   -0.16085421161283
             0.5442493     1.1434564825515
 s    1 1.00
             0.1687144                   1
 p    3 1.00
             7.8682724   0.068999095584993
             1.8812885    0.31642397975315
             0.5442493    0.74430825237435
 p    1 1.00
             0.1687144                   1
 d    1 1.00
                   0.8                   1

16 0
 s    6 1.00
             3047.5249  0.0018347001629433
             457.36951    0.01403730124668
             103.94869   0.068842606114048
             29.210155    0.23218442062076
              9.286663    0.46794134155879
              3.163927    0.36231203217765
 s    3 1.00
             7.8682724   -0.11933240861517
             1.8812885   -0.16085421161283
             0.5442493     1.1434564825515
 s    1 1.00
             0.1687144                   1
 p    3 1.00
             7.8682724   0.068999095584993
             1.8812885    0.31642397975315
             0.5442493    0.74430825237435
 p    1 1.00
             0.1687144                   1
 d    1 1.00
                   0.8                   1

17 0
 s    6 1.00
             3047.5249  0.0018347001629433
             457.36951    0.01403730124668
             103.94869   0.068842606114048
             29.210155    0.23218442062076
              9.286663    0.46794134155879
              3.163927    0.36231203217765
 s    3 1.00
             7.8682724   -0.11933240861517
             1.8812885   -0.16085421161283
             0.5442493     1.1434564825515
 s    1 1.00
             0.1687144                   1
 p    3 1.00
             7.8682724   0.068999095584993
             1.8812885    0.31642397975315
             0.5442493    0.74430825237435
 p    1 1.00
             0.1687144                   1
 d    1 1.00
                   0.8                   1

18 0
 s    6 1.00
             3047.5249  0.0018347001629433
             457.36951    0.01403730124668
             103.94869   0.068842606114048
             29.210155    0.23218442062076
              9.286663    0.46794134155879
              3.163927    0.36231203217765
 s    3 1.00
             7.8682724   -0.11933240861517
             1.8812885   -0.16085421161283
             0.5442493     1.1434564825515
 s    1 1.00
             0.1687144                   1
 p    3 1.00
             7.8682724   0.068999095584993
             1.8812885    0.31642397975315
             0.5442493    0.74430825237435
 p    1 1.00
             0.1687144                   1
 d    1 1.00
                   0.8                   1

19 0
 s    6 1.00
             3047.5249  0.0018347001629433
             457.36951    0.01403730124668
             103.94869   0.068842606114048
             29.210155    0.23218442062076
              9.286663    0.46794134155879
              3.163927    0.36231203217765
 s    3 1.00
             7.8682724   -0.11933240861517
             1.8812885   -0.16085421161283
             0.5442493     1.1434564825515
 s    1 1.00
             0.1687144                   1
 p    3 1.00
             7.8682724   0.068999095584993
             1.8812885    0.31642397975315
             0.5442493    0.74430825237435
 p    1 1.00
             0.1687144                   1
 d    1 1.00
                   0.8                   1

20 0
 s    6 1.00
             3047.5249  0.0018347001629433
             457.36951    0.01403730124668
             103.94869   0.068842606114048
             29.210155    0.23218442062076
              9.286663    0.46794134155879
              3.163927    0.36231203217765
 s    3 1.00
             7.8682724   -0.11933240861517
             1.8812885   -0.16085421161283
             0.5442493     1.1434564825515
 s    1 1.00
             0.1687144                   1
 p    3 1.00
             7.8682724   0.068999095584993
             1.8812885    0.31642397975315
             0.5442493    0.74430825237435
 p    1 1.00
             0.1687144                   1
 d    1 1.00
                   0.8                   1

21 0
 s    6 1.00
             3047.5249  0.0018347001629433
             457.36951    0.01403730124668
             103.94869   0.068842606114048
             29.210155    0.23218442062076
              9.286663    0.46794134155879
              3.163927    0.36231203217765
 s    3 1.00
             7.8682724   -0.11933240861517
             1.8812885   -0.16085421161283
             0.5442493     1.1434564825515
 s    1 1.00
             0.1687144                   1
 p    3 1.00
             7.8682724   0.068999095584993
             1.8812885    0.31642397975315
             0.5442493    0.74430825237435
 p    1 1.00
             0.1687144                   1
 d    1 1.00
                   0.8                   1

22 0
 s    3 1.00
             18.731137    0.03349459952309
             2.8253937    0.23472694665786
             0.6401217    0.81375731841339
 s    1 1.00
             0.1612778                   1

23 0
 s    3 1.00
             18.731137    0.03349459952309
             2.8253937    0.23472694665786
             0.6401217    0.81375731841339
 s    1 1.00
             0.1612778                   1

24 0
 s    3 1.00
             18.731137    0.03349459952309
             2.8253937    0.23472694665786
             0.6401217    0.81375731841339
 s    1 1.00
             0.1612778                   1

25 0
 s    3 1.00
             18.731137    0.03349459952309
             2.8253937    0.23472694665786
             0.6401217    0.81375731841339
 s    1 1.00
             0.1612778                   1

26 0
 s    3 1.00
             18.731137    0.03349459952309
             2.8253937    0.23472694665786
             0.6401217    0.81375731841339
 s    1 1.00
             0.1612778                   1

27 0
 s    3 1.00
             18.731137    0.03349459952309
             2.8253937    0.23472694665786
             0.6401217    0.81375731841339
 s    1 1.00
             0.1612778                   1

28 0
 s    3 1.00
             18.731137    0.03349459952309
             2.8253937    0.23472694665786
             0.6401217    0.81375731841339
 s    1 1.00
             0.1612778                   1

29 0
 s    3 1.00
             18.731137    0.03349459952309
             2.8253937    0.23472694665786
             0.6401217    0.81375731841339
 s    1 1.00
             0.1612778                   1

30 0
 s    3 1.00
             18.731137    0.03349459952309
             2.8253937    0.23472694665786
             0.6401217    0.81375731841339
 s    1 1.00
             0.1612778                   1

31 0
 s    3 1.00
             18.731137    0.03349459952309
             2.8253937    0.23472694665786
             0.6401217    0.81375731841339
 s    1 1.00
             0.1612778                   1

32 0
 s    3 1.00
             18.731137    0.03349459952309
             2.8253937    0.23472694665786
             0.6401217    0.81375731841339
 s    1 1.00
             0.1612778                   1

33 0
 s    6 1.00
             3047.5249  0.0018347001629433
             457.36951    0.01403730124668
             103.94869   0.068842606114048
             29.210155    0.23218442062076
              9.286663    0.46794134155879
              3.163927    0.36231203217765
 s    3 1.00
             7.8682724   -0.11933240861517
             1.8812885   -0.16085421161283
             0.5442493     1.1434564825515
 s    1 1.00
             0.1687144                   1
 p    3 1.00
             7.8682724   0.068999095584993
             1.8812885    0.31642397975315
             0.5442493    0.74430825237435
 p    1 1.00
             0.1687144                   1
 d    1 1.00
                   0.8                   1

34 0
 s    6 1.00
             3047.5249  0.0018347001629433
             457.36951    0.01403730124668
             103.94869   0.068842606114048
             29.210155    0.23218442062076
              9.286663    0.46794134155879
              3.163927    0.36231203217765
 s    3 1.00
             7.8682724   -0.11933240861517
             1.8812885   -0.16085421161283
             0.5442493     1.1434564825515
 s    1 1.00
             0.1687144                   1
 p    3 1.00
             7.8682724   0.068999095584993
             1.8812885    0.31642397975315
             0.5442493    0.74430825237435
 p    1 1.00
             0.1687144                   1
 d    1 1.00
                   0.8                   1

35 0
 s    3 1.00
             18.731137    0.03349459952309
             2.8253937    0.23472694665786
             0.6401217    0.81375731841339
 s    1 1.00
             0.1612778                   1

36 0
 s    6 1.00
             3047.5249  0.0018347001629433
             457.36951    0.01403730124668
             103.94869   0.068842606114048
             29.210155    0.23218442062076
              9.286663    0.46794134155879
              3.163927    0.36231203217765
 s    3 1.00
             7.8682724   -0.11933240861517
             1.8812885   -0.16085421161283
             0.5442493     1.1434564825515
 s    1 1.00
             0.1687144                   1
 p    3 1.00
             7.8682724   0.068999095584993
             1.8812885    0.31642397975315
             0.5442493    0.74430825237435
 p    1 1.00
             0.1687144                   1
 d    1 1.00
                   0.8                   1

37 0
 s    3 1.00
             18.731137    0.03349459952309
             2.8253937    0.23472694665786
             0.6401217    0.81375731841339
 s    1 1.00
             0.1612778                   1

38 0
 s    3 1.00
             18.731137    0.03349459952309
             2.8253937    0.23472694665786
             0.6401217    0.81375731841339
 s    1 1.00
             0.1612778                   1

39 0
 s    6 1.00
             3047.5249  0.0018347001629433
             457.36951    0.01403730124668
             103.94869   0.068842606114048
             29.210155    0.23218442062076
              9.286663    0.46794134155879
              3.163927    0.36231203217765
 s    3 1.00
             7.8682724   -0.11933240861517
             1.8812885   -0.16085421161283
             0.5442493     1.1434564825515
 s    1 1.00
             0.1687144                   1
 p    3 1.00
             7.8682724   0.068999095584993
             1.8812885    0.31642397975315
             0.5442493    0.74430825237435
 p    1 1.00
             0.1687144                   1
 d    1 1.00
                   0.8                   1

40 0
 s    6 1.00
             3047.5249  0.0018347001629433
             457.36951    0.01403730124668
             103.94869   0.068842606114048
             29.210155    0.23218442062076
              9.286663    0.46794134155879
              3.163927    0.36231203217765
 s    3 1.00
             7.8682724   -0.11933240861517
             1.8812885   -0.16085421161283
             0.5442493     1.1434564825515
 s    1 1.00
             0.1687144                   1
 p    3 1.00
             7.8682724   0.068999095584993
             1.8812885    0.31642397975315
             0.5442493    0.74430825237435
 p    1 1.00
             0.1687144                   1
 d    1 1.00
                   0.8                   1

41 0
 s    3 1.00
             18.731137    0.03349459952309
             2.8253937    0.23472694665786
             0.6401217    0.81375731841339
 s    1 1.00
             0.1612778                   1

42 0
 s    6 1.00
             5484.6717   0.001831099805527
             825.23495   0.013950098518422
             188.04696    0.06844509273075
               52.9645    0.23271427528445
              16.89757    0.47019295006289
             5.7996353    0.35852086192309
 s    3 1.00
             15.539616   -0.11077750382508
             3.5999336   -0.14802630511126
             1.0137618     1.1307670390447
 s    1 1.00
             0.2700058                   1
 p    3 1.00
             15.539616   0.070874299543311
             3.5999336    0.33975279781076
             1.0137618    0.72715859531445
 p    1 1.00
             0.2700058                   1
 d    1 1.00
                   0.8                   1

43 0
 s    3 1.00
             18.731137    0.03349459952309
             2.8253937    0.23472694665786
             0.6401217    0.81375731841339
 s    1 1.00
             0.1612778                   1

[5d]
[7f]
[9g]

[MO]
 Sym= A
 Ene=               0
 Spin= Alpha
 Occup=    1.00000
   1    -1.8655777046367e-07
   2    1.0714576799436e-05
   3    0.00013427176697111
   4    4.5114067053337e-06
   5     8.02130436007e-06
   6    -1.125950916579e-05
   7    -6.6146388339387e-05
   8    -0.00016325523737774
   9    0.00034386568339385
  10    1.4090175187884e-06
  11    -9.3732438490752e-06
  12    1.8978254362399e-07
  13    -1.4348550925002e-05
  14    8.2411733830057e-06
  15    1.2976249525369e-05
  16    -9.1712390302062e-06
  17    -9.5293559678939e-06
  18    -0.00015201052681614
  19    -0.00048429579838906
  20    -5.5071713994576e-05
  21    1.4601051104838e-05
  22    6.1608427890866e-05
  23    -0.00025536151218312
  24    0.00014066100349092
  25    0.00051895399861497
  26    -2.2967690110034e-05
  27    2.7191511998251e-05
  28    -1.8589371124288e-05
  29    -4.3119176473798e-05
  30    -8.3742053388755e-06
  31    5.5656637040468e-06
  32    -6.0053974731447e-05
  33    -4.3238902179806e-05
  34    -0.00039194225191946
  35    0.0045453361376898
  36    7.5754430469371e-05
  37    -3.4087050739386e-06
  38    -0.00012920201101151
  39    0.00089896681205577
  40    -0.0019325486983149
  41    -0.00030130653222519
  42    5.7760326274453e-06
  43    -0.00012225473273582
  44    4.7509764445238e-05
  45    -3.0804672372547e-06
  46    -8.3466462156233e-05
  47    1.3556113148986e-05
  48    0.00029243682871558
  49    -3.4268804730122e-05
  50    -6.3719506524094e-05
  51    -0.0036813350590772
  52    -0.00020025826783699
  53    0.00023511624557538
  54    0.00015689786356138
  55    0.0024074337059864
  56    -0.0026001017037137
  57    -0.0019615636749409
  58    5.5759290505951e-05
  59    -1.8658660616531e-05
  60    -0.00020593412498571
  61    -5.4097892072094e-05
  62    0.00012630179152554
  63    -0.00027636494033602
  64    -6.0185735695353e-05
  65    1.1206574169543e-07
  66    1.3781366282346e-07
  67    1.8726089755869e-08
  68    6.4917866817393e-07
  69    -2.8055520767581e-06
  70    -1.3996952471604e-08
  71    2.3212077885316e-07
  72    -3.4573640970265e-07
  73    -8.4452867284098e-08
  74    -1.9263271934329e-06
  75    8.5350804005044e-08
  76    6.8018914112157e-08
  77    1.2191323534116e-07
  78    -3.4799739647953e-08
  79    -6.2916308561042e-08
  80    1.0963075552397e-07
  81    -1.4455580388914e-07
  82    -3.5619341089174e-07
  83    -1.5641210563262e-08
  84    4.1580023953091e-07
  85    1.5869064884052e-05
  86    -9.7112464701015e-07
  87    -1.8401630650417e-07
  88    -8.6273402175551e-07
  89    -3.4858236185406e-06
  90    4.5349181563211e-06
  91    -4.2658031045474e-06
  92    -1.8008971113838e-07
  93    2.4523382535906e-07
  94    -4.1544252271293e-07
  95    -1.0614881394351e-07
  96    1.4338137951688e-07
  97    -1.0477732075254e-06
  98    -1.422074843666e-06
  99    1.460596140326e-07
 100     1.34125001878e-06
 101    1.5342029498202e-08
 102    4.6767688637822e-07
 103    -8.1479165424331e-06
 104    4.3094709331395e-07
 105    2.309168783168e-06
 106    4.7831109198172e-07
 107    2.0076967474718e-05
 108    -1.7428771992003e-05
 109    -3.7970925436423e-05
 110    6.741456819296e-07
 111    6.7714752741533e-07
 112    -2.8451503058955e-07
 113    -2.4585922661361e-07
 114    4.7695787786899e-07
 115    4.1437550814309e-07
 116    4.9532888706969e-06
 117    -3.9233908771754e-05
 118    5.7858505029967e-07
 119    -9.0199714786067e-07
 120    -1.0757721087957e-06
 121    1.0117798184698e-05
 122    -2.9139075958316e-06
 123    -3.9073394941364e-06
 124    1.5075604701095e-07
 125    3.495384629616e-07
 126    1.0078595874195e-07
 127    -2.5025663187363e-07
 128    4.284254121727e-07
 129    1.1098810941409e-06
 130    9.4166653702231e-06
 131    -6.204458968826e-05
 132    5.2272796716785e-07
 133    6.6509124558461e-07
 134    -3.5096840769282e-06
 135    2.0511101806104e-05
 136    3.6821209226755e-06
 137    9.5538583698045e-05
 138    -2.7772944290868e-06
 139    -1.9262761726886e-06
 140    -1.0701867840277e-07
 141    -4.5615485564892e-07
 142    1.3065466591805e-07
 143    5.1175622473099e-07
 144    5.3202887414349e-06
 145    -2.86632900502e-05
 146    -7.7043628310471e-08
 147    -6.8550674192206e-07
 148    -6.0135582795773e-07
 149    -1.6179468533581e-05
 150    6.8400531137054e-06
 151    4.375934868958e-06
 152    9.8067459690829e-07
 153    4.6021663734078e-07
 154    7.2580273323409e-08
 155    -7.8975621306102e-07
 156    9.2997732985308e-07
 157    -9.9988589151518e-08
 158    -8.1066624128924e-07
 159    -1.1565072458049e-07
 160    -8.246986744203e-07
 161    1.7175571443931e-07
 162    9.634362665747e-08
 163    6.9987216598814e-06
 164    -2.9858352109792e-07
 165    -9.0750643278457e-07
 166    -5.5859819617807e-07
 167    2.8289251505086e-07
 168    -3.4510082182342e-08
 169    1.3934288658799e-07
 170    -3.7264361133276e-07
 171    -9.575628049354e-08
 172    6.0754791297044e-07
 173    1.3695922698601e-06
 174    8.3230942028678e-07
 175    2.6755436082887e-07
 176    -9.0165560123546e-07
 177    8.8773032482676e-07
 178    -2.1893057537442e-06
 179    1.4417528903847e-06
 180    -1.4348409633545e-07
 181    -1.7966007117795e-07
 182    -9.7981731393029e-08
 183    4.5184911491128e-07
 184    -1.564461215519e-07
 185    3.1842088673186e-07
 186    2.9947375842299e-06
 187    -4.237878057327e-07
 188    2.0396170945102e-07
 189    -1.2118973209448e-07
 190    -1.0763371157089e-06
 191    -2.0501409784631e-06
 192    -8.4698198519722e-07
 193    5.1371535664513e-06
 194    -2.3292914089243e-07
 195    5.3678435958447e-08
 196    -2.0815868946706e-07
 197    -1.4470733544392e-07
 198    1.2076540155674e-07
 199    6.5001361603357e-07
 200    1.0594912285586e-06
 201    1.1412758528668e-07
 202    -3.2230936123203e-06
 203    1.7402249316593e-06
 204    1.3951043401272e-06
 205    2.6275572027322e-07
 206    2.0369752590925e-06
 207    -6.3255722134332e-07
 208    9.9282731381486e-06
 209    -1.2056807945782e-06
 210    4.7757597183773e-06
 211    -5.9030451123158e-07
 212    -2.9935597980569e-06
 213    3.3924025479698e-07
 214    2.1787328001678e-06
 215    3.8252536408922e-07
 216    -4.4377617550383e-07
 217    -2.7614302528115e-07
 218    -6.5532284319926e-07
 219    -3.426699122312e-07
 220    -1.4819749532325e-06
 221    -1.5061738429132e-07
 222    8.6528526954313e-06
 223    3.2613696517872e-05
 224    7.1208182694376e-07
 225    2.1636168059159e-06
 226    -6.2146778652307e-06
 227    -1.2437675550162e-06
 228    -2.8792184654649e-05
 229    9.9530891887949e-05
 230    1.5026786769322e-06
 231    4.5123799135797e-06
 232    1.6866247437682e-06
 233    -2.0060377433549e-06
 234    -2.810772992319e-06
 235    -1.1358790574488e-06
 236    1.7517254556743e-06
 237    -4.5358226217062e-05
 238    -6.4602322928543e-06
 239    -4.82709670899e-06
 240    2.3880637495979e-06
 241    3.0443040515307e-05
 242    9.803848903607e-06
 243    8.2741427438582e-05
 244    -1.0100562184949e-06
 245    -7.0133910137411e-06
 246    -1.0928657573224e-06
 247    -3.2812941985745e-06
 248    -9.8072830053709e-07
 249    4.6653526139268e-06
 250    -1.1575199188861e-05
 251    1.429439505276e-05
 252    3.3950638123703e-05
 253    -0.00030267796677348
 254    -3.5008589110192e-06
 255    6.8872752526884e-06
 256    -1.4821122863343e-05
 257    -0.00012416288608712
 258    -8.9636011809212e-05
 259    0.0002807284651923
 260    -3.6731088976775e-06
 261    1.2964623377742e-05
 262    4.7305085193193e-06
 263    -9.3272414003965e-06
 264    -3.7801409656656e-06
 265    -3.8795544671395e-06
 266    -3.4629102336235e-05
 267    9.675009945623e-06
 268    -3.6415588750594e-05
 269    -0.00025829758844385
 270    -8.6116410977941e-05
 271    -0.003422810331304
 272    -0.00027765473161973
 273    0.00041770375867674
 274    0.00019598195102671
 275    -0.0024182287308626
 276    -0.00058302618243045
 277    0.0035202493263336
 278    -0.00016127307637653
 279    0.00025797223890842