[Molden Format]
made by pyscf v[2.0.1]
[Atoms] (AU)
C   1   6     0.69100024066471     0.64692934207205    -3.48223131169301
H   2   1     2.68052439830868     1.13355088658700    -3.25784032593313
C   3   6    -0.36286361513219     0.85440132524594    -5.97030179418974
H   4   1    -2.35448549047279     0.36322488579172    -6.17995817793143
C   5   6     0.93697958957450     1.61209284601821    -8.05828437677121
H   6   1     0.14022243979667     3.08603065646166    -9.25562650474843
C   7   6     3.33155915073320     0.56926267114995    -8.78956929307971
H   8   1     4.10661901770469    -0.90506612570738    -7.57081623325171
H   9   1     1.55630230933075    -1.92953025305990    12.99630010416247
C   10   6     0.75233899775814    -2.21270439606481    11.10705728102219
H   11   1    -0.43433408177274    -3.90944857546550    11.22216085340412
C   12   6     2.86362581178706    -2.63237380607947     9.17926416456045
H   13   1     4.39038949912609    -1.24955421540245     9.49899813497433
H   14   1     3.74629220191363    -4.48798724300892     9.47414880959024
C   15   6     2.02478325613682    -2.42177285709634     6.44560829588644
C   16   6     3.88048732735477    -3.58795445234514     4.61402886975252
C   17   6    -0.18412382258602    -1.30464291234259     5.76021113872346
C   18   6    -2.10044360464350    -0.26837831858460     7.71610340967100
C   19   6    -3.08956938670431     2.35282328359417     6.88693925039594
C   20   6    -4.37372924086464    -2.09766595989678     7.93610724222001
C   21   6    -0.83850430601230     0.06372213486173    10.33002307638377
H   22   1     0.38411922151109     1.74281358582432    10.27380136542181
H   23   1    -2.30980003007874     0.45460143924521    11.73986301809809
H   24   1     4.58527064644668    -5.38706904487420     5.36778158031719
H   25   1     5.54944938085014    -2.37631462192748     4.35398898413318
H   26   1     3.06633019150423    -3.94118377050688     2.75255466040884
H   27   1    -4.17727778763735     2.26573369139522     5.12914900961283
H   28   1    -1.52662344944051     3.68001877445626     6.59540397144508
H   29   1    -4.32916174397830     3.13643051467482     8.35225460090378
H   30   1    -5.32329548508442    -2.36691813602939     6.11583672749896
H   31   1    -5.77989366602257    -1.33896741843465     9.25748940450990
H   32   1    -3.79310905208926    -3.96389819310853     8.61386170102686
C   33   6    -1.01100794811226    -1.06331657314144     3.11929490449947
C   34   6     0.37686231036534    -0.33275864505552     1.09165013605873
H   35   1    -3.01671213906703    -1.40297922279997     2.77827895090944
C   36   6    -0.64382707979370    -0.11591880174385    -1.42063131251064
H   37   1     2.35569259782137     0.17174499283897     1.33641070251401
H   38   1    -2.63317482980319    -0.60229203511219    -1.66119700387645
C   39   6     4.69106502259275     1.26188352336463   -10.85081981009206
C   40   6     7.11506387067225     0.08270412537969   -11.43459041306820
H   41   1     4.02727424636240     2.71762167762249   -12.14232148362751
O   42   8     8.43283181269616     0.61123359193353   -13.25254761350674
H   43   1     7.72125158488297    -1.39686243822724   -10.06214800755086
[GTO]
1 0
 s    6 1.00
             3047.5249  0.0018347001629433
             457.36951    0.01403730124668
             103.94869   0.068842606114048
             29.210155    0.23218442062076
              9.286663    0.46794134155879
              3.163927    0.36231203217765
 s    3 1.00
             7.8682724   -0.11933240861517
             1.8812885   -0.16085421161283
             0.5442493     1.1434564825515
 s    1 1.00
             0.1687144                   1
 p    3 1.00
             7.8682724   0.068999095584993
             1.8812885    0.31642397975315
             0.5442493    0.74430825237435
 p    1 1.00
             0.1687144                   1
 d    1 1.00
                   0.8                   1

2 0
 s    3 1.00
             18.731137    0.03349459952309
             2.8253937    0.23472694665786
             0.6401217    0.81375731841339
 s    1 1.00
             0.1612778                   1

3 0
 s    6 1.00
             3047.5249  0.0018347001629433
             457.36951    0.01403730124668
             103.94869   0.068842606114048
             29.210155    0.23218442062076
              9.286663    0.46794134155879
              3.163927    0.36231203217765
 s    3 1.00
             7.8682724   -0.11933240861517
             1.8812885   -0.16085421161283
             0.5442493     1.1434564825515
 s    1 1.00
             0.1687144                   1
 p    3 1.00
             7.8682724   0.068999095584993
             1.8812885    0.31642397975315
             0.5442493    0.74430825237435
 p    1 1.00
             0.1687144                   1
 d    1 1.00
                   0.8                   1

4 0
 s    3 1.00
             18.731137    0.03349459952309
             2.8253937    0.23472694665786
             0.6401217    0.81375731841339
 s    1 1.00
             0.1612778                   1

5 0
 s    6 1.00
             3047.5249  0.0018347001629433
             457.36951    0.01403730124668
             103.94869   0.068842606114048
             29.210155    0.23218442062076
              9.286663    0.46794134155879
              3.163927    0.36231203217765
 s    3 1.00
             7.8682724   -0.11933240861517
             1.8812885   -0.16085421161283
             0.5442493     1.1434564825515
 s    1 1.00
             0.1687144                   1
 p    3 1.00
             7.8682724   0.068999095584993
             1.8812885    0.31642397975315
             0.5442493    0.74430825237435
 p    1 1.00
             0.1687144                   1
 d    1 1.00
                   0.8                   1

6 0
 s    3 1.00
             18.731137    0.03349459952309
             2.8253937    0.23472694665786
             0.6401217    0.81375731841339
 s    1 1.00
             0.1612778                   1

7 0
 s    6 1.00
             3047.5249  0.0018347001629433
             457.36951    0.01403730124668
             103.94869   0.068842606114048
             29.210155    0.23218442062076
              9.286663    0.46794134155879
              3.163927    0.36231203217765
 s    3 1.00
             7.8682724   -0.11933240861517
             1.8812885   -0.16085421161283
             0.5442493     1.1434564825515
 s    1 1.00
             0.1687144                   1
 p    3 1.00
             7.8682724   0.068999095584993
             1.8812885    0.31642397975315
             0.5442493    0.74430825237435
 p    1 1.00
             0.1687144                   1
 d    1 1.00
                   0.8                   1

8 0
 s    3 1.00
             18.731137    0.03349459952309
             2.8253937    0.23472694665786
             0.6401217    0.81375731841339
 s    1 1.00
             0.1612778                   1

9 0
 s    3 1.00
             18.731137    0.03349459952309
             2.8253937    0.23472694665786
             0.6401217    0.81375731841339
 s    1 1.00
             0.1612778                   1

10 0
 s    6 1.00
             3047.5249  0.0018347001629433
             457.36951    0.01403730124668
             103.94869   0.068842606114048
             29.210155    0.23218442062076
              9.286663    0.46794134155879
              3.163927    0.36231203217765
 s    3 1.00
             7.8682724   -0.11933240861517
             1.8812885   -0.16085421161283
             0.5442493     1.1434564825515
 s    1 1.00
             0.1687144                   1
 p    3 1.00
             7.8682724   0.068999095584993
             1.8812885    0.31642397975315
             0.5442493    0.74430825237435
 p    1 1.00
             0.1687144                   1
 d    1 1.00
                   0.8                   1

11 0
 s    3 1.00
             18.731137    0.03349459952309
             2.8253937    0.23472694665786
             0.6401217    0.81375731841339
 s    1 1.00
             0.1612778                   1

12 0
 s    6 1.00
             3047.5249  0.0018347001629433
             457.36951    0.01403730124668
             103.94869   0.068842606114048
             29.210155    0.23218442062076
              9.286663    0.46794134155879
              3.163927    0.36231203217765
 s    3 1.00
             7.8682724   -0.11933240861517
             1.8812885   -0.16085421161283
             0.5442493     1.1434564825515
 s    1 1.00
             0.1687144                   1
 p    3 1.00
             7.8682724   0.068999095584993
             1.8812885    0.31642397975315
             0.5442493    0.74430825237435
 p    1 1.00
             0.1687144                   1
 d    1 1.00
                   0.8                   1

13 0
 s    3 1.00
             18.731137    0.03349459952309
             2.8253937    0.23472694665786
             0.6401217    0.81375731841339
 s    1 1.00
             0.1612778                   1

14 0
 s    3 1.00
             18.731137    0.03349459952309
             2.8253937    0.23472694665786
             0.6401217    0.81375731841339
 s    1 1.00
             0.1612778                   1

15 0
 s    6 1.00
             3047.5249  0.0018347001629433
             457.36951    0.01403730124668
             103.94869   0.068842606114048
             29.210155    0.23218442062076
              9.286663    0.46794134155879
              3.163927    0.36231203217765
 s    3 1.00
             7.8682724   -0.11933240861517
             1.8812885   -0.16085421161283
             0.5442493     1.1434564825515
 s    1 1.00
             0.1687144                   1
 p    3 1.00
             7.8682724   0.068999095584993
             1.8812885    0.31642397975315
             0.5442493    0.74430825237435
 p    1 1.00
             0.1687144                   1
 d    1 1.00
                   0.8                   1

16 0
 s    6 1.00
             3047.5249  0.0018347001629433
             457.36951    0.01403730124668
             103.94869   0.068842606114048
             29.210155    0.23218442062076
              9.286663    0.46794134155879
              3.163927    0.36231203217765
 s    3 1.00
             7.8682724   -0.11933240861517
             1.8812885   -0.16085421161283
             0.5442493     1.1434564825515
 s    1 1.00
             0.1687144                   1
 p    3 1.00
             7.8682724   0.068999095584993
             1.8812885    0.31642397975315
             0.5442493    0.74430825237435
 p    1 1.00
             0.1687144                   1
 d    1 1.00
                   0.8                   1

17 0
 s    6 1.00
             3047.5249  0.0018347001629433
             457.36951    0.01403730124668
             103.94869   0.068842606114048
             29.210155    0.23218442062076
              9.286663    0.46794134155879
              3.163927    0.36231203217765
 s    3 1.00
             7.8682724   -0.11933240861517
             1.8812885   -0.16085421161283
             0.5442493     1.1434564825515
 s    1 1.00
             0.1687144                   1
 p    3 1.00
             7.8682724   0.068999095584993
             1.8812885    0.31642397975315
             0.5442493    0.74430825237435
 p    1 1.00
             0.1687144                   1
 d    1 1.00
                   0.8                   1

18 0
 s    6 1.00
             3047.5249  0.0018347001629433
             457.36951    0.01403730124668
             103.94869   0.068842606114048
             29.210155    0.23218442062076
              9.286663    0.46794134155879
              3.163927    0.36231203217765
 s    3 1.00
             7.8682724   -0.11933240861517
             1.8812885   -0.16085421161283
             0.5442493     1.1434564825515
 s    1 1.00
             0.1687144                   1
 p    3 1.00
             7.8682724   0.068999095584993
             1.8812885    0.31642397975315
             0.5442493    0.74430825237435
 p    1 1.00
             0.1687144                   1
 d    1 1.00
                   0.8                   1

19 0
 s    6 1.00
             3047.5249  0.0018347001629433
             457.36951    0.01403730124668
             103.94869   0.068842606114048
             29.210155    0.23218442062076
              9.286663    0.46794134155879
              3.163927    0.36231203217765
 s    3 1.00
             7.8682724   -0.11933240861517
             1.8812885   -0.16085421161283
             0.5442493     1.1434564825515
 s    1 1.00
             0.1687144                   1
 p    3 1.00
             7.8682724   0.068999095584993
             1.8812885    0.31642397975315
             0.5442493    0.74430825237435
 p    1 1.00
             0.1687144                   1
 d    1 1.00
                   0.8                   1

20 0
 s    6 1.00
             3047.5249  0.0018347001629433
             457.36951    0.01403730124668
             103.94869   0.068842606114048
             29.210155    0.23218442062076
              9.286663    0.46794134155879
              3.163927    0.36231203217765
 s    3 1.00
             7.8682724   -0.11933240861517
             1.8812885   -0.16085421161283
             0.5442493     1.1434564825515
 s    1 1.00
             0.1687144                   1
 p    3 1.00
             7.8682724   0.068999095584993
             1.8812885    0.31642397975315
             0.5442493    0.74430825237435
 p    1 1.00
             0.1687144                   1
 d    1 1.00
                   0.8                   1

21 0
 s    6 1.00
             3047.5249  0.0018347001629433
             457.36951    0.01403730124668
             103.94869   0.068842606114048
             29.210155    0.23218442062076
              9.286663    0.46794134155879
              3.163927    0.36231203217765
 s    3 1.00
             7.8682724   -0.11933240861517
             1.8812885   -0.16085421161283
             0.5442493     1.1434564825515
 s    1 1.00
             0.1687144                   1
 p    3 1.00
             7.8682724   0.068999095584993
             1.8812885    0.31642397975315
             0.5442493    0.74430825237435
 p    1 1.00
             0.1687144                   1
 d    1 1.00
                   0.8                   1

22 0
 s    3 1.00
             18.731137    0.03349459952309
             2.8253937    0.23472694665786
             0.6401217    0.81375731841339
 s    1 1.00
             0.1612778                   1

23 0
 s    3 1.00
             18.731137    0.03349459952309
             2.8253937    0.23472694665786
             0.6401217    0.81375731841339
 s    1 1.00
             0.1612778                   1

24 0
 s    3 1.00
             18.731137    0.03349459952309
             2.8253937    0.23472694665786
             0.6401217    0.81375731841339
 s    1 1.00
             0.1612778                   1

25 0
 s    3 1.00
             18.731137    0.03349459952309
             2.8253937    0.23472694665786
             0.6401217    0.81375731841339
 s    1 1.00
             0.1612778                   1

26 0
 s    3 1.00
             18.731137    0.03349459952309
             2.8253937    0.23472694665786
             0.6401217    0.81375731841339
 s    1 1.00
             0.1612778                   1

27 0
 s    3 1.00
             18.731137    0.03349459952309
             2.8253937    0.23472694665786
             0.6401217    0.81375731841339
 s    1 1.00
             0.1612778                   1

28 0
 s    3 1.00
             18.731137    0.03349459952309
             2.8253937    0.23472694665786
             0.6401217    0.81375731841339
 s    1 1.00
             0.1612778                   1

29 0
 s    3 1.00
             18.731137    0.03349459952309
             2.8253937    0.23472694665786
             0.6401217    0.81375731841339
 s    1 1.00
             0.1612778                   1

30 0
 s    3 1.00
             18.731137    0.03349459952309
             2.8253937    0.23472694665786
             0.6401217    0.81375731841339
 s    1 1.00
             0.1612778                   1

31 0
 s    3 1.00
             18.731137    0.03349459952309
             2.8253937    0.23472694665786
             0.6401217    0.81375731841339
 s    1 1.00
             0.1612778                   1

32 0
 s    3 1.00
             18.731137    0.03349459952309
             2.8253937    0.23472694665786
             0.6401217    0.81375731841339
 s    1 1.00
             0.1612778                   1

33 0
 s    6 1.00
             3047.5249  0.0018347001629433
             457.36951    0.01403730124668
             103.94869   0.068842606114048
             29.210155    0.23218442062076
              9.286663    0.46794134155879
              3.163927    0.36231203217765
 s    3 1.00
             7.8682724   -0.11933240861517
             1.8812885   -0.16085421161283
             0.5442493     1.1434564825515
 s    1 1.00
             0.1687144                   1
 p    3 1.00
             7.8682724   0.068999095584993
             1.8812885    0.31642397975315
             0.5442493    0.74430825237435
 p    1 1.00
             0.1687144                   1
 d    1 1.00
                   0.8                   1

34 0
 s    6 1.00
             3047.5249  0.0018347001629433
             457.36951    0.01403730124668
             103.94869   0.068842606114048
             29.210155    0.23218442062076
              9.286663    0.46794134155879
              3.163927    0.36231203217765
 s    3 1.00
             7.8682724   -0.11933240861517
             1.8812885   -0.16085421161283
             0.5442493     1.1434564825515
 s    1 1.00
             0.1687144                   1
 p    3 1.00
             7.8682724   0.068999095584993
             1.8812885    0.31642397975315
             0.5442493    0.74430825237435
 p    1 1.00
             0.1687144                   1
 d    1 1.00
                   0.8                   1

35 0
 s    3 1.00
             18.731137    0.03349459952309
             2.8253937    0.23472694665786
             0.6401217    0.81375731841339
 s    1 1.00
             0.1612778                   1

36 0
 s    6 1.00
             3047.5249  0.0018347001629433
             457.36951    0.01403730124668
             103.94869   0.068842606114048
             29.210155    0.23218442062076
              9.286663    0.46794134155879
              3.163927    0.36231203217765
 s    3 1.00
             7.8682724   -0.11933240861517
             1.8812885   -0.16085421161283
             0.5442493     1.1434564825515
 s    1 1.00
             0.1687144                   1
 p    3 1.00
             7.8682724   0.068999095584993
             1.8812885    0.31642397975315
             0.5442493    0.74430825237435
 p    1 1.00
             0.1687144                   1
 d    1 1.00
                   0.8                   1

37 0
 s    3 1.00
             18.731137    0.03349459952309
             2.8253937    0.23472694665786
             0.6401217    0.81375731841339
 s    1 1.00
             0.1612778                   1

38 0
 s    3 1.00
             18.731137    0.03349459952309
             2.8253937    0.23472694665786
             0.6401217    0.81375731841339
 s    1 1.00
             0.1612778                   1

39 0
 s    6 1.00
             3047.5249  0.0018347001629433
             457.36951    0.01403730124668
             103.94869   0.068842606114048
             29.210155    0.23218442062076
              9.286663    0.46794134155879
              3.163927    0.36231203217765
 s    3 1.00
             7.8682724   -0.11933240861517
             1.8812885   -0.16085421161283
             0.5442493     1.1434564825515
 s    1 1.00
             0.1687144                   1
 p    3 1.00
             7.8682724   0.068999095584993
             1.8812885    0.31642397975315
             0.5442493    0.74430825237435
 p    1 1.00
             0.1687144                   1
 d    1 1.00
                   0.8                   1

40 0
 s    6 1.00
             3047.5249  0.0018347001629433
             457.36951    0.01403730124668
             103.94869   0.068842606114048
             29.210155    0.23218442062076
              9.286663    0.46794134155879
              3.163927    0.36231203217765
 s    3 1.00
             7.8682724   -0.11933240861517
             1.8812885   -0.16085421161283
             0.5442493     1.1434564825515
 s    1 1.00
             0.1687144                   1
 p    3 1.00
             7.8682724   0.068999095584993
             1.8812885    0.31642397975315
             0.5442493    0.74430825237435
 p    1 1.00
             0.1687144                   1
 d    1 1.00
                   0.8                   1

41 0
 s    3 1.00
             18.731137    0.03349459952309
             2.8253937    0.23472694665786
             0.6401217    0.81375731841339
 s    1 1.00
             0.1612778                   1

42 0
 s    6 1.00
             5484.6717   0.001831099805527
             825.23495   0.013950098518422
             188.04696    0.06844509273075
               52.9645    0.23271427528445
              16.89757    0.47019295006289
             5.7996353    0.35852086192309
 s    3 1.00
             15.539616   -0.11077750382508
             3.5999336   -0.14802630511126
             1.0137618     1.1307670390447
 s    1 1.00
             0.2700058                   1
 p    3 1.00
             15.539616   0.070874299543311
             3.5999336    0.33975279781076
             1.0137618    0.72715859531445
 p    1 1.00
             0.2700058                   1
 d    1 1.00
                   0.8                   1

43 0
 s    3 1.00
             18.731137    0.03349459952309
             2.8253937    0.23472694665786
             0.6401217    0.81375731841339
 s    1 1.00
             0.1612778                   1

[5d]
[7f]
[9g]

[MO]
 Sym= A
 Ene=               0
 Spin= Alpha
 Occup=    1.00000
   1    -6.270779820447e-06
   2    -4.4767867171214e-05
   3    0.00066032140326187
   4    -1.6275801229588e-05
   5    2.8448451870539e-05
   6    -1.4236005270192e-06
   7    -8.2559365041111e-05
   8    -0.00013715092787938
   9    -0.00023948251912626
  10    1.6496027645986e-05
  11    8.5274740186099e-06
  12    6.4289728812689e-06
  13    -6.2534027045765e-06
  14    5.1387285682408e-06
  15    -5.3311254541578e-06
  16    -1.715275314204e-05
  17    6.1189783600726e-06
  18    -3.3866388500202e-05
  19    -0.0012963240693431
  20    -4.6823419806951e-05
  21    -9.5906570214497e-06
  22    6.695855874895e-05
  23    -0.00080134195768976
  24    8.9376352874579e-05
  25    0.00011192999928792
  26    -3.203751193413e-05
  27    2.8689809331016e-05
  28    -1.9588156628114e-05
  29    -3.1556481035018e-05
  30    -2.5676255095989e-05
  31    -1.5805457235443e-05
  32    -0.00015445082324696
  33    -5.8672721721167e-05
  34    -0.0003682956681701
  35    0.0048516922712138
  36    0.00011302747683243
  37    2.1945793720512e-06
  38    -0.00010162602449409
  39    0.0018185289312767
  40    -0.0014910205066531
  41    0.00046080952442182
  42    -2.3579770184329e-05
  43    -9.3927046000962e-05
  44    -1.3615874432731e-05
  45    8.3897091175836e-05
  46    -9.1808788741842e-05
  47    2.7313757233887e-05
  48    0.00036001235102023
  49    -4.6221998933944e-05
  50    -0.00019956385183935
  51    -0.0040040173530845
  52    -0.00037156830045791
  53    0.00014068379830788
  54    0.00014906745631695
  55    0.0036373004426624
  56    -0.0017947729858109
  57    -0.00089158600815844
  58    0.0001392592047267
  59    -6.7478750805415e-06
  60    -0.00016170936860078
  61    -9.0925266926653e-05
  62    8.8300569882231e-05
  63    -0.00032214446998441
  64    -0.00013676997263657
  65    -6.3457712722429e-08
  66    6.5588170886881e-07
  67    -1.0593565335591e-08
  68    6.4511605815837e-08
  69    -1.9278356555475e-06
  70    1.6252549420929e-07
  71    -1.8401178451122e-07
  72    -1.7180475838657e-07
  73    8.8485232745503e-07
  74    -1.2002614595976e-07
  75    -3.6494411737389e-08
  76    1.7547567905334e-07
  77    1.6033146534379e-07
  78    2.0274116129882e-08
  79    4.068883931818e-08
  80    1.6832086094815e-07
  81    3.4627901882038e-08
  82     5.97600182547e-07
  83    1.1494874220276e-07
  84    1.4033129499747e-06
  85    1.3460419637614e-05
  86    -7.1798939374896e-07
  87    4.5999156683498e-07
  88    -7.0971687087713e-07
  89    -1.0277415643977e-06
  90    -1.5925355191347e-06
  91    -5.5022308404474e-06
  92    -1.8037661719784e-07
  93    7.7187026785586e-08
  94    3.0409935458178e-08
  95    -2.736876774906e-07
  96    1.7869601823066e-07
  97    2.4582505921038e-08
  98    4.5415904499358e-07
  99    -5.5183070114176e-07
 100    -6.4440083125692e-07
 101      -3.392239687e-07
 102    -1.6026712525942e-06
 103    3.4167113144766e-05
 104    -1.3005935652225e-06
 105    7.2090189663767e-07
 106    2.4622610576361e-07
 107    3.5478668632626e-06
 108    -2.9465664885811e-06
 109    -4.5790908387645e-05
 110    6.8083763544234e-07
 111    1.1699687093753e-06
 112    -4.7708617162757e-07
 113    5.2493347469396e-08
 114    -1.0534124204494e-07
 115    4.6135745701363e-07
 116    3.9836282602388e-06
 117    -3.3559178802403e-05
 118    5.6547956304288e-07
 119    4.1303233523901e-08
 120    -1.3209033494297e-06
 121    1.2391202447743e-05
 122    -9.9701141151606e-06
 123    -2.2519736824526e-06
 124    4.5086576792518e-07
 125    2.7420303677715e-07
 126    -5.0285231629219e-07
 127    -4.8677703296796e-07
 128    4.4356272839753e-07
 129    1.1770550986621e-06
 130    8.2882197687541e-06
 131    -6.4219009862396e-05
 132    1.8170876501563e-06
 133    -1.2289398106085e-06
 134    -3.1117389092742e-06
 135    -2.938788117996e-05
 136    1.4954897847357e-05
 137    9.5700966567519e-05
 138    -2.8243811555326e-06
 139    -1.5773011802408e-06
 140    9.8853379389939e-07
 141    -4.4303344151319e-07
 142    1.1978776593102e-06
 143    7.5605218943192e-07
 144    5.9892410942876e-06
 145    -5.4363208014227e-05
 146    2.9420589739033e-07
 147    1.2288965264575e-07
 148    1.6631981454653e-06
 149    -2.7753723933855e-05
 150    1.6144588383521e-05
 151    -1.3098415933618e-06
 152    4.2976843571647e-07
 153    4.5029013965086e-07
 154    -6.1357456341948e-07
 155    -8.1012870244936e-07
 156    7.8085720624335e-07
 157    1.4877632614488e-07
 158    1.5224807326572e-06
 159    -9.4883215486763e-06
 160    -6.0119966984382e-08
 161    1.3588534598136e-08
 162    -2.9563978451389e-08
 163    3.5734134929399e-06
 164    3.4673470659013e-06
 165    8.4804907116037e-07
 166    -2.4874536449391e-07
 167    3.7455206282025e-07
 168    -6.9686769705034e-08
 169    3.8074894453467e-07
 170    -2.6141178588482e-07
 171    -1.0356891257533e-08
 172    6.605747734839e-08
 173    -2.1616842716541e-07
 174    -5.4466248614645e-08
 175    1.4572521692015e-07
 176    3.346565463103e-07
 177    6.0548558601845e-06
 178    -2.4020880163533e-06
 179    1.5802132688433e-06
 180    -1.2000917887609e-07
 181    4.5936342553795e-07
 182    -2.0519206954173e-07
 183    6.9593351883517e-07
 184    2.743969981449e-07
 185    -5.7076926007258e-08
 186    2.5052561230327e-07
 187    1.4828254612525e-05
 188    -3.8510293811821e-07
 189    -2.3484424688761e-07
 190    -1.5626154864064e-06
 191    -2.6784990412788e-06
 192    -3.179640893167e-06
 193    -3.6049684768832e-06
 194    2.5980070589519e-07
 195    4.3515969282804e-07
 196    1.759971341024e-07
 197    -3.9066035484146e-07
 198    3.0953651965465e-07
 199    -3.0034347133736e-07
 200    8.9941778738305e-07
 201    -2.3727895157324e-07
 202    -2.7112070638206e-06
 203    5.2075565637851e-07
 204    -2.3766067545746e-06
 205    1.4023188421503e-06
 206    1.2553535724378e-06
 207    1.4090328285163e-06
 208    3.304986590372e-06
 209    -1.4528675671076e-07
 210    5.0166236112186e-06
 211    -2.4704441204112e-09
 212    -1.2378240489197e-06
 213    5.1636609943138e-07
 214    1.2377270438888e-08
 215    -1.0782712967289e-06
 216    5.9960603354879e-06
 217    4.0923413836145e-07
 218    1.0282819045004e-06
 219    -2.6216430090827e-07
 220    -2.4311140481526e-06
 221    -1.4761335779999e-06
 222    -7.306952339971e-06
 223    0.00018900255669766
 224    -1.1321794957466e-07
 225    3.8428318280303e-06
 226    -5.6824830076411e-06
 227    5.6656101798648e-05
 228    -2.1259418778871e-06
 229    2.6941195128715e-06
 230    4.0228696555439e-06
 231    5.7976548502082e-07
 232    -1.8573856008227e-06
 233    -3.1746185132457e-09
 234    -5.143394551405e-07
 235    2.1153434575966e-06
 236    1.3363485353637e-05
 237    -0.00024843916274748
 238    -2.850088803176e-06
 239    -5.8242629554959e-06
 240    6.1660600962204e-06
 241    0.00011490894062705
 242    3.2216615439977e-05
 243    5.0955550581715e-06
 244    -3.9046066589816e-06
 245    -1.3486429750815e-06
 246    3.3572708724724e-06
 247    -2.2466652181308e-06
 248    4.488873312679e-07
 249    3.4792464291107e-06
 250    -7.7320256545077e-06
 251    1.475292786051e-06
 252    1.9036572286302e-05
 253    -6.7561160234099e-05
 254    -4.7240340336484e-06
 255    2.8005832743395e-07
 256    -1.3653835433148e-05
 257     9.58266563264e-06
 258    -5.9798061308548e-06
 259    0.00029292134018588
 260    -2.5822091598158e-06
 261    1.0738725750936e-05
 262    -6.400110023019e-07
 263    -8.0059325064117e-06
 264    3.3273137653726e-06
 265    -6.5867619120535e-06
 266    -1.8876312360304e-05
 267    1.4594245760802e-05
 268    1.2742750632716e-05
 269    1.2689154541898e-05
 270    5.7975200600845e-05
 271    -0.0032755159323631
 272    -9.3887393272256e-05
 273    0.00014879314849222
 274    -0.00010874877191781
 275    -0.0026174748386096
 276    -0.00078402834115304
 277    0.0032788055847728
 278    -5.6013155554352e-06
 279    0.00032363867390042
 280    -0.00016411784086368