[Molden Format]
made by pyscf v[2.0.1]
[Atoms] (AU)
C   1   6     0.69100024066471     0.64692934207205    -3.48223131169301
H   2   1     2.68052439830868     1.13355088658700    -3.25784032593313
C   3   6    -0.36286361513219     0.85440132524594    -5.97030179418974
H   4   1    -2.35448549047279     0.36322488579172    -6.17995817793143
C   5   6     0.93697958957450     1.61209284601821    -8.05828437677121
H   6   1     0.88481995546627     3.59633991549139    -8.60690604548455
C   7   6     2.39466048338875    -0.07229584893402    -9.60563204708460
H   8   1     2.43004158789144    -2.05446799383120    -9.03164251308345
H   9   1     1.55630230933075    -1.92953025305990    12.99630010416247
C   10   6     0.75233899775814    -2.21270439606481    11.10705728102219
H   11   1    -0.43433408177274    -3.90944857546550    11.22216085340412
C   12   6     2.86362581178706    -2.63237380607947     9.17926416456045
H   13   1     4.39038949912609    -1.24955421540245     9.49899813497433
H   14   1     3.74629220191363    -4.48798724300892     9.47414880959024
C   15   6     2.02478325613682    -2.42177285709634     6.44560829588644
C   16   6     3.88048732735477    -3.58795445234514     4.61402886975252
C   17   6    -0.18412382258602    -1.30464291234259     5.76021113872346
C   18   6    -2.10044360464350    -0.26837831858460     7.71610340967100
C   19   6    -3.08956938670431     2.35282328359417     6.88693925039594
C   20   6    -4.37372924086464    -2.09766595989678     7.93610724222001
C   21   6    -0.83850430601230     0.06372213486173    10.33002307638377
H   22   1     0.38411922151109     1.74281358582432    10.27380136542181
H   23   1    -2.30980003007874     0.45460143924521    11.73986301809809
H   24   1     4.58527064644668    -5.38706904487420     5.36778158031719
H   25   1     5.54944938085014    -2.37631462192748     4.35398898413318
H   26   1     3.06633019150423    -3.94118377050688     2.75255466040884
H   27   1    -4.17727778763735     2.26573369139522     5.12914900961283
H   28   1    -1.52662344944051     3.68001877445626     6.59540397144508
H   29   1    -4.32916174397830     3.13643051467482     8.35225460090378
H   30   1    -5.32329548508442    -2.36691813602939     6.11583672749896
H   31   1    -5.77989366602257    -1.33896741843465     9.25748940450990
H   32   1    -3.79310905208926    -3.96389819310853     8.61386170102686
C   33   6    -1.01100794811226    -1.06331657314144     3.11929490449947
C   34   6     0.37686231036534    -0.33275864505552     1.09165013605873
H   35   1    -3.01671213906703    -1.40297922279997     2.77827895090944
C   36   6    -0.64382707979370    -0.11591880174385    -1.42063131251064
H   37   1     2.35569259782137     0.17174499283897     1.33641070251401
H   38   1    -2.63317482980319    -0.60229203511219    -1.66119700387645
C   39   6     3.71533383510959     0.59576232705089   -11.69997054074953
C   40   6     5.14333780052268    -1.26490852400141   -13.15108433486960
H   41   1     3.75910290759049     2.53760054456126   -12.37459410036833
O   42   8     6.36836167706676    -0.79692659131490   -15.04874962161569
H   43   1     5.04579305514285    -3.22830651971947   -12.39231411193817
[GTO]
1 0
 s    6 1.00
             3047.5249  0.0018347001629433
             457.36951    0.01403730124668
             103.94869   0.068842606114048
             29.210155    0.23218442062076
              9.286663    0.46794134155879
              3.163927    0.36231203217765
 s    3 1.00
             7.8682724   -0.11933240861517
             1.8812885   -0.16085421161283
             0.5442493     1.1434564825515
 s    1 1.00
             0.1687144                   1
 p    3 1.00
             7.8682724   0.068999095584993
             1.8812885    0.31642397975315
             0.5442493    0.74430825237435
 p    1 1.00
             0.1687144                   1
 d    1 1.00
                   0.8                   1

2 0
 s    3 1.00
             18.731137    0.03349459952309
             2.8253937    0.23472694665786
             0.6401217    0.81375731841339
 s    1 1.00
             0.1612778                   1

3 0
 s    6 1.00
             3047.5249  0.0018347001629433
             457.36951    0.01403730124668
             103.94869   0.068842606114048
             29.210155    0.23218442062076
              9.286663    0.46794134155879
              3.163927    0.36231203217765
 s    3 1.00
             7.8682724   -0.11933240861517
             1.8812885   -0.16085421161283
             0.5442493     1.1434564825515
 s    1 1.00
             0.1687144                   1
 p    3 1.00
             7.8682724   0.068999095584993
             1.8812885    0.31642397975315
             0.5442493    0.74430825237435
 p    1 1.00
             0.1687144                   1
 d    1 1.00
                   0.8                   1

4 0
 s    3 1.00
             18.731137    0.03349459952309
             2.8253937    0.23472694665786
             0.6401217    0.81375731841339
 s    1 1.00
             0.1612778                   1

5 0
 s    6 1.00
             3047.5249  0.0018347001629433
             457.36951    0.01403730124668
             103.94869   0.068842606114048
             29.210155    0.23218442062076
              9.286663    0.46794134155879
              3.163927    0.36231203217765
 s    3 1.00
             7.8682724   -0.11933240861517
             1.8812885   -0.16085421161283
             0.5442493     1.1434564825515
 s    1 1.00
             0.1687144                   1
 p    3 1.00
             7.8682724   0.068999095584993
             1.8812885    0.31642397975315
             0.5442493    0.74430825237435
 p    1 1.00
             0.1687144                   1
 d    1 1.00
                   0.8                   1

6 0
 s    3 1.00
             18.731137    0.03349459952309
             2.8253937    0.23472694665786
             0.6401217    0.81375731841339
 s    1 1.00
             0.1612778                   1

7 0
 s    6 1.00
             3047.5249  0.0018347001629433
             457.36951    0.01403730124668
             103.94869   0.068842606114048
             29.210155    0.23218442062076
              9.286663    0.46794134155879
              3.163927    0.36231203217765
 s    3 1.00
             7.8682724   -0.11933240861517
             1.8812885   -0.16085421161283
             0.5442493     1.1434564825515
 s    1 1.00
             0.1687144                   1
 p    3 1.00
             7.8682724   0.068999095584993
             1.8812885    0.31642397975315
             0.5442493    0.74430825237435
 p    1 1.00
             0.1687144                   1
 d    1 1.00
                   0.8                   1

8 0
 s    3 1.00
             18.731137    0.03349459952309
             2.8253937    0.23472694665786
             0.6401217    0.81375731841339
 s    1 1.00
             0.1612778                   1

9 0
 s    3 1.00
             18.731137    0.03349459952309
             2.8253937    0.23472694665786
             0.6401217    0.81375731841339
 s    1 1.00
             0.1612778                   1

10 0
 s    6 1.00
             3047.5249  0.0018347001629433
             457.36951    0.01403730124668
             103.94869   0.068842606114048
             29.210155    0.23218442062076
              9.286663    0.46794134155879
              3.163927    0.36231203217765
 s    3 1.00
             7.8682724   -0.11933240861517
             1.8812885   -0.16085421161283
             0.5442493     1.1434564825515
 s    1 1.00
             0.1687144                   1
 p    3 1.00
             7.8682724   0.068999095584993
             1.8812885    0.31642397975315
             0.5442493    0.74430825237435
 p    1 1.00
             0.1687144                   1
 d    1 1.00
                   0.8                   1

11 0
 s    3 1.00
             18.731137    0.03349459952309
             2.8253937    0.23472694665786
             0.6401217    0.81375731841339
 s    1 1.00
             0.1612778                   1

12 0
 s    6 1.00
             3047.5249  0.0018347001629433
             457.36951    0.01403730124668
             103.94869   0.068842606114048
             29.210155    0.23218442062076
              9.286663    0.46794134155879
              3.163927    0.36231203217765
 s    3 1.00
             7.8682724   -0.11933240861517
             1.8812885   -0.16085421161283
             0.5442493     1.1434564825515
 s    1 1.00
             0.1687144                   1
 p    3 1.00
             7.8682724   0.068999095584993
             1.8812885    0.31642397975315
             0.5442493    0.74430825237435
 p    1 1.00
             0.1687144                   1
 d    1 1.00
                   0.8                   1

13 0
 s    3 1.00
             18.731137    0.03349459952309
             2.8253937    0.23472694665786
             0.6401217    0.81375731841339
 s    1 1.00
             0.1612778                   1

14 0
 s    3 1.00
             18.731137    0.03349459952309
             2.8253937    0.23472694665786
             0.6401217    0.81375731841339
 s    1 1.00
             0.1612778                   1

15 0
 s    6 1.00
             3047.5249  0.0018347001629433
             457.36951    0.01403730124668
             103.94869   0.068842606114048
             29.210155    0.23218442062076
              9.286663    0.46794134155879
              3.163927    0.36231203217765
 s    3 1.00
             7.8682724   -0.11933240861517
             1.8812885   -0.16085421161283
             0.5442493     1.1434564825515
 s    1 1.00
             0.1687144                   1
 p    3 1.00
             7.8682724   0.068999095584993
             1.8812885    0.31642397975315
             0.5442493    0.74430825237435
 p    1 1.00
             0.1687144                   1
 d    1 1.00
                   0.8                   1

16 0
 s    6 1.00
             3047.5249  0.0018347001629433
             457.36951    0.01403730124668
             103.94869   0.068842606114048
             29.210155    0.23218442062076
              9.286663    0.46794134155879
              3.163927    0.36231203217765
 s    3 1.00
             7.8682724   -0.11933240861517
             1.8812885   -0.16085421161283
             0.5442493     1.1434564825515
 s    1 1.00
             0.1687144                   1
 p    3 1.00
             7.8682724   0.068999095584993
             1.8812885    0.31642397975315
             0.5442493    0.74430825237435
 p    1 1.00
             0.1687144                   1
 d    1 1.00
                   0.8                   1

17 0
 s    6 1.00
             3047.5249  0.0018347001629433
             457.36951    0.01403730124668
             103.94869   0.068842606114048
             29.210155    0.23218442062076
              9.286663    0.46794134155879
              3.163927    0.36231203217765
 s    3 1.00
             7.8682724   -0.11933240861517
             1.8812885   -0.16085421161283
             0.5442493     1.1434564825515
 s    1 1.00
             0.1687144                   1
 p    3 1.00
             7.8682724   0.068999095584993
             1.8812885    0.31642397975315
             0.5442493    0.74430825237435
 p    1 1.00
             0.1687144                   1
 d    1 1.00
                   0.8                   1

18 0
 s    6 1.00
             3047.5249  0.0018347001629433
             457.36951    0.01403730124668
             103.94869   0.068842606114048
             29.210155    0.23218442062076
              9.286663    0.46794134155879
              3.163927    0.36231203217765
 s    3 1.00
             7.8682724   -0.11933240861517
             1.8812885   -0.16085421161283
             0.5442493     1.1434564825515
 s    1 1.00
             0.1687144                   1
 p    3 1.00
             7.8682724   0.068999095584993
             1.8812885    0.31642397975315
             0.5442493    0.74430825237435
 p    1 1.00
             0.1687144                   1
 d    1 1.00
                   0.8                   1

19 0
 s    6 1.00
             3047.5249  0.0018347001629433
             457.36951    0.01403730124668
             103.94869   0.068842606114048
             29.210155    0.23218442062076
              9.286663    0.46794134155879
              3.163927    0.36231203217765
 s    3 1.00
             7.8682724   -0.11933240861517
             1.8812885   -0.16085421161283
             0.5442493     1.1434564825515
 s    1 1.00
             0.1687144                   1
 p    3 1.00
             7.8682724   0.068999095584993
             1.8812885    0.31642397975315
             0.5442493    0.74430825237435
 p    1 1.00
             0.1687144                   1
 d    1 1.00
                   0.8                   1

20 0
 s    6 1.00
             3047.5249  0.0018347001629433
             457.36951    0.01403730124668
             103.94869   0.068842606114048
             29.210155    0.23218442062076
              9.286663    0.46794134155879
              3.163927    0.36231203217765
 s    3 1.00
             7.8682724   -0.11933240861517
             1.8812885   -0.16085421161283
             0.5442493     1.1434564825515
 s    1 1.00
             0.1687144                   1
 p    3 1.00
             7.8682724   0.068999095584993
             1.8812885    0.31642397975315
             0.5442493    0.74430825237435
 p    1 1.00
             0.1687144                   1
 d    1 1.00
                   0.8                   1

21 0
 s    6 1.00
             3047.5249  0.0018347001629433
             457.36951    0.01403730124668
             103.94869   0.068842606114048
             29.210155    0.23218442062076
              9.286663    0.46794134155879
              3.163927    0.36231203217765
 s    3 1.00
             7.8682724   -0.11933240861517
             1.8812885   -0.16085421161283
             0.5442493     1.1434564825515
 s    1 1.00
             0.1687144                   1
 p    3 1.00
             7.8682724   0.068999095584993
             1.8812885    0.31642397975315
             0.5442493    0.74430825237435
 p    1 1.00
             0.1687144                   1
 d    1 1.00
                   0.8                   1

22 0
 s    3 1.00
             18.731137    0.03349459952309
             2.8253937    0.23472694665786
             0.6401217    0.81375731841339
 s    1 1.00
             0.1612778                   1

23 0
 s    3 1.00
             18.731137    0.03349459952309
             2.8253937    0.23472694665786
             0.6401217    0.81375731841339
 s    1 1.00
             0.1612778                   1

24 0
 s    3 1.00
             18.731137    0.03349459952309
             2.8253937    0.23472694665786
             0.6401217    0.81375731841339
 s    1 1.00
             0.1612778                   1

25 0
 s    3 1.00
             18.731137    0.03349459952309
             2.8253937    0.23472694665786
             0.6401217    0.81375731841339
 s    1 1.00
             0.1612778                   1

26 0
 s    3 1.00
             18.731137    0.03349459952309
             2.8253937    0.23472694665786
             0.6401217    0.81375731841339
 s    1 1.00
             0.1612778                   1

27 0
 s    3 1.00
             18.731137    0.03349459952309
             2.8253937    0.23472694665786
             0.6401217    0.81375731841339
 s    1 1.00
             0.1612778                   1

28 0
 s    3 1.00
             18.731137    0.03349459952309
             2.8253937    0.23472694665786
             0.6401217    0.81375731841339
 s    1 1.00
             0.1612778                   1

29 0
 s    3 1.00
             18.731137    0.03349459952309
             2.8253937    0.23472694665786
             0.6401217    0.81375731841339
 s    1 1.00
             0.1612778                   1

30 0
 s    3 1.00
             18.731137    0.03349459952309
             2.8253937    0.23472694665786
             0.6401217    0.81375731841339
 s    1 1.00
             0.1612778                   1

31 0
 s    3 1.00
             18.731137    0.03349459952309
             2.8253937    0.23472694665786
             0.6401217    0.81375731841339
 s    1 1.00
             0.1612778                   1

32 0
 s    3 1.00
             18.731137    0.03349459952309
             2.8253937    0.23472694665786
             0.6401217    0.81375731841339
 s    1 1.00
             0.1612778                   1

33 0
 s    6 1.00
             3047.5249  0.0018347001629433
             457.36951    0.01403730124668
             103.94869   0.068842606114048
             29.210155    0.23218442062076
              9.286663    0.46794134155879
              3.163927    0.36231203217765
 s    3 1.00
             7.8682724   -0.11933240861517
             1.8812885   -0.16085421161283
             0.5442493     1.1434564825515
 s    1 1.00
             0.1687144                   1
 p    3 1.00
             7.8682724   0.068999095584993
             1.8812885    0.31642397975315
             0.5442493    0.74430825237435
 p    1 1.00
             0.1687144                   1
 d    1 1.00
                   0.8                   1

34 0
 s    6 1.00
             3047.5249  0.0018347001629433
             457.36951    0.01403730124668
             103.94869   0.068842606114048
             29.210155    0.23218442062076
              9.286663    0.46794134155879
              3.163927    0.36231203217765
 s    3 1.00
             7.8682724   -0.11933240861517
             1.8812885   -0.16085421161283
             0.5442493     1.1434564825515
 s    1 1.00
             0.1687144                   1
 p    3 1.00
             7.8682724   0.068999095584993
             1.8812885    0.31642397975315
             0.5442493    0.74430825237435
 p    1 1.00
             0.1687144                   1
 d    1 1.00
                   0.8                   1

35 0
 s    3 1.00
             18.731137    0.03349459952309
             2.8253937    0.23472694665786
             0.6401217    0.81375731841339
 s    1 1.00
             0.1612778                   1

36 0
 s    6 1.00
             3047.5249  0.0018347001629433
             457.36951    0.01403730124668
             103.94869   0.068842606114048
             29.210155    0.23218442062076
              9.286663    0.46794134155879
              3.163927    0.36231203217765
 s    3 1.00
             7.8682724   -0.11933240861517
             1.8812885   -0.16085421161283
             0.5442493     1.1434564825515
 s    1 1.00
             0.1687144                   1
 p    3 1.00
             7.8682724   0.068999095584993
             1.8812885    0.31642397975315
             0.5442493    0.74430825237435
 p    1 1.00
             0.1687144                   1
 d    1 1.00
                   0.8                   1

37 0
 s    3 1.00
             18.731137    0.03349459952309
             2.8253937    0.23472694665786
             0.6401217    0.81375731841339
 s    1 1.00
             0.1612778                   1

38 0
 s    3 1.00
             18.731137    0.03349459952309
             2.8253937    0.23472694665786
             0.6401217    0.81375731841339
 s    1 1.00
             0.1612778                   1

39 0
 s    6 1.00
             3047.5249  0.0018347001629433
             457.36951    0.01403730124668
             103.94869   0.068842606114048
             29.210155    0.23218442062076
              9.286663    0.46794134155879
              3.163927    0.36231203217765
 s    3 1.00
             7.8682724   -0.11933240861517
             1.8812885   -0.16085421161283
             0.5442493     1.1434564825515
 s    1 1.00
             0.1687144                   1
 p    3 1.00
             7.8682724   0.068999095584993
             1.8812885    0.31642397975315
             0.5442493    0.74430825237435
 p    1 1.00
             0.1687144                   1
 d    1 1.00
                   0.8                   1

40 0
 s    6 1.00
             3047.5249  0.0018347001629433
             457.36951    0.01403730124668
             103.94869   0.068842606114048
             29.210155    0.23218442062076
              9.286663    0.46794134155879
              3.163927    0.36231203217765
 s    3 1.00
             7.8682724   -0.11933240861517
             1.8812885   -0.16085421161283
             0.5442493     1.1434564825515
 s    1 1.00
             0.1687144                   1
 p    3 1.00
             7.8682724   0.068999095584993
             1.8812885    0.31642397975315
             0.5442493    0.74430825237435
 p    1 1.00
             0.1687144                   1
 d    1 1.00
                   0.8                   1

41 0
 s    3 1.00
             18.731137    0.03349459952309
             2.8253937    0.23472694665786
             0.6401217    0.81375731841339
 s    1 1.00
             0.1612778                   1

42 0
 s    6 1.00
             5484.6717   0.001831099805527
             825.23495   0.013950098518422
             188.04696    0.06844509273075
               52.9645    0.23271427528445
              16.89757    0.47019295006289
             5.7996353    0.35852086192309
 s    3 1.00
             15.539616   -0.11077750382508
             3.5999336   -0.14802630511126
             1.0137618     1.1307670390447
 s    1 1.00
             0.2700058                   1
 p    3 1.00
             15.539616   0.070874299543311
             3.5999336    0.33975279781076
             1.0137618    0.72715859531445
 p    1 1.00
             0.2700058                   1
 d    1 1.00
                   0.8                   1

43 0
 s    3 1.00
             18.731137    0.03349459952309
             2.8253937    0.23472694665786
             0.6401217    0.81375731841339
 s    1 1.00
             0.1612778                   1

[5d]
[7f]
[9g]

[MO]
 Sym= A
 Ene=               0
 Spin= Alpha
 Occup=    1.00000
   1    9.5943690382062e-08
   2    1.257835090102e-05
   3    4.9546327612614e-05
   4    4.6128873303872e-06
   5    8.3208457813642e-06
   6    -1.4995352490674e-05
   7    -4.8625025872126e-05
   8    -0.00013469044797605
   9    0.00038686093596458
  10    2.9826760974205e-07
  11    -1.1016695897014e-05
  12    -9.7384797015668e-07
  13    -1.4875423727439e-05
  14    8.3244516343264e-06
  15    1.3908628051535e-05
  16    -1.2492132852755e-05
  17    -8.5401511831304e-06
  18    -0.00016937101026523
  19    -0.00047374090027876
  20    -5.9306583205702e-05
  21    5.7745239676272e-06
  22    7.311631730934e-05
  23    -0.00021525648741617
  24    0.00011845369200422
  25    0.0006040833378642
  26    -2.3116496992484e-05
  27    2.5796034592853e-05
  28    -1.4825262580056e-05
  29    -4.4113132205925e-05
  30    -3.0828724898143e-06
  31    1.1484924645615e-05
  32    -4.0615453915421e-05
  33    -5.7790722832819e-05
  34    -0.00038283827193148
  35    0.0046442264006516
  36    9.4784406177812e-05
  37    -1.6670911973698e-05
  38    -0.00014165125113854
  39    0.00071883345257497
  40    -0.0020126496920787
  41    -0.00041516388274063
  42    1.4001959002904e-05
  43    -0.0001176371382247
  44    5.8853554188545e-05
  45    -1.8941410736085e-05
  46    -7.1406592724454e-05
  47    1.6972059607358e-05
  48    0.0002969620430211
  49    -4.7702549464379e-05
  50    -0.00020497735961995
  51    -0.0038002598185533
  52    -0.00024034997854512
  53    0.00022699197057302
  54    0.00027094849976384
  55    0.0021156921181108
  56    -0.0026812568358408
  57    -0.0021712717113879
  58    4.0943167720523e-05
  59    -2.8640153197681e-05
  60    -0.00019959259518565
  61    -3.8468147793036e-05
  62    0.00012514912921771
  63    -0.0003243869479398
  64    -8.5325164145566e-05
  65    2.1411048894538e-07
  66    3.1031613552716e-07
  67    4.2893796036424e-08
  68    6.115243238279e-07
  69    -2.9544063394389e-06
  70    -2.2597767316766e-07
  71    3.4634347654007e-07
  72    -1.6454356118128e-07
  73    -2.7209109566314e-07
  74    -1.7930365721894e-06
  75    -6.3407360442004e-09
  76    6.3904417986705e-08
  77    1.3131835165471e-07
  78    -4.7442367517873e-08
  79    -7.0643287057747e-08
  80    1.1654683623126e-07
  81    -1.0484168317411e-07
  82    -2.2416588650257e-07
  83    -1.6472592029997e-08
  84    2.8293457706372e-07
  85    1.5191322388174e-05
  86    -7.430337891246e-07
  87    -3.2246838834979e-08
  88    -9.7914049526124e-07
  89    -3.5653795775013e-06
  90    4.9821952956827e-06
  91    -3.8679475409099e-06
  92    -1.9008827511456e-07
  93    2.9706859860298e-07
  94    -3.8544641981186e-07
  95    -6.2680049983085e-08
  96    1.7797221644876e-07
  97    -7.3345735700856e-07
  98    -8.9335131139334e-07
  99    -4.8362562505177e-09
 100    1.1275008701043e-06
 101    4.7372733901697e-08
 102    7.6449494082978e-07
 103    -1.2439592070466e-05
 104    -2.6653375921041e-07
 105    1.099977959593e-06
 106    7.1004493265101e-07
 107    2.0670171910403e-05
 108    -1.9268831521074e-05
 109    -3.5361449629518e-05
 110    6.5338512954127e-07
 111    6.2418733779226e-07
 112    -2.6340289935603e-07
 113    -3.0542800975818e-07
 114    5.4582836515376e-07
 115    5.2547789595574e-07
 116     4.78763116061e-06
 117    -3.9759208501696e-05
 118    7.324116561651e-07
 119    -1.0428154756345e-06
 120    -9.3421316629467e-07
 121    9.5963429036143e-06
 122    -1.8445823530037e-06
 123    -3.465320104588e-06
 124    1.0786415498513e-07
 125    2.9117490180932e-07
 126    1.0378615476692e-07
 127    -1.6129848329287e-07
 128    4.1948005762155e-07
 129    1.0743122605935e-06
 130    9.4435465934961e-06
 131    -5.8699382793625e-05
 132    -1.194717090919e-07
 133    1.2348282458797e-07
 134    -3.6384647766666e-06
 135    2.4644440526503e-05
 136    1.0534425831412e-06
 137    9.1874728531943e-05
 138    -2.7492046814713e-06
 139    -1.7925334631076e-06
 140    -2.2138400106685e-07
 141    -4.6729361807435e-07
 142    -1.9393117630346e-08
 143    4.9868431634351e-07
 144    4.7031357407758e-06
 145    -2.4630491303715e-05
 146    -1.8229921820065e-07
 147    -4.6639423267055e-07
 148    -4.5559832399098e-07
 149    -1.4383120510175e-05
 150    6.7595353555403e-06
 151    3.9689927120315e-06
 152    1.0584108425419e-06
 153    4.4123429698139e-07
 154    1.2144044513209e-07
 155    -7.9261079256443e-07
 156    8.6391135667197e-07
 157    -1.1685714090302e-07
 158    -9.1245809044343e-07
 159    -1.6946613475514e-07
 160    -7.3968752006222e-07
 161    6.5544698269859e-08
 162    1.2745398246724e-07
 163    7.0773534478119e-06
 164    -4.1188357165049e-07
 165    -9.0584070306098e-07
 166    -5.2722373164166e-07
 167    2.3368634661562e-07
 168    -2.6451475424617e-08
 169    1.2363742363122e-07
 170    -3.4617908284391e-07
 171    -2.6372050246593e-08
 172    4.6763345256252e-07
 173    1.3333210279972e-06
 174    6.6504694852231e-07
 175    1.8572068243172e-07
 176    -7.9961041496867e-07
 177    4.8716660092458e-07
 178    -1.9814802753397e-06
 179    1.760411810069e-06
 180    -1.456563786628e-07
 181    -2.2395183390397e-07
 182    -5.9968683122462e-08
 183    4.2337444198572e-07
 184     -1.9024988706e-07
 185    3.1746528452695e-07
 186    3.2202479116775e-06
 187    -1.6547677398795e-06
 188    2.207921967589e-07
 189    -1.4539946259703e-07
 190    -1.2715972900255e-06
 191    -2.3363125604231e-06
 192    -7.8895599659392e-07
 193    5.6682285831091e-06
 194    -2.9911821627903e-07
 195    4.818811595367e-08
 196    -2.1940659500366e-07
 197    -1.1369917749409e-07
 198    1.0641420237702e-07
 199    7.5507990850678e-07
 200    1.2192071342886e-06
 201    -3.9313572837591e-08
 202    -3.5574580770988e-06
 203    1.7654767716525e-06
 204    1.7479018910921e-06
 205    3.4542168642971e-07
 206    2.5621297406008e-06
 207    -1.0314600979337e-06
 208    1.1439053244989e-05
 209    -1.220951479462e-06
 210    4.7596233396493e-06
 211    -5.7168491880794e-07
 212    -3.0969269188134e-06
 213    2.600884701363e-07
 214    2.3037021255521e-06
 215    4.807283775407e-07
 216    -6.0616339104868e-07
 217    -2.6381200948922e-07
 218    -7.677373551503e-07
 219    -3.1589977983005e-07
 220    -1.2458250591536e-06
 221    6.9120291942513e-07
 222    8.4743190923384e-06
 223    1.479738086877e-05
 224    -4.6929895480765e-07
 225    1.0964256772017e-06
 226    -4.3456624850594e-06
 227    -9.138587975869e-06
 228    -2.974998266306e-05
 229    0.00010440864404534
 230    1.2748942920138e-06
 231    4.5094063677817e-06
 232    2.0007138686378e-06
 233    -1.9891976387483e-06
 234    -2.9631908799022e-06
 235    9.586286627624e-07
 236    1.0252097564418e-05
 237    -2.5907201664366e-05
 238    6.9873061336695e-07
 239    -3.6410009921169e-06
 240    -3.329176807899e-06
 241    2.5422805930007e-05
 242    7.9118232492669e-06
 243    9.0793880279543e-05
 244    -1.4224857423916e-06
 245    -7.2035483215147e-06
 246    -1.695936790823e-06
 247    -2.8945014822391e-06
 248    -1.2207344951398e-06
 249    4.8155772912193e-06
 250    -1.1426731730864e-05
 251    1.9802535197185e-06
 252    3.2048809847941e-05
 253    -0.00029655346620048
 254    -3.5391094149117e-06
 255    9.051160884403e-06
 256    -7.4390723254848e-06
 257    -0.0001239799767623
 258    -0.00010034444425246
 259    0.00027091220435372
 260    -3.0583729007317e-06
 261    1.3460206539628e-05
 262    5.4006512623248e-06
 263    -8.931945209393e-06
 264    -5.1797133028514e-06
 265    3.9228174031648e-06
 266    -3.0356864157686e-05
 267    8.6256788984217e-06
 268    -3.9241398341809e-05
 269     1.33357716267e-05
 270    6.2937192143226e-05
 271    -0.0033349730246937
 272    -1.6448405195746e-05
 273    0.00020443014360845
 274    -4.2088345238605e-05
 275    -0.0022908761801586
 276    -0.00063361231946989
 277    0.0034715213776754
 278    -0.00019885392339314
 279    0.00024260463938681