[Molden Format]
made by pyscf v[2.0.1]
[Atoms] (AU)
C   1   6     0.69100024066471     0.64692934207205    -3.48223131169301
H   2   1     2.68052439830868     1.13355088658700    -3.25784032593313
C   3   6    -0.36286361513219     0.85440132524594    -5.97030179418974
H   4   1    -2.35448549047279     0.36322488579172    -6.17995817793143
C   5   6     0.93697958957450     1.61209284601821    -8.05828437677121
H   6   1     2.68174994182533     2.67994959464420    -7.82079505522331
C   7   6     0.13444904340515     1.08121190669811   -10.59410649762000
H   8   1    -1.61655526267424     0.00863003830430   -10.80213119601662
H   9   1     1.55630230933075    -1.92953025305990    12.99630010416247
C   10   6     0.75233899775814    -2.21270439606481    11.10705728102219
H   11   1    -0.43433408177274    -3.90944857546550    11.22216085340412
C   12   6     2.86362581178706    -2.63237380607947     9.17926416456045
H   13   1     4.39038949912609    -1.24955421540245     9.49899813497433
H   14   1     3.74629220191363    -4.48798724300892     9.47414880959024
C   15   6     2.02478325613682    -2.42177285709634     6.44560829588644
C   16   6     3.88048732735477    -3.58795445234514     4.61402886975252
C   17   6    -0.18412382258602    -1.30464291234259     5.76021113872346
C   18   6    -2.10044360464350    -0.26837831858460     7.71610340967100
C   19   6    -3.08956938670431     2.35282328359417     6.88693925039594
C   20   6    -4.37372924086464    -2.09766595989678     7.93610724222001
C   21   6    -0.83850430601230     0.06372213486173    10.33002307638377
H   22   1     0.38411922151109     1.74281358582432    10.27380136542181
H   23   1    -2.30980003007874     0.45460143924521    11.73986301809809
H   24   1     4.58527064644668    -5.38706904487420     5.36778158031719
H   25   1     5.54944938085014    -2.37631462192748     4.35398898413318
H   26   1     3.06633019150423    -3.94118377050688     2.75255466040884
H   27   1    -4.17727778763735     2.26573369139522     5.12914900961283
H   28   1    -1.52662344944051     3.68001877445626     6.59540397144508
H   29   1    -4.32916174397830     3.13643051467482     8.35225460090378
H   30   1    -5.32329548508442    -2.36691813602939     6.11583672749896
H   31   1    -5.77989366602257    -1.33896741843465     9.25748940450990
H   32   1    -3.79310905208926    -3.96389819310853     8.61386170102686
C   33   6    -1.01100794811226    -1.06331657314144     3.11929490449947
C   34   6     0.37686231036534    -0.33275864505552     1.09165013605873
H   35   1    -3.01671213906703    -1.40297922279997     2.77827895090944
C   36   6    -0.64382707979370    -0.11591880174385    -1.42063131251064
H   37   1     2.35569259782137     0.17174499283897     1.33641070251401
H   38   1    -2.63317482980319    -0.60229203511219    -1.66119700387645
C   39   6     1.36441264344082     1.79875350819652   -12.72695837882209
C   40   6     0.39042169983249     1.16479015456541   -15.22824898409742
H   41   1     3.11744943935123     2.87075295695162   -12.65315109008398
O   42   8     1.39604269582139     1.74939992973347   -17.22017818748739
H   43   1    -1.40767336523230     0.06622817248511   -15.21429812709214
[GTO]
1 0
 s    6 1.00
             3047.5249  0.0018347001629433
             457.36951    0.01403730124668
             103.94869   0.068842606114048
             29.210155    0.23218442062076
              9.286663    0.46794134155879
              3.163927    0.36231203217765
 s    3 1.00
             7.8682724   -0.11933240861517
             1.8812885   -0.16085421161283
             0.5442493     1.1434564825515
 s    1 1.00
             0.1687144                   1
 p    3 1.00
             7.8682724   0.068999095584993
             1.8812885    0.31642397975315
             0.5442493    0.74430825237435
 p    1 1.00
             0.1687144                   1
 d    1 1.00
                   0.8                   1

2 0
 s    3 1.00
             18.731137    0.03349459952309
             2.8253937    0.23472694665786
             0.6401217    0.81375731841339
 s    1 1.00
             0.1612778                   1

3 0
 s    6 1.00
             3047.5249  0.0018347001629433
             457.36951    0.01403730124668
             103.94869   0.068842606114048
             29.210155    0.23218442062076
              9.286663    0.46794134155879
              3.163927    0.36231203217765
 s    3 1.00
             7.8682724   -0.11933240861517
             1.8812885   -0.16085421161283
             0.5442493     1.1434564825515
 s    1 1.00
             0.1687144                   1
 p    3 1.00
             7.8682724   0.068999095584993
             1.8812885    0.31642397975315
             0.5442493    0.74430825237435
 p    1 1.00
             0.1687144                   1
 d    1 1.00
                   0.8                   1

4 0
 s    3 1.00
             18.731137    0.03349459952309
             2.8253937    0.23472694665786
             0.6401217    0.81375731841339
 s    1 1.00
             0.1612778                   1

5 0
 s    6 1.00
             3047.5249  0.0018347001629433
             457.36951    0.01403730124668
             103.94869   0.068842606114048
             29.210155    0.23218442062076
              9.286663    0.46794134155879
              3.163927    0.36231203217765
 s    3 1.00
             7.8682724   -0.11933240861517
             1.8812885   -0.16085421161283
             0.5442493     1.1434564825515
 s    1 1.00
             0.1687144                   1
 p    3 1.00
             7.8682724   0.068999095584993
             1.8812885    0.31642397975315
             0.5442493    0.74430825237435
 p    1 1.00
             0.1687144                   1
 d    1 1.00
                   0.8                   1

6 0
 s    3 1.00
             18.731137    0.03349459952309
             2.8253937    0.23472694665786
             0.6401217    0.81375731841339
 s    1 1.00
             0.1612778                   1

7 0
 s    6 1.00
             3047.5249  0.0018347001629433
             457.36951    0.01403730124668
             103.94869   0.068842606114048
             29.210155    0.23218442062076
              9.286663    0.46794134155879
              3.163927    0.36231203217765
 s    3 1.00
             7.8682724   -0.11933240861517
             1.8812885   -0.16085421161283
             0.5442493     1.1434564825515
 s    1 1.00
             0.1687144                   1
 p    3 1.00
             7.8682724   0.068999095584993
             1.8812885    0.31642397975315
             0.5442493    0.74430825237435
 p    1 1.00
             0.1687144                   1
 d    1 1.00
                   0.8                   1

8 0
 s    3 1.00
             18.731137    0.03349459952309
             2.8253937    0.23472694665786
             0.6401217    0.81375731841339
 s    1 1.00
             0.1612778                   1

9 0
 s    3 1.00
             18.731137    0.03349459952309
             2.8253937    0.23472694665786
             0.6401217    0.81375731841339
 s    1 1.00
             0.1612778                   1

10 0
 s    6 1.00
             3047.5249  0.0018347001629433
             457.36951    0.01403730124668
             103.94869   0.068842606114048
             29.210155    0.23218442062076
              9.286663    0.46794134155879
              3.163927    0.36231203217765
 s    3 1.00
             7.8682724   -0.11933240861517
             1.8812885   -0.16085421161283
             0.5442493     1.1434564825515
 s    1 1.00
             0.1687144                   1
 p    3 1.00
             7.8682724   0.068999095584993
             1.8812885    0.31642397975315
             0.5442493    0.74430825237435
 p    1 1.00
             0.1687144                   1
 d    1 1.00
                   0.8                   1

11 0
 s    3 1.00
             18.731137    0.03349459952309
             2.8253937    0.23472694665786
             0.6401217    0.81375731841339
 s    1 1.00
             0.1612778                   1

12 0
 s    6 1.00
             3047.5249  0.0018347001629433
             457.36951    0.01403730124668
             103.94869   0.068842606114048
             29.210155    0.23218442062076
              9.286663    0.46794134155879
              3.163927    0.36231203217765
 s    3 1.00
             7.8682724   -0.11933240861517
             1.8812885   -0.16085421161283
             0.5442493     1.1434564825515
 s    1 1.00
             0.1687144                   1
 p    3 1.00
             7.8682724   0.068999095584993
             1.8812885    0.31642397975315
             0.5442493    0.74430825237435
 p    1 1.00
             0.1687144                   1
 d    1 1.00
                   0.8                   1

13 0
 s    3 1.00
             18.731137    0.03349459952309
             2.8253937    0.23472694665786
             0.6401217    0.81375731841339
 s    1 1.00
             0.1612778                   1

14 0
 s    3 1.00
             18.731137    0.03349459952309
             2.8253937    0.23472694665786
             0.6401217    0.81375731841339
 s    1 1.00
             0.1612778                   1

15 0
 s    6 1.00
             3047.5249  0.0018347001629433
             457.36951    0.01403730124668
             103.94869   0.068842606114048
             29.210155    0.23218442062076
              9.286663    0.46794134155879
              3.163927    0.36231203217765
 s    3 1.00
             7.8682724   -0.11933240861517
             1.8812885   -0.16085421161283
             0.5442493     1.1434564825515
 s    1 1.00
             0.1687144                   1
 p    3 1.00
             7.8682724   0.068999095584993
             1.8812885    0.31642397975315
             0.5442493    0.74430825237435
 p    1 1.00
             0.1687144                   1
 d    1 1.00
                   0.8                   1

16 0
 s    6 1.00
             3047.5249  0.0018347001629433
             457.36951    0.01403730124668
             103.94869   0.068842606114048
             29.210155    0.23218442062076
              9.286663    0.46794134155879
              3.163927    0.36231203217765
 s    3 1.00
             7.8682724   -0.11933240861517
             1.8812885   -0.16085421161283
             0.5442493     1.1434564825515
 s    1 1.00
             0.1687144                   1
 p    3 1.00
             7.8682724   0.068999095584993
             1.8812885    0.31642397975315
             0.5442493    0.74430825237435
 p    1 1.00
             0.1687144                   1
 d    1 1.00
                   0.8                   1

17 0
 s    6 1.00
             3047.5249  0.0018347001629433
             457.36951    0.01403730124668
             103.94869   0.068842606114048
             29.210155    0.23218442062076
              9.286663    0.46794134155879
              3.163927    0.36231203217765
 s    3 1.00
             7.8682724   -0.11933240861517
             1.8812885   -0.16085421161283
             0.5442493     1.1434564825515
 s    1 1.00
             0.1687144                   1
 p    3 1.00
             7.8682724   0.068999095584993
             1.8812885    0.31642397975315
             0.5442493    0.74430825237435
 p    1 1.00
             0.1687144                   1
 d    1 1.00
                   0.8                   1

18 0
 s    6 1.00
             3047.5249  0.0018347001629433
             457.36951    0.01403730124668
             103.94869   0.068842606114048
             29.210155    0.23218442062076
              9.286663    0.46794134155879
              3.163927    0.36231203217765
 s    3 1.00
             7.8682724   -0.11933240861517
             1.8812885   -0.16085421161283
             0.5442493     1.1434564825515
 s    1 1.00
             0.1687144                   1
 p    3 1.00
             7.8682724   0.068999095584993
             1.8812885    0.31642397975315
             0.5442493    0.74430825237435
 p    1 1.00
             0.1687144                   1
 d    1 1.00
                   0.8                   1

19 0
 s    6 1.00
             3047.5249  0.0018347001629433
             457.36951    0.01403730124668
             103.94869   0.068842606114048
             29.210155    0.23218442062076
              9.286663    0.46794134155879
              3.163927    0.36231203217765
 s    3 1.00
             7.8682724   -0.11933240861517
             1.8812885   -0.16085421161283
             0.5442493     1.1434564825515
 s    1 1.00
             0.1687144                   1
 p    3 1.00
             7.8682724   0.068999095584993
             1.8812885    0.31642397975315
             0.5442493    0.74430825237435
 p    1 1.00
             0.1687144                   1
 d    1 1.00
                   0.8                   1

20 0
 s    6 1.00
             3047.5249  0.0018347001629433
             457.36951    0.01403730124668
             103.94869   0.068842606114048
             29.210155    0.23218442062076
              9.286663    0.46794134155879
              3.163927    0.36231203217765
 s    3 1.00
             7.8682724   -0.11933240861517
             1.8812885   -0.16085421161283
             0.5442493     1.1434564825515
 s    1 1.00
             0.1687144                   1
 p    3 1.00
             7.8682724   0.068999095584993
             1.8812885    0.31642397975315
             0.5442493    0.74430825237435
 p    1 1.00
             0.1687144                   1
 d    1 1.00
                   0.8                   1

21 0
 s    6 1.00
             3047.5249  0.0018347001629433
             457.36951    0.01403730124668
             103.94869   0.068842606114048
             29.210155    0.23218442062076
              9.286663    0.46794134155879
              3.163927    0.36231203217765
 s    3 1.00
             7.8682724   -0.11933240861517
             1.8812885   -0.16085421161283
             0.5442493     1.1434564825515
 s    1 1.00
             0.1687144                   1
 p    3 1.00
             7.8682724   0.068999095584993
             1.8812885    0.31642397975315
             0.5442493    0.74430825237435
 p    1 1.00
             0.1687144                   1
 d    1 1.00
                   0.8                   1

22 0
 s    3 1.00
             18.731137    0.03349459952309
             2.8253937    0.23472694665786
             0.6401217    0.81375731841339
 s    1 1.00
             0.1612778                   1

23 0
 s    3 1.00
             18.731137    0.03349459952309
             2.8253937    0.23472694665786
             0.6401217    0.81375731841339
 s    1 1.00
             0.1612778                   1

24 0
 s    3 1.00
             18.731137    0.03349459952309
             2.8253937    0.23472694665786
             0.6401217    0.81375731841339
 s    1 1.00
             0.1612778                   1

25 0
 s    3 1.00
             18.731137    0.03349459952309
             2.8253937    0.23472694665786
             0.6401217    0.81375731841339
 s    1 1.00
             0.1612778                   1

26 0
 s    3 1.00
             18.731137    0.03349459952309
             2.8253937    0.23472694665786
             0.6401217    0.81375731841339
 s    1 1.00
             0.1612778                   1

27 0
 s    3 1.00
             18.731137    0.03349459952309
             2.8253937    0.23472694665786
             0.6401217    0.81375731841339
 s    1 1.00
             0.1612778                   1

28 0
 s    3 1.00
             18.731137    0.03349459952309
             2.8253937    0.23472694665786
             0.6401217    0.81375731841339
 s    1 1.00
             0.1612778                   1

29 0
 s    3 1.00
             18.731137    0.03349459952309
             2.8253937    0.23472694665786
             0.6401217    0.81375731841339
 s    1 1.00
             0.1612778                   1

30 0
 s    3 1.00
             18.731137    0.03349459952309
             2.8253937    0.23472694665786
             0.6401217    0.81375731841339
 s    1 1.00
             0.1612778                   1

31 0
 s    3 1.00
             18.731137    0.03349459952309
             2.8253937    0.23472694665786
             0.6401217    0.81375731841339
 s    1 1.00
             0.1612778                   1

32 0
 s    3 1.00
             18.731137    0.03349459952309
             2.8253937    0.23472694665786
             0.6401217    0.81375731841339
 s    1 1.00
             0.1612778                   1

33 0
 s    6 1.00
             3047.5249  0.0018347001629433
             457.36951    0.01403730124668
             103.94869   0.068842606114048
             29.210155    0.23218442062076
              9.286663    0.46794134155879
              3.163927    0.36231203217765
 s    3 1.00
             7.8682724   -0.11933240861517
             1.8812885   -0.16085421161283
             0.5442493     1.1434564825515
 s    1 1.00
             0.1687144                   1
 p    3 1.00
             7.8682724   0.068999095584993
             1.8812885    0.31642397975315
             0.5442493    0.74430825237435
 p    1 1.00
             0.1687144                   1
 d    1 1.00
                   0.8                   1

34 0
 s    6 1.00
             3047.5249  0.0018347001629433
             457.36951    0.01403730124668
             103.94869   0.068842606114048
             29.210155    0.23218442062076
              9.286663    0.46794134155879
              3.163927    0.36231203217765
 s    3 1.00
             7.8682724   -0.11933240861517
             1.8812885   -0.16085421161283
             0.5442493     1.1434564825515
 s    1 1.00
             0.1687144                   1
 p    3 1.00
             7.8682724   0.068999095584993
             1.8812885    0.31642397975315
             0.5442493    0.74430825237435
 p    1 1.00
             0.1687144                   1
 d    1 1.00
                   0.8                   1

35 0
 s    3 1.00
             18.731137    0.03349459952309
             2.8253937    0.23472694665786
             0.6401217    0.81375731841339
 s    1 1.00
             0.1612778                   1

36 0
 s    6 1.00
             3047.5249  0.0018347001629433
             457.36951    0.01403730124668
             103.94869   0.068842606114048
             29.210155    0.23218442062076
              9.286663    0.46794134155879
              3.163927    0.36231203217765
 s    3 1.00
             7.8682724   -0.11933240861517
             1.8812885   -0.16085421161283
             0.5442493     1.1434564825515
 s    1 1.00
             0.1687144                   1
 p    3 1.00
             7.8682724   0.068999095584993
             1.8812885    0.31642397975315
             0.5442493    0.74430825237435
 p    1 1.00
             0.1687144                   1
 d    1 1.00
                   0.8                   1

37 0
 s    3 1.00
             18.731137    0.03349459952309
             2.8253937    0.23472694665786
             0.6401217    0.81375731841339
 s    1 1.00
             0.1612778                   1

38 0
 s    3 1.00
             18.731137    0.03349459952309
             2.8253937    0.23472694665786
             0.6401217    0.81375731841339
 s    1 1.00
             0.1612778                   1

39 0
 s    6 1.00
             3047.5249  0.0018347001629433
             457.36951    0.01403730124668
             103.94869   0.068842606114048
             29.210155    0.23218442062076
              9.286663    0.46794134155879
              3.163927    0.36231203217765
 s    3 1.00
             7.8682724   -0.11933240861517
             1.8812885   -0.16085421161283
             0.5442493     1.1434564825515
 s    1 1.00
             0.1687144                   1
 p    3 1.00
             7.8682724   0.068999095584993
             1.8812885    0.31642397975315
             0.5442493    0.74430825237435
 p    1 1.00
             0.1687144                   1
 d    1 1.00
                   0.8                   1

40 0
 s    6 1.00
             3047.5249  0.0018347001629433
             457.36951    0.01403730124668
             103.94869   0.068842606114048
             29.210155    0.23218442062076
              9.286663    0.46794134155879
              3.163927    0.36231203217765
 s    3 1.00
             7.8682724   -0.11933240861517
             1.8812885   -0.16085421161283
             0.5442493     1.1434564825515
 s    1 1.00
             0.1687144                   1
 p    3 1.00
             7.8682724   0.068999095584993
             1.8812885    0.31642397975315
             0.5442493    0.74430825237435
 p    1 1.00
             0.1687144                   1
 d    1 1.00
                   0.8                   1

41 0
 s    3 1.00
             18.731137    0.03349459952309
             2.8253937    0.23472694665786
             0.6401217    0.81375731841339
 s    1 1.00
             0.1612778                   1

42 0
 s    6 1.00
             5484.6717   0.001831099805527
             825.23495   0.013950098518422
             188.04696    0.06844509273075
               52.9645    0.23271427528445
              16.89757    0.47019295006289
             5.7996353    0.35852086192309
 s    3 1.00
             15.539616   -0.11077750382508
             3.5999336   -0.14802630511126
             1.0137618     1.1307670390447
 s    1 1.00
             0.2700058                   1
 p    3 1.00
             15.539616   0.070874299543311
             3.5999336    0.33975279781076
             1.0137618    0.72715859531445
 p    1 1.00
             0.2700058                   1
 d    1 1.00
                   0.8                   1

43 0
 s    3 1.00
             18.731137    0.03349459952309
             2.8253937    0.23472694665786
             0.6401217    0.81375731841339
 s    1 1.00
             0.1612778                   1

[5d]
[7f]
[9g]

[MO]
 Sym= A
 Ene=               0
 Spin= Alpha
 Occup=    1.00000
   1     4.09022429416e-06
   2    4.3999628047305e-05
   3    9.1625956039476e-05
   4    1.6384011692913e-05
   5    3.4573633524012e-05
   6    -3.5450060695853e-05
   7    -0.00026116219716333
   8    -0.00030775771045202
   9    0.00089776114366565
  10    -2.1391416491248e-05
  11    -3.2481974266344e-05
  12    -7.7696061649087e-07
  13    -4.8521059646696e-06
  14    7.4920878297898e-07
  15    4.8363110142142e-05
  16    3.4419347807171e-05
  17    -1.8059729201734e-05
  18    -7.3321008719921e-05
  19    0.0021318580165099
  20    1.7717881972993e-05
  21    -2.8063820490721e-06
  22    -6.7816995013188e-05
  23    0.00044259434160364
  24    0.00018836817443555
  25    -0.00076586163332004
  26    6.0235672012828e-05
  27    -1.6977738724626e-05
  28    -2.5130621327816e-05
  29    1.3914349317103e-05
  30    -2.4756997762059e-05
  31    -4.612986357213e-06
  32    -0.0001068470679008
  33    6.6270287311138e-05
  34    0.00040668464164148
  35    -0.0057414748581829
  36    -4.4563885381122e-05
  37    -9.1881883077085e-06
  38    0.00011144376545826
  39    0.0018379592367683
  40    0.0010899619635169
  41    0.0014979013292645
  42    -0.00017128542765563
  43    -3.9726392815576e-05
  44    -3.5042003631899e-05
  45    -2.202094276302e-05
  46    -5.0071226892022e-05
  47    -4.4399204542208e-05
  48    -0.00034604741792286
  49    3.9579420756163e-05
  50    0.00015766314428376
  51    0.0043884077703477
  52    -8.5269756718934e-05
  53    -6.8002681251274e-05
  54    -0.00040947421279243
  55    0.0014918785644739
  56      0.00101984723363
  57    0.0040676454633416
  58    0.00011780408028374
  59    0.00017508151647419
  60    0.00011187665516262
  61    -5.2364107521623e-05
  62    -9.1192902172052e-05
  63     0.000317021200359
  64    0.00012906475997303
  65    1.0108854453542e-07
  66    -1.8534939947526e-06
  67    1.2210698122807e-07
  68    1.3275213100379e-06
  69    3.7254658756819e-07
  70    -7.8387764721868e-07
  71    8.8644536477023e-07
  72    -4.1056446381699e-07
  73    -2.0442332598827e-06
  74    -5.3186687128648e-07
  75    2.6540122397871e-06
  76    -2.4035817140718e-07
  77    -7.6756101972006e-08
  78    -1.4029397329086e-07
  79    -1.0808614264202e-07
  80    -8.2034693251122e-08
  81    -1.1364485142864e-07
  82    -6.6444145775259e-07
  83    -2.6953175058504e-07
  84    -1.8716629955539e-06
  85    9.6920867203308e-06
  86    -3.8585615553104e-07
  87    -6.2815871042131e-08
  88    -6.9651321992918e-07
  89    -4.9430708150902e-06
  90    8.1424951303331e-06
  91    -3.3959798517138e-07
  92    1.2059548473906e-07
  93    4.650843919037e-07
  94    -8.8794012353979e-07
  95    3.0993750542241e-07
  96    1.4881002170362e-09
  97    -1.2994263556911e-06
  98    -5.8748771931934e-07
  99    3.0649702751107e-07
 100    1.4644252145943e-06
 101    6.0660494779683e-07
 102    2.4546562663583e-06
 103    -7.9374431368823e-05
 104    9.491864838204e-07
 105    -2.4721527590314e-07
 106    2.2579751325761e-06
 107    3.2284872300814e-05
 108    -3.3088318651532e-05
 109    5.1870081519955e-06
 110    -6.9888538976468e-07
 111    -1.1132585231708e-06
 112    4.927661484122e-07
 113    5.3828497031444e-07
 114    1.5755917675684e-06
 115    -3.689738440245e-07
 116    -4.0796578435711e-06
 117    7.4886808205455e-06
 118    4.2502709976477e-07
 119    -1.6118620318253e-06
 120    1.4034525330622e-06
 121    -3.6300307420526e-06
 122    1.0812355902645e-05
 123    -1.5962229658794e-05
 124    -5.2089253939557e-07
 125    5.7000461330267e-07
 126    6.4715980018673e-07
 127    1.2993423196523e-07
 128    1.792210167816e-07
 129    -3.2608792304062e-07
 130    -3.0437626960905e-06
 131    -4.4498889877354e-05
 132    -5.3162665223573e-06
 133    -1.4695123477344e-06
 134    3.6567061936779e-06
 135    0.00010780004039159
 136    -8.9369666645574e-06
 137    3.104901992675e-05
 138    -9.9164045341381e-07
 139    -9.2278339925971e-07
 140    -2.5046216299512e-06
 141    3.3268031513385e-07
 142    -1.6762476357761e-06
 143    1.1302422318635e-08
 144    2.0033498644614e-06
 145    3.3831161401532e-05
 146    3.7395013828593e-07
 147    1.2416112594752e-06
 148    -4.8056188149765e-06
 149    1.0907052299647e-05
 150    -3.4983413210474e-05
 151    1.6393297523772e-05
 152    9.0875764898538e-07
 153    -1.8429223878591e-07
 154    1.9404888687597e-06
 155    1.285190236062e-07
 156    9.6524746795794e-07
 157    -6.1428007557256e-07
 158    -4.9189937056138e-06
 159    2.9694154299694e-05
 160    -3.782923741724e-07
 161    -7.9384092975588e-07
 162    9.585833054286e-07
 163    9.9971538683259e-06
 164    -1.1460132497432e-05
 165    -1.7587227988205e-06
 166    -1.0181964004223e-06
 167    3.0510242025607e-07
 168    -2.1061446277776e-07
 169    -4.2798057737123e-07
 170    -7.7030192300402e-07
 171    -5.5687974387289e-08
 172    -2.515265326173e-07
 173    -3.6381908660453e-06
 174    1.3481624144388e-07
 175    2.2059229371489e-07
 176    -1.3999532999531e-06
 177    -1.1369995906426e-05
 178    -3.8703785553711e-06
 179    -5.1512588851415e-06
 180    3.1129180839281e-07
 181    -1.3188099141158e-06
 182    -1.9123975652946e-08
 183    -6.9270951206152e-07
 184    -9.919171420196e-07
 185    6.6510767323119e-07
 186    5.608472773375e-06
 187    -2.65471570252e-05
 188    1.0779120092169e-06
 189    7.6594353335889e-08
 190    1.2577515588709e-07
 191    4.5911847180975e-07
 192    9.2955747430618e-06
 193    1.2675131918302e-05
 194    -5.3867587427338e-07
 195    -7.4927422565327e-07
 196    -1.4374395560511e-06
 197    4.3831135821361e-07
 198    -3.3492115029145e-07
 199    1.6706797677293e-06
 200    -1.4325103307331e-06
 201    3.9751586780001e-07
 202    -1.4843830855025e-06
 203    8.8501552484254e-07
 204    6.3786083056793e-06
 205    -2.7805851482275e-06
 206    -6.9097975292442e-07
 207    3.5057482224271e-07
 208    -1.569542182631e-05
 209    -2.2114653161707e-06
 210    -5.5400543753089e-08
 211    -1.8001325329587e-06
 212    -3.2903577036318e-06
 213    -4.9493519088271e-07
 214    3.2178638403174e-06
 215    2.5904675779788e-06
 216    -1.6291240502592e-05
 217    -7.0581682211629e-07
 218    -1.1740297742506e-07
 219    -7.33507197865e-07
 220    2.161409256186e-06
 221    3.3229372310625e-06
 222    2.1066236198422e-05
 223    -0.00023531904954899
 224    -5.812113525905e-06
 225    4.5629223585498e-08
 226    -5.4927790413113e-07
 227    -3.9803982982207e-05
 228    -5.0060858737401e-05
 229    0.00025633955695412
 230    -5.5047220231558e-06
 231    8.5508677416828e-06
 232    5.9347542351563e-06
 233    -3.0447356343673e-06
 234    -2.2048924766899e-06
 235    -7.270823352825e-06
 236    -4.1776983784837e-05
 237    0.00069388140098845
 238    3.700177894412e-06
 239    5.9391937105711e-06
 240    -1.6282967108575e-05
 241    -0.00021765339897015
 242    -5.4477746730299e-05
 243    -9.9081689398318e-05
 244    1.883933230306e-05
 245    -3.1098687468616e-06
 246    -5.3802962895568e-06
 247    1.3248872632345e-06
 248    3.6095563061366e-06
 249    1.0230180265037e-05
 250    1.8764650505635e-05
 251    6.0775151424444e-06
 252    4.5123991544386e-05
 253    -0.0010167215769684
 254    1.0700125698014e-05
 255    -1.2506224811258e-05
 256    3.3185339334479e-05
 257    -0.00044924093545835
 258    -5.5480947572747e-05
 259    -9.4725215448708e-05
 260    -1.8647038636194e-05
 261    5.2770816882287e-06
 262    5.8192891050869e-06
 263    -6.4580473222118e-06
 264    -8.4071406873323e-07
 265    7.3986031237391e-06
 266    6.7083114987999e-06
 267    -2.5743820521827e-05
 268    -6.1951016634095e-05
 269    -1.1982309966158e-05
 270    -5.6894784685984e-05
 271    0.0033328756685183
 272    -0.00016956844055442
 273    -0.00010286238324255
 274    -3.5985829543735e-05
 275    0.0016007141495895
 276    0.00090212091339627
 277    -0.0039035213970456
 278    0.00038749453793698
 279    -7.5522495414815e-05