[Molden Format]
made by pyscf v[2.0.1]
[Atoms] (AU)
C   1   6     0.69100024066471     0.64692934207205    -3.48223131169301
H   2   1     2.68052439830868     1.13355088658700    -3.25784032593313
C   3   6    -0.36286361513219     0.85440132524594    -5.97030179418974
H   4   1    -2.35448549047279     0.36322488579172    -6.17995817793143
C   5   6     0.93697958957450     1.61209284601821    -8.05828437677121
H   6   1     0.01358296644616     2.85086245433209    -9.41980240085128
C   7   6     3.49095983212942     0.86501358647737    -8.58301400036413
H   8   1     4.39173101664678    -0.37544723242066    -7.20113468241566
H   9   1     1.55630230933075    -1.92953025305990    12.99630010416247
C   10   6     0.75233899775814    -2.21270439606481    11.10705728102219
H   11   1    -0.43433408177274    -3.90944857546550    11.22216085340412
C   12   6     2.86362581178706    -2.63237380607947     9.17926416456045
H   13   1     4.39038949912609    -1.24955421540245     9.49899813497433
H   14   1     3.74629220191363    -4.48798724300892     9.47414880959024
C   15   6     2.02478325613682    -2.42177285709634     6.44560829588644
C   16   6     3.88048732735477    -3.58795445234514     4.61402886975252
C   17   6    -0.18412382258602    -1.30464291234259     5.76021113872346
C   18   6    -2.10044360464350    -0.26837831858460     7.71610340967100
C   19   6    -3.08956938670431     2.35282328359417     6.88693925039594
C   20   6    -4.37372924086464    -2.09766595989678     7.93610724222001
C   21   6    -0.83850430601230     0.06372213486173    10.33002307638377
H   22   1     0.38411922151109     1.74281358582432    10.27380136542181
H   23   1    -2.30980003007874     0.45460143924521    11.73986301809809
H   24   1     4.58527064644668    -5.38706904487420     5.36778158031719
H   25   1     5.54944938085014    -2.37631462192748     4.35398898413318
H   26   1     3.06633019150423    -3.94118377050688     2.75255466040884
H   27   1    -4.17727778763735     2.26573369139522     5.12914900961283
H   28   1    -1.52662344944051     3.68001877445626     6.59540397144508
H   29   1    -4.32916174397830     3.13643051467482     8.35225460090378
H   30   1    -5.32329548508442    -2.36691813602939     6.11583672749896
H   31   1    -5.77989366602257    -1.33896741843465     9.25748940450990
H   32   1    -3.79310905208926    -3.96389819310853     8.61386170102686
C   33   6    -1.01100794811226    -1.06331657314144     3.11929490449947
C   34   6     0.37686231036534    -0.33275864505552     1.09165013605873
H   35   1    -3.01671213906703    -1.40297922279997     2.77827895090944
C   36   6    -0.64382707979370    -0.11591880174385    -1.42063131251064
H   37   1     2.35569259782137     0.17174499283897     1.33641070251401
H   38   1    -2.63317482980319    -0.60229203511219    -1.66119700387645
C   39   6     4.85727779250226     1.56932506344372   -10.63578143211247
C   40   6     7.45078580641309     0.70440198785573   -10.99998857146552
H   41   1     4.07326566832422     2.80126406203857   -12.08333786763668
O   42   8     8.78463246786107     1.26137953491899   -12.79761289932761
H   43   1     8.17650804893433    -0.55247504818230    -9.47232163774676
[GTO]
1 0
 s    6 1.00
             3047.5249  0.0018347001629433
             457.36951    0.01403730124668
             103.94869   0.068842606114048
             29.210155    0.23218442062076
              9.286663    0.46794134155879
              3.163927    0.36231203217765
 s    3 1.00
             7.8682724   -0.11933240861517
             1.8812885   -0.16085421161283
             0.5442493     1.1434564825515
 s    1 1.00
             0.1687144                   1
 p    3 1.00
             7.8682724   0.068999095584993
             1.8812885    0.31642397975315
             0.5442493    0.74430825237435
 p    1 1.00
             0.1687144                   1
 d    1 1.00
                   0.8                   1

2 0
 s    3 1.00
             18.731137    0.03349459952309
             2.8253937    0.23472694665786
             0.6401217    0.81375731841339
 s    1 1.00
             0.1612778                   1

3 0
 s    6 1.00
             3047.5249  0.0018347001629433
             457.36951    0.01403730124668
             103.94869   0.068842606114048
             29.210155    0.23218442062076
              9.286663    0.46794134155879
              3.163927    0.36231203217765
 s    3 1.00
             7.8682724   -0.11933240861517
             1.8812885   -0.16085421161283
             0.5442493     1.1434564825515
 s    1 1.00
             0.1687144                   1
 p    3 1.00
             7.8682724   0.068999095584993
             1.8812885    0.31642397975315
             0.5442493    0.74430825237435
 p    1 1.00
             0.1687144                   1
 d    1 1.00
                   0.8                   1

4 0
 s    3 1.00
             18.731137    0.03349459952309
             2.8253937    0.23472694665786
             0.6401217    0.81375731841339
 s    1 1.00
             0.1612778                   1

5 0
 s    6 1.00
             3047.5249  0.0018347001629433
             457.36951    0.01403730124668
             103.94869   0.068842606114048
             29.210155    0.23218442062076
              9.286663    0.46794134155879
              3.163927    0.36231203217765
 s    3 1.00
             7.8682724   -0.11933240861517
             1.8812885   -0.16085421161283
             0.5442493     1.1434564825515
 s    1 1.00
             0.1687144                   1
 p    3 1.00
             7.8682724   0.068999095584993
             1.8812885    0.31642397975315
             0.5442493    0.74430825237435
 p    1 1.00
             0.1687144                   1
 d    1 1.00
                   0.8                   1

6 0
 s    3 1.00
             18.731137    0.03349459952309
             2.8253937    0.23472694665786
             0.6401217    0.81375731841339
 s    1 1.00
             0.1612778                   1

7 0
 s    6 1.00
             3047.5249  0.0018347001629433
             457.36951    0.01403730124668
             103.94869   0.068842606114048
             29.210155    0.23218442062076
              9.286663    0.46794134155879
              3.163927    0.36231203217765
 s    3 1.00
             7.8682724   -0.11933240861517
             1.8812885   -0.16085421161283
             0.5442493     1.1434564825515
 s    1 1.00
             0.1687144                   1
 p    3 1.00
             7.8682724   0.068999095584993
             1.8812885    0.31642397975315
             0.5442493    0.74430825237435
 p    1 1.00
             0.1687144                   1
 d    1 1.00
                   0.8                   1

8 0
 s    3 1.00
             18.731137    0.03349459952309
             2.8253937    0.23472694665786
             0.6401217    0.81375731841339
 s    1 1.00
             0.1612778                   1

9 0
 s    3 1.00
             18.731137    0.03349459952309
             2.8253937    0.23472694665786
             0.6401217    0.81375731841339
 s    1 1.00
             0.1612778                   1

10 0
 s    6 1.00
             3047.5249  0.0018347001629433
             457.36951    0.01403730124668
             103.94869   0.068842606114048
             29.210155    0.23218442062076
              9.286663    0.46794134155879
              3.163927    0.36231203217765
 s    3 1.00
             7.8682724   -0.11933240861517
             1.8812885   -0.16085421161283
             0.5442493     1.1434564825515
 s    1 1.00
             0.1687144                   1
 p    3 1.00
             7.8682724   0.068999095584993
             1.8812885    0.31642397975315
             0.5442493    0.74430825237435
 p    1 1.00
             0.1687144                   1
 d    1 1.00
                   0.8                   1

11 0
 s    3 1.00
             18.731137    0.03349459952309
             2.8253937    0.23472694665786
             0.6401217    0.81375731841339
 s    1 1.00
             0.1612778                   1

12 0
 s    6 1.00
             3047.5249  0.0018347001629433
             457.36951    0.01403730124668
             103.94869   0.068842606114048
             29.210155    0.23218442062076
              9.286663    0.46794134155879
              3.163927    0.36231203217765
 s    3 1.00
             7.8682724   -0.11933240861517
             1.8812885   -0.16085421161283
             0.5442493     1.1434564825515
 s    1 1.00
             0.1687144                   1
 p    3 1.00
             7.8682724   0.068999095584993
             1.8812885    0.31642397975315
             0.5442493    0.74430825237435
 p    1 1.00
             0.1687144                   1
 d    1 1.00
                   0.8                   1

13 0
 s    3 1.00
             18.731137    0.03349459952309
             2.8253937    0.23472694665786
             0.6401217    0.81375731841339
 s    1 1.00
             0.1612778                   1

14 0
 s    3 1.00
             18.731137    0.03349459952309
             2.8253937    0.23472694665786
             0.6401217    0.81375731841339
 s    1 1.00
             0.1612778                   1

15 0
 s    6 1.00
             3047.5249  0.0018347001629433
             457.36951    0.01403730124668
             103.94869   0.068842606114048
             29.210155    0.23218442062076
              9.286663    0.46794134155879
              3.163927    0.36231203217765
 s    3 1.00
             7.8682724   -0.11933240861517
             1.8812885   -0.16085421161283
             0.5442493     1.1434564825515
 s    1 1.00
             0.1687144                   1
 p    3 1.00
             7.8682724   0.068999095584993
             1.8812885    0.31642397975315
             0.5442493    0.74430825237435
 p    1 1.00
             0.1687144                   1
 d    1 1.00
                   0.8                   1

16 0
 s    6 1.00
             3047.5249  0.0018347001629433
             457.36951    0.01403730124668
             103.94869   0.068842606114048
             29.210155    0.23218442062076
              9.286663    0.46794134155879
              3.163927    0.36231203217765
 s    3 1.00
             7.8682724   -0.11933240861517
             1.8812885   -0.16085421161283
             0.5442493     1.1434564825515
 s    1 1.00
             0.1687144                   1
 p    3 1.00
             7.8682724   0.068999095584993
             1.8812885    0.31642397975315
             0.5442493    0.74430825237435
 p    1 1.00
             0.1687144                   1
 d    1 1.00
                   0.8                   1

17 0
 s    6 1.00
             3047.5249  0.0018347001629433
             457.36951    0.01403730124668
             103.94869   0.068842606114048
             29.210155    0.23218442062076
              9.286663    0.46794134155879
              3.163927    0.36231203217765
 s    3 1.00
             7.8682724   -0.11933240861517
             1.8812885   -0.16085421161283
             0.5442493     1.1434564825515
 s    1 1.00
             0.1687144                   1
 p    3 1.00
             7.8682724   0.068999095584993
             1.8812885    0.31642397975315
             0.5442493    0.74430825237435
 p    1 1.00
             0.1687144                   1
 d    1 1.00
                   0.8                   1

18 0
 s    6 1.00
             3047.5249  0.0018347001629433
             457.36951    0.01403730124668
             103.94869   0.068842606114048
             29.210155    0.23218442062076
              9.286663    0.46794134155879
              3.163927    0.36231203217765
 s    3 1.00
             7.8682724   -0.11933240861517
             1.8812885   -0.16085421161283
             0.5442493     1.1434564825515
 s    1 1.00
             0.1687144                   1
 p    3 1.00
             7.8682724   0.068999095584993
             1.8812885    0.31642397975315
             0.5442493    0.74430825237435
 p    1 1.00
             0.1687144                   1
 d    1 1.00
                   0.8                   1

19 0
 s    6 1.00
             3047.5249  0.0018347001629433
             457.36951    0.01403730124668
             103.94869   0.068842606114048
             29.210155    0.23218442062076
              9.286663    0.46794134155879
              3.163927    0.36231203217765
 s    3 1.00
             7.8682724   -0.11933240861517
             1.8812885   -0.16085421161283
             0.5442493     1.1434564825515
 s    1 1.00
             0.1687144                   1
 p    3 1.00
             7.8682724   0.068999095584993
             1.8812885    0.31642397975315
             0.5442493    0.74430825237435
 p    1 1.00
             0.1687144                   1
 d    1 1.00
                   0.8                   1

20 0
 s    6 1.00
             3047.5249  0.0018347001629433
             457.36951    0.01403730124668
             103.94869   0.068842606114048
             29.210155    0.23218442062076
              9.286663    0.46794134155879
              3.163927    0.36231203217765
 s    3 1.00
             7.8682724   -0.11933240861517
             1.8812885   -0.16085421161283
             0.5442493     1.1434564825515
 s    1 1.00
             0.1687144                   1
 p    3 1.00
             7.8682724   0.068999095584993
             1.8812885    0.31642397975315
             0.5442493    0.74430825237435
 p    1 1.00
             0.1687144                   1
 d    1 1.00
                   0.8                   1

21 0
 s    6 1.00
             3047.5249  0.0018347001629433
             457.36951    0.01403730124668
             103.94869   0.068842606114048
             29.210155    0.23218442062076
              9.286663    0.46794134155879
              3.163927    0.36231203217765
 s    3 1.00
             7.8682724   -0.11933240861517
             1.8812885   -0.16085421161283
             0.5442493     1.1434564825515
 s    1 1.00
             0.1687144                   1
 p    3 1.00
             7.8682724   0.068999095584993
             1.8812885    0.31642397975315
             0.5442493    0.74430825237435
 p    1 1.00
             0.1687144                   1
 d    1 1.00
                   0.8                   1

22 0
 s    3 1.00
             18.731137    0.03349459952309
             2.8253937    0.23472694665786
             0.6401217    0.81375731841339
 s    1 1.00
             0.1612778                   1

23 0
 s    3 1.00
             18.731137    0.03349459952309
             2.8253937    0.23472694665786
             0.6401217    0.81375731841339
 s    1 1.00
             0.1612778                   1

24 0
 s    3 1.00
             18.731137    0.03349459952309
             2.8253937    0.23472694665786
             0.6401217    0.81375731841339
 s    1 1.00
             0.1612778                   1

25 0
 s    3 1.00
             18.731137    0.03349459952309
             2.8253937    0.23472694665786
             0.6401217    0.81375731841339
 s    1 1.00
             0.1612778                   1

26 0
 s    3 1.00
             18.731137    0.03349459952309
             2.8253937    0.23472694665786
             0.6401217    0.81375731841339
 s    1 1.00
             0.1612778                   1

27 0
 s    3 1.00
             18.731137    0.03349459952309
             2.8253937    0.23472694665786
             0.6401217    0.81375731841339
 s    1 1.00
             0.1612778                   1

28 0
 s    3 1.00
             18.731137    0.03349459952309
             2.8253937    0.23472694665786
             0.6401217    0.81375731841339
 s    1 1.00
             0.1612778                   1

29 0
 s    3 1.00
             18.731137    0.03349459952309
             2.8253937    0.23472694665786
             0.6401217    0.81375731841339
 s    1 1.00
             0.1612778                   1

30 0
 s    3 1.00
             18.731137    0.03349459952309
             2.8253937    0.23472694665786
             0.6401217    0.81375731841339
 s    1 1.00
             0.1612778                   1

31 0
 s    3 1.00
             18.731137    0.03349459952309
             2.8253937    0.23472694665786
             0.6401217    0.81375731841339
 s    1 1.00
             0.1612778                   1

32 0
 s    3 1.00
             18.731137    0.03349459952309
             2.8253937    0.23472694665786
             0.6401217    0.81375731841339
 s    1 1.00
             0.1612778                   1

33 0
 s    6 1.00
             3047.5249  0.0018347001629433
             457.36951    0.01403730124668
             103.94869   0.068842606114048
             29.210155    0.23218442062076
              9.286663    0.46794134155879
              3.163927    0.36231203217765
 s    3 1.00
             7.8682724   -0.11933240861517
             1.8812885   -0.16085421161283
             0.5442493     1.1434564825515
 s    1 1.00
             0.1687144                   1
 p    3 1.00
             7.8682724   0.068999095584993
             1.8812885    0.31642397975315
             0.5442493    0.74430825237435
 p    1 1.00
             0.1687144                   1
 d    1 1.00
                   0.8                   1

34 0
 s    6 1.00
             3047.5249  0.0018347001629433
             457.36951    0.01403730124668
             103.94869   0.068842606114048
             29.210155    0.23218442062076
              9.286663    0.46794134155879
              3.163927    0.36231203217765
 s    3 1.00
             7.8682724   -0.11933240861517
             1.8812885   -0.16085421161283
             0.5442493     1.1434564825515
 s    1 1.00
             0.1687144                   1
 p    3 1.00
             7.8682724   0.068999095584993
             1.8812885    0.31642397975315
             0.5442493    0.74430825237435
 p    1 1.00
             0.1687144                   1
 d    1 1.00
                   0.8                   1

35 0
 s    3 1.00
             18.731137    0.03349459952309
             2.8253937    0.23472694665786
             0.6401217    0.81375731841339
 s    1 1.00
             0.1612778                   1

36 0
 s    6 1.00
             3047.5249  0.0018347001629433
             457.36951    0.01403730124668
             103.94869   0.068842606114048
             29.210155    0.23218442062076
              9.286663    0.46794134155879
              3.163927    0.36231203217765
 s    3 1.00
             7.8682724   -0.11933240861517
             1.8812885   -0.16085421161283
             0.5442493     1.1434564825515
 s    1 1.00
             0.1687144                   1
 p    3 1.00
             7.8682724   0.068999095584993
             1.8812885    0.31642397975315
             0.5442493    0.74430825237435
 p    1 1.00
             0.1687144                   1
 d    1 1.00
                   0.8                   1

37 0
 s    3 1.00
             18.731137    0.03349459952309
             2.8253937    0.23472694665786
             0.6401217    0.81375731841339
 s    1 1.00
             0.1612778                   1

38 0
 s    3 1.00
             18.731137    0.03349459952309
             2.8253937    0.23472694665786
             0.6401217    0.81375731841339
 s    1 1.00
             0.1612778                   1

39 0
 s    6 1.00
             3047.5249  0.0018347001629433
             457.36951    0.01403730124668
             103.94869   0.068842606114048
             29.210155    0.23218442062076
              9.286663    0.46794134155879
              3.163927    0.36231203217765
 s    3 1.00
             7.8682724   -0.11933240861517
             1.8812885   -0.16085421161283
             0.5442493     1.1434564825515
 s    1 1.00
             0.1687144                   1
 p    3 1.00
             7.8682724   0.068999095584993
             1.8812885    0.31642397975315
             0.5442493    0.74430825237435
 p    1 1.00
             0.1687144                   1
 d    1 1.00
                   0.8                   1

40 0
 s    6 1.00
             3047.5249  0.0018347001629433
             457.36951    0.01403730124668
             103.94869   0.068842606114048
             29.210155    0.23218442062076
              9.286663    0.46794134155879
              3.163927    0.36231203217765
 s    3 1.00
             7.8682724   -0.11933240861517
             1.8812885   -0.16085421161283
             0.5442493     1.1434564825515
 s    1 1.00
             0.1687144                   1
 p    3 1.00
             7.8682724   0.068999095584993
             1.8812885    0.31642397975315
             0.5442493    0.74430825237435
 p    1 1.00
             0.1687144                   1
 d    1 1.00
                   0.8                   1

41 0
 s    3 1.00
             18.731137    0.03349459952309
             2.8253937    0.23472694665786
             0.6401217    0.81375731841339
 s    1 1.00
             0.1612778                   1

42 0
 s    6 1.00
             5484.6717   0.001831099805527
             825.23495   0.013950098518422
             188.04696    0.06844509273075
               52.9645    0.23271427528445
              16.89757    0.47019295006289
             5.7996353    0.35852086192309
 s    3 1.00
             15.539616   -0.11077750382508
             3.5999336   -0.14802630511126
             1.0137618     1.1307670390447
 s    1 1.00
             0.2700058                   1
 p    3 1.00
             15.539616   0.070874299543311
             3.5999336    0.33975279781076
             1.0137618    0.72715859531445
 p    1 1.00
             0.2700058                   1
 d    1 1.00
                   0.8                   1

43 0
 s    3 1.00
             18.731137    0.03349459952309
             2.8253937    0.23472694665786
             0.6401217    0.81375731841339
 s    1 1.00
             0.1612778                   1

[5d]
[7f]
[9g]

[MO]
 Sym= A
 Ene=               0
 Spin= Alpha
 Occup=    1.00000
   1    -7.6096312700783e-06
   2    -6.6916219799338e-05
   3    0.00090800617132374
   4    -2.5619158302526e-05
   5    2.8741561648525e-05
   6    -2.0767898212089e-06
   7    -7.2064748893605e-05
   8    -8.5726293427138e-05
   9    -0.00054731906516548
  10    2.5568004037034e-05
  11    1.7208117321314e-05
  12    7.1489574410661e-06
  13    -2.9997728838113e-06
  14    2.9902803265081e-06
  15    -1.8683921931171e-05
  16    -3.4678027984588e-05
  17    8.8852719525103e-06
  18    3.607199464677e-05
  19    -0.001664015327432
  20    -3.2366800273098e-05
  21    -7.3903320866354e-06
  22    6.0748341390744e-05
  23    -0.0010731200831636
  24    3.9466994269654e-05
  25    -9.7122220399962e-05
  26    -3.6034914833824e-05
  27    2.9871930067937e-05
  28    -1.5538686047755e-05
  29    -3.0265871013964e-05
  30    -2.7972302139515e-05
  31    -3.7201767217344e-05
  32    -0.0002335764064668
  33    -4.6431007626641e-05
  34    -0.00039329297761648
  35    0.0050103979507597
  36    8.3825225033653e-05
  37    1.280557818735e-05
  38    -8.9216530696811e-05
  39    0.0021091812967955
  40    -0.001241932847692
  41    0.00073836624115378
  42    -2.5358793554584e-05
  43    -8.3812369151506e-05
  44    -2.7596636725516e-05
  45    0.00011713808761716
  46    -7.411577919877e-05
  47    3.1845727683883e-05
  48    0.00040329988405161
  49    -3.1930140895457e-05
  50    -5.1736581028491e-05
  51    -0.0040124547780846
  52    -0.00031803206276563
  53    0.00012600198569941
  54    3.4563378795915e-05
  55    0.0040321164811044
  56    -0.001371235896632
  57    -0.00061052488821664
  58    0.00017100378761357
  59    -3.037496976562e-06
  60    -0.00015390032648741
  61    -0.00010910166506894
  62    7.2548850560396e-05
  63    -0.00026683231563606
  64    -0.00014243270368147
  65    -8.9924338125537e-08
  66    1.0980370632355e-06
  67    -2.0849246878535e-08
  68    -2.9220826882742e-07
  69    -1.5339879578043e-06
  70    5.0653330895724e-08
  71    -2.8317794131878e-07
  72    4.1721847034473e-08
  73    1.2266936476599e-06
  74    9.9207846499191e-07
  75    -3.5073633085511e-07
  76    2.2782544669758e-07
  77    1.9758282598887e-07
  78    2.3780271645135e-08
  79    8.7526945090393e-08
  80    2.0228529857271e-07
  81    1.5434487957988e-07
  82    1.1796779995778e-06
  83    1.8347839164997e-07
  84    1.8109390804305e-06
  85     1.12099134462e-05
  86    -1.5493814546509e-07
  87    8.9802831225728e-07
  88    -4.9651037447586e-07
  89    3.0241013857123e-07
  90    -4.6174587136789e-06
  91    -5.5389550241687e-06
  92    -2.0514231256387e-07
  93    4.0753984099742e-08
  94    3.0235616952774e-07
  95    -3.2001509621282e-07
  96    2.1989337117284e-07
  97    9.6590211367012e-07
  98    1.7979290936169e-06
  99    -9.3794886819958e-07
 100    -1.8167070062676e-06
 101    -6.7927735079438e-07
 102    -1.9184275602481e-06
 103    5.2459842516452e-05
 104    -3.2638718863846e-06
 105    -1.2086891566713e-06
 106    -4.6710682136029e-07
 107    -4.1614610508085e-06
 108    3.9695189743587e-06
 109    -4.6743635912474e-05
 110    6.7545514718093e-07
 111    1.3828153042116e-06
 112    -5.4142045101325e-07
 113    1.4674524258364e-07
 114    -3.34581182586e-07
 115    2.5371027848064e-07
 116    3.9410946997605e-06
 117    -2.8378374113422e-05
 118    2.944967575233e-07
 119    8.0559338130574e-07
 120    -2.4177324449623e-06
 121    1.2591292954744e-05
 122    -1.3369672652355e-05
 123    -1.985077968397e-06
 124    5.7727916039062e-07
 125    1.417803310045e-07
 126    -7.1517239635476e-07
 127    -4.6555029509835e-07
 128    4.6949472776806e-07
 129    9.7420147920774e-07
 130    7.9707123186445e-06
 131    -5.8809987935108e-05
 132    2.2272360056772e-06
 133    -3.4500138177139e-06
 134    -4.0071539807013e-06
 135    -5.2996939808646e-05
 136    1.5805975946517e-05
 137    8.9850846066585e-05
 138    -2.8665353675046e-06
 139    -1.1282092163457e-06
 140    1.3659716641427e-06
 141    -4.42317144053e-07
 142    1.5956193991762e-06
 143    9.7084615281297e-07
 144    5.1646665578569e-06
 145    -6.3145799516966e-05
 146    -2.7561223500405e-07
 147    6.1505017155219e-07
 148    3.8960858420337e-06
 149    -3.2143250049225e-05
 150    2.2206964089303e-05
 151    -5.2111700281904e-06
 152    2.2200289935703e-07
 153    4.3021280494455e-07
 154    -9.5456331447432e-07
 155    -8.466884020771e-07
 156    5.9065167667568e-07
 157    3.5106468156497e-07
 158    2.7714872109859e-06
 159    -1.6102933984729e-05
 160    3.4961650953446e-07
 161    1.2574947172426e-08
 162    2.7235244578684e-07
 163    1.4195419548436e-06
 164    5.9482224420136e-06
 165    2.0356627150378e-06
 166    1.512598326189e-08
 167    3.1051395865877e-07
 168    -8.3421518886615e-08
 169    5.0986199356937e-07
 170    -1.3139673728007e-07
 171    2.4278171359559e-08
 172    -2.915094089202e-07
 173    -4.8150822210564e-07
 174    -5.2268102119055e-07
 175    6.0539536850768e-08
 176    7.074412984203e-07
 177    8.8430949518006e-06
 178    -2.2908949697866e-06
 179    1.6000625694789e-06
 180    -1.2178949634727e-07
 181    8.2352737252668e-07
 182    -1.967112166353e-07
 183    8.1694541747474e-07
 184    5.1489818118962e-07
 185    -3.4206541940839e-07
 186    -9.4583540335071e-07
 187    2.2385678330691e-05
 188    -6.7292597430375e-07
 189    -3.4615464650722e-07
 190    -2.3144698819515e-06
 191    -3.3605953664724e-06
 192    -4.5556339529643e-06
 193    -7.9951802867776e-06
 194    4.2449187211761e-07
 195    6.7597870595134e-07
 196    4.1281149880026e-07
 197    -4.9004800366386e-07
 198    4.0847606412445e-07
 199    -6.474024397091e-07
 200    9.547492591174e-07
 201    -7.7298572729871e-07
 202    -3.0673928275131e-06
 203    -6.307790773651e-07
 204    -5.1638143468641e-06
 205    2.4048553969668e-06
 206    1.2095243290193e-06
 207    2.3450251733997e-06
 208    -1.5407885156444e-08
 209    3.0026087732929e-07
 210    5.1504656610993e-06
 211    3.7231487174076e-07
 212    -4.4798073519604e-08
 213    6.7050075491234e-07
 214    -1.1219211741887e-06
 215    -1.6752115438306e-06
 216    9.5282925841145e-06
 217    5.8242304592234e-07
 218    1.7506092251992e-06
 219    -2.4416442964746e-07
 220    -2.9619697492911e-06
 221    -2.1969217024936e-06
 222    -1.5064236897507e-05
 223    0.00026623709092172
 224    -1.9031940650575e-06
 225    1.0035699828441e-05
 226    -4.8005250361449e-06
 227    8.203440082835e-05
 228    1.6714485019057e-05
 229    -5.1887459594875e-05
 230    5.6129401256929e-06
 231    -1.5867863298977e-06
 232    -4.1619467521902e-06
 233    7.6777845580079e-07
 234    7.5315520808256e-07
 235    6.7954985873089e-06
 236    3.3714918050025e-05
 237    -0.00034694677450614
 238    -1.0267228950673e-05
 239    7.1922269998313e-06
 240    -4.3618700716905e-06
 241    0.00015467326251007
 242     5.49671123089e-05
 243    -3.410918905454e-05
 244    -5.4218663258652e-06
 245    1.6138154472462e-06
 246    4.7290311726734e-06
 247    -1.4894563729542e-06
 248    3.7277920686914e-07
 249    1.4503002077116e-06
 250    -8.1627886127691e-06
 251    1.3187543382024e-05
 252    1.6075060818377e-05
 253    9.1118011600933e-05
 254    9.8985585680885e-06
 255    8.4998264269487e-06
 256    4.6526562471445e-06
 257    9.2390631961503e-05
 258    3.1573876288223e-05
 259    0.00029166427739034
 260    -1.9704684679006e-07
 261    8.9870619075263e-06
 262    -2.167185227907e-06
 263    -6.6950518198417e-06
 264    5.2295515763749e-06
 265    -8.4556270152128e-06
 266    -1.564273462637e-05
 267    5.4491697877744e-06
 268    2.4163417258938e-05
 269    -0.00025917938218629
 270    -8.913594838586e-05
 271    -0.0034122747926409
 272    -0.00049385942737291
 273    0.00022460185770982
 274    -6.769619375672e-06
 275    -0.0028262128276549
 276    -0.00080254241326156
 277    0.0032424531645921
 278    5.8809482742561e-05
 279    0.00033469064086798
 280    -0.00013844471460286