[Molden Format]
made by pyscf v[2.0.1]
[Atoms] (AU)
C   1   6     0.69100024066471     0.64692934207205    -3.48223131169301
H   2   1     2.68052439830868     1.13355088658700    -3.25784032593313
C   3   6    -0.36286361513219     0.85440132524594    -5.97030179418974
H   4   1    -2.35448549047279     0.36322488579172    -6.17995817793143
C   5   6     0.93697958957450     1.61209284601821    -8.05828437677121
H   6   1     1.01317567978386     3.61775130597871    -8.51923024455703
C   7   6     2.23318006711868    -0.09916996805052    -9.71591146992396
H   8   1     2.14101227267567    -2.10272353634710    -9.22908458474476
H   9   1     1.55630230933075    -1.92953025305990    12.99630010416247
C   10   6     0.75233899775814    -2.21270439606481    11.10705728102219
H   11   1    -0.43433408177274    -3.90944857546550    11.22216085340412
C   12   6     2.86362581178706    -2.63237380607947     9.17926416456045
H   13   1     4.39038949912609    -1.24955421540245     9.49899813497433
H   14   1     3.74629220191363    -4.48798724300892     9.47414880959024
C   15   6     2.02478325613682    -2.42177285709634     6.44560829588644
C   16   6     3.88048732735477    -3.58795445234514     4.61402886975252
C   17   6    -0.18412382258602    -1.30464291234259     5.76021113872346
C   18   6    -2.10044360464350    -0.26837831858460     7.71610340967100
C   19   6    -3.08956938670431     2.35282328359417     6.88693925039594
C   20   6    -4.37372924086464    -2.09766595989678     7.93610724222001
C   21   6    -0.83850430601230     0.06372213486173    10.33002307638377
H   22   1     0.38411922151109     1.74281358582432    10.27380136542181
H   23   1    -2.30980003007874     0.45460143924521    11.73986301809809
H   24   1     4.58527064644668    -5.38706904487420     5.36778158031719
H   25   1     5.54944938085014    -2.37631462192748     4.35398898413318
H   26   1     3.06633019150423    -3.94118377050688     2.75255466040884
H   27   1    -4.17727778763735     2.26573369139522     5.12914900961283
H   28   1    -1.52662344944051     3.68001877445626     6.59540397144508
H   29   1    -4.32916174397830     3.13643051467482     8.35225460090378
H   30   1    -5.32329548508442    -2.36691813602939     6.11583672749896
H   31   1    -5.77989366602257    -1.33896741843465     9.25748940450990
H   32   1    -3.79310905208926    -3.96389819310853     8.61386170102686
C   33   6    -1.01100794811226    -1.06331657314144     3.11929490449947
C   34   6     0.37686231036534    -0.33275864505552     1.09165013605873
H   35   1    -3.01671213906703    -1.40297922279997     2.77827895090944
C   36   6    -0.64382707979370    -0.11591880174385    -1.42063131251064
H   37   1     2.35569259782137     0.17174499283897     1.33641070251401
H   38   1    -2.63317482980319    -0.60229203511219    -1.66119700387645
C   39   6     3.54725246111133     0.56802416581284   -11.81467283923754
C   40   6     4.80361465317200    -1.32115012773234   -13.38298311351627
H   41   1     3.71304591439982     2.53035338251259   -12.40589607739641
O   42   8     6.01278787963721    -0.85546385399510   -15.29134904549642
H   43   1     4.58468921437884    -3.30497271823068   -12.70718839688766
[GTO]
1 0
 s    6 1.00
             3047.5249  0.0018347001629433
             457.36951    0.01403730124668
             103.94869   0.068842606114048
             29.210155    0.23218442062076
              9.286663    0.46794134155879
              3.163927    0.36231203217765
 s    3 1.00
             7.8682724   -0.11933240861517
             1.8812885   -0.16085421161283
             0.5442493     1.1434564825515
 s    1 1.00
             0.1687144                   1
 p    3 1.00
             7.8682724   0.068999095584993
             1.8812885    0.31642397975315
             0.5442493    0.74430825237435
 p    1 1.00
             0.1687144                   1
 d    1 1.00
                   0.8                   1

2 0
 s    3 1.00
             18.731137    0.03349459952309
             2.8253937    0.23472694665786
             0.6401217    0.81375731841339
 s    1 1.00
             0.1612778                   1

3 0
 s    6 1.00
             3047.5249  0.0018347001629433
             457.36951    0.01403730124668
             103.94869   0.068842606114048
             29.210155    0.23218442062076
              9.286663    0.46794134155879
              3.163927    0.36231203217765
 s    3 1.00
             7.8682724   -0.11933240861517
             1.8812885   -0.16085421161283
             0.5442493     1.1434564825515
 s    1 1.00
             0.1687144                   1
 p    3 1.00
             7.8682724   0.068999095584993
             1.8812885    0.31642397975315
             0.5442493    0.74430825237435
 p    1 1.00
             0.1687144                   1
 d    1 1.00
                   0.8                   1

4 0
 s    3 1.00
             18.731137    0.03349459952309
             2.8253937    0.23472694665786
             0.6401217    0.81375731841339
 s    1 1.00
             0.1612778                   1

5 0
 s    6 1.00
             3047.5249  0.0018347001629433
             457.36951    0.01403730124668
             103.94869   0.068842606114048
             29.210155    0.23218442062076
              9.286663    0.46794134155879
              3.163927    0.36231203217765
 s    3 1.00
             7.8682724   -0.11933240861517
             1.8812885   -0.16085421161283
             0.5442493     1.1434564825515
 s    1 1.00
             0.1687144                   1
 p    3 1.00
             7.8682724   0.068999095584993
             1.8812885    0.31642397975315
             0.5442493    0.74430825237435
 p    1 1.00
             0.1687144                   1
 d    1 1.00
                   0.8                   1

6 0
 s    3 1.00
             18.731137    0.03349459952309
             2.8253937    0.23472694665786
             0.6401217    0.81375731841339
 s    1 1.00
             0.1612778                   1

7 0
 s    6 1.00
             3047.5249  0.0018347001629433
             457.36951    0.01403730124668
             103.94869   0.068842606114048
             29.210155    0.23218442062076
              9.286663    0.46794134155879
              3.163927    0.36231203217765
 s    3 1.00
             7.8682724   -0.11933240861517
             1.8812885   -0.16085421161283
             0.5442493     1.1434564825515
 s    1 1.00
             0.1687144                   1
 p    3 1.00
             7.8682724   0.068999095584993
             1.8812885    0.31642397975315
             0.5442493    0.74430825237435
 p    1 1.00
             0.1687144                   1
 d    1 1.00
                   0.8                   1

8 0
 s    3 1.00
             18.731137    0.03349459952309
             2.8253937    0.23472694665786
             0.6401217    0.81375731841339
 s    1 1.00
             0.1612778                   1

9 0
 s    3 1.00
             18.731137    0.03349459952309
             2.8253937    0.23472694665786
             0.6401217    0.81375731841339
 s    1 1.00
             0.1612778                   1

10 0
 s    6 1.00
             3047.5249  0.0018347001629433
             457.36951    0.01403730124668
             103.94869   0.068842606114048
             29.210155    0.23218442062076
              9.286663    0.46794134155879
              3.163927    0.36231203217765
 s    3 1.00
             7.8682724   -0.11933240861517
             1.8812885   -0.16085421161283
             0.5442493     1.1434564825515
 s    1 1.00
             0.1687144                   1
 p    3 1.00
             7.8682724   0.068999095584993
             1.8812885    0.31642397975315
             0.5442493    0.74430825237435
 p    1 1.00
             0.1687144                   1
 d    1 1.00
                   0.8                   1

11 0
 s    3 1.00
             18.731137    0.03349459952309
             2.8253937    0.23472694665786
             0.6401217    0.81375731841339
 s    1 1.00
             0.1612778                   1

12 0
 s    6 1.00
             3047.5249  0.0018347001629433
             457.36951    0.01403730124668
             103.94869   0.068842606114048
             29.210155    0.23218442062076
              9.286663    0.46794134155879
              3.163927    0.36231203217765
 s    3 1.00
             7.8682724   -0.11933240861517
             1.8812885   -0.16085421161283
             0.5442493     1.1434564825515
 s    1 1.00
             0.1687144                   1
 p    3 1.00
             7.8682724   0.068999095584993
             1.8812885    0.31642397975315
             0.5442493    0.74430825237435
 p    1 1.00
             0.1687144                   1
 d    1 1.00
                   0.8                   1

13 0
 s    3 1.00
             18.731137    0.03349459952309
             2.8253937    0.23472694665786
             0.6401217    0.81375731841339
 s    1 1.00
             0.1612778                   1

14 0
 s    3 1.00
             18.731137    0.03349459952309
             2.8253937    0.23472694665786
             0.6401217    0.81375731841339
 s    1 1.00
             0.1612778                   1

15 0
 s    6 1.00
             3047.5249  0.0018347001629433
             457.36951    0.01403730124668
             103.94869   0.068842606114048
             29.210155    0.23218442062076
              9.286663    0.46794134155879
              3.163927    0.36231203217765
 s    3 1.00
             7.8682724   -0.11933240861517
             1.8812885   -0.16085421161283
             0.5442493     1.1434564825515
 s    1 1.00
             0.1687144                   1
 p    3 1.00
             7.8682724   0.068999095584993
             1.8812885    0.31642397975315
             0.5442493    0.74430825237435
 p    1 1.00
             0.1687144                   1
 d    1 1.00
                   0.8                   1

16 0
 s    6 1.00
             3047.5249  0.0018347001629433
             457.36951    0.01403730124668
             103.94869   0.068842606114048
             29.210155    0.23218442062076
              9.286663    0.46794134155879
              3.163927    0.36231203217765
 s    3 1.00
             7.8682724   -0.11933240861517
             1.8812885   -0.16085421161283
             0.5442493     1.1434564825515
 s    1 1.00
             0.1687144                   1
 p    3 1.00
             7.8682724   0.068999095584993
             1.8812885    0.31642397975315
             0.5442493    0.74430825237435
 p    1 1.00
             0.1687144                   1
 d    1 1.00
                   0.8                   1

17 0
 s    6 1.00
             3047.5249  0.0018347001629433
             457.36951    0.01403730124668
             103.94869   0.068842606114048
             29.210155    0.23218442062076
              9.286663    0.46794134155879
              3.163927    0.36231203217765
 s    3 1.00
             7.8682724   -0.11933240861517
             1.8812885   -0.16085421161283
             0.5442493     1.1434564825515
 s    1 1.00
             0.1687144                   1
 p    3 1.00
             7.8682724   0.068999095584993
             1.8812885    0.31642397975315
             0.5442493    0.74430825237435
 p    1 1.00
             0.1687144                   1
 d    1 1.00
                   0.8                   1

18 0
 s    6 1.00
             3047.5249  0.0018347001629433
             457.36951    0.01403730124668
             103.94869   0.068842606114048
             29.210155    0.23218442062076
              9.286663    0.46794134155879
              3.163927    0.36231203217765
 s    3 1.00
             7.8682724   -0.11933240861517
             1.8812885   -0.16085421161283
             0.5442493     1.1434564825515
 s    1 1.00
             0.1687144                   1
 p    3 1.00
             7.8682724   0.068999095584993
             1.8812885    0.31642397975315
             0.5442493    0.74430825237435
 p    1 1.00
             0.1687144                   1
 d    1 1.00
                   0.8                   1

19 0
 s    6 1.00
             3047.5249  0.0018347001629433
             457.36951    0.01403730124668
             103.94869   0.068842606114048
             29.210155    0.23218442062076
              9.286663    0.46794134155879
              3.163927    0.36231203217765
 s    3 1.00
             7.8682724   -0.11933240861517
             1.8812885   -0.16085421161283
             0.5442493     1.1434564825515
 s    1 1.00
             0.1687144                   1
 p    3 1.00
             7.8682724   0.068999095584993
             1.8812885    0.31642397975315
             0.5442493    0.74430825237435
 p    1 1.00
             0.1687144                   1
 d    1 1.00
                   0.8                   1

20 0
 s    6 1.00
             3047.5249  0.0018347001629433
             457.36951    0.01403730124668
             103.94869   0.068842606114048
             29.210155    0.23218442062076
              9.286663    0.46794134155879
              3.163927    0.36231203217765
 s    3 1.00
             7.8682724   -0.11933240861517
             1.8812885   -0.16085421161283
             0.5442493     1.1434564825515
 s    1 1.00
             0.1687144                   1
 p    3 1.00
             7.8682724   0.068999095584993
             1.8812885    0.31642397975315
             0.5442493    0.74430825237435
 p    1 1.00
             0.1687144                   1
 d    1 1.00
                   0.8                   1

21 0
 s    6 1.00
             3047.5249  0.0018347001629433
             457.36951    0.01403730124668
             103.94869   0.068842606114048
             29.210155    0.23218442062076
              9.286663    0.46794134155879
              3.163927    0.36231203217765
 s    3 1.00
             7.8682724   -0.11933240861517
             1.8812885   -0.16085421161283
             0.5442493     1.1434564825515
 s    1 1.00
             0.1687144                   1
 p    3 1.00
             7.8682724   0.068999095584993
             1.8812885    0.31642397975315
             0.5442493    0.74430825237435
 p    1 1.00
             0.1687144                   1
 d    1 1.00
                   0.8                   1

22 0
 s    3 1.00
             18.731137    0.03349459952309
             2.8253937    0.23472694665786
             0.6401217    0.81375731841339
 s    1 1.00
             0.1612778                   1

23 0
 s    3 1.00
             18.731137    0.03349459952309
             2.8253937    0.23472694665786
             0.6401217    0.81375731841339
 s    1 1.00
             0.1612778                   1

24 0
 s    3 1.00
             18.731137    0.03349459952309
             2.8253937    0.23472694665786
             0.6401217    0.81375731841339
 s    1 1.00
             0.1612778                   1

25 0
 s    3 1.00
             18.731137    0.03349459952309
             2.8253937    0.23472694665786
             0.6401217    0.81375731841339
 s    1 1.00
             0.1612778                   1

26 0
 s    3 1.00
             18.731137    0.03349459952309
             2.8253937    0.23472694665786
             0.6401217    0.81375731841339
 s    1 1.00
             0.1612778                   1

27 0
 s    3 1.00
             18.731137    0.03349459952309
             2.8253937    0.23472694665786
             0.6401217    0.81375731841339
 s    1 1.00
             0.1612778                   1

28 0
 s    3 1.00
             18.731137    0.03349459952309
             2.8253937    0.23472694665786
             0.6401217    0.81375731841339
 s    1 1.00
             0.1612778                   1

29 0
 s    3 1.00
             18.731137    0.03349459952309
             2.8253937    0.23472694665786
             0.6401217    0.81375731841339
 s    1 1.00
             0.1612778                   1

30 0
 s    3 1.00
             18.731137    0.03349459952309
             2.8253937    0.23472694665786
             0.6401217    0.81375731841339
 s    1 1.00
             0.1612778                   1

31 0
 s    3 1.00
             18.731137    0.03349459952309
             2.8253937    0.23472694665786
             0.6401217    0.81375731841339
 s    1 1.00
             0.1612778                   1

32 0
 s    3 1.00
             18.731137    0.03349459952309
             2.8253937    0.23472694665786
             0.6401217    0.81375731841339
 s    1 1.00
             0.1612778                   1

33 0
 s    6 1.00
             3047.5249  0.0018347001629433
             457.36951    0.01403730124668
             103.94869   0.068842606114048
             29.210155    0.23218442062076
              9.286663    0.46794134155879
              3.163927    0.36231203217765
 s    3 1.00
             7.8682724   -0.11933240861517
             1.8812885   -0.16085421161283
             0.5442493     1.1434564825515
 s    1 1.00
             0.1687144                   1
 p    3 1.00
             7.8682724   0.068999095584993
             1.8812885    0.31642397975315
             0.5442493    0.74430825237435
 p    1 1.00
             0.1687144                   1
 d    1 1.00
                   0.8                   1

34 0
 s    6 1.00
             3047.5249  0.0018347001629433
             457.36951    0.01403730124668
             103.94869   0.068842606114048
             29.210155    0.23218442062076
              9.286663    0.46794134155879
              3.163927    0.36231203217765
 s    3 1.00
             7.8682724   -0.11933240861517
             1.8812885   -0.16085421161283
             0.5442493     1.1434564825515
 s    1 1.00
             0.1687144                   1
 p    3 1.00
             7.8682724   0.068999095584993
             1.8812885    0.31642397975315
             0.5442493    0.74430825237435
 p    1 1.00
             0.1687144                   1
 d    1 1.00
                   0.8                   1

35 0
 s    3 1.00
             18.731137    0.03349459952309
             2.8253937    0.23472694665786
             0.6401217    0.81375731841339
 s    1 1.00
             0.1612778                   1

36 0
 s    6 1.00
             3047.5249  0.0018347001629433
             457.36951    0.01403730124668
             103.94869   0.068842606114048
             29.210155    0.23218442062076
              9.286663    0.46794134155879
              3.163927    0.36231203217765
 s    3 1.00
             7.8682724   -0.11933240861517
             1.8812885   -0.16085421161283
             0.5442493     1.1434564825515
 s    1 1.00
             0.1687144                   1
 p    3 1.00
             7.8682724   0.068999095584993
             1.8812885    0.31642397975315
             0.5442493    0.74430825237435
 p    1 1.00
             0.1687144                   1
 d    1 1.00
                   0.8                   1

37 0
 s    3 1.00
             18.731137    0.03349459952309
             2.8253937    0.23472694665786
             0.6401217    0.81375731841339
 s    1 1.00
             0.1612778                   1

38 0
 s    3 1.00
             18.731137    0.03349459952309
             2.8253937    0.23472694665786
             0.6401217    0.81375731841339
 s    1 1.00
             0.1612778                   1

39 0
 s    6 1.00
             3047.5249  0.0018347001629433
             457.36951    0.01403730124668
             103.94869   0.068842606114048
             29.210155    0.23218442062076
              9.286663    0.46794134155879
              3.163927    0.36231203217765
 s    3 1.00
             7.8682724   -0.11933240861517
             1.8812885   -0.16085421161283
             0.5442493     1.1434564825515
 s    1 1.00
             0.1687144                   1
 p    3 1.00
             7.8682724   0.068999095584993
             1.8812885    0.31642397975315
             0.5442493    0.74430825237435
 p    1 1.00
             0.1687144                   1
 d    1 1.00
                   0.8                   1

40 0
 s    6 1.00
             3047.5249  0.0018347001629433
             457.36951    0.01403730124668
             103.94869   0.068842606114048
             29.210155    0.23218442062076
              9.286663    0.46794134155879
              3.163927    0.36231203217765
 s    3 1.00
             7.8682724   -0.11933240861517
             1.8812885   -0.16085421161283
             0.5442493     1.1434564825515
 s    1 1.00
             0.1687144                   1
 p    3 1.00
             7.8682724   0.068999095584993
             1.8812885    0.31642397975315
             0.5442493    0.74430825237435
 p    1 1.00
             0.1687144                   1
 d    1 1.00
                   0.8                   1

41 0
 s    3 1.00
             18.731137    0.03349459952309
             2.8253937    0.23472694665786
             0.6401217    0.81375731841339
 s    1 1.00
             0.1612778                   1

42 0
 s    6 1.00
             5484.6717   0.001831099805527
             825.23495   0.013950098518422
             188.04696    0.06844509273075
               52.9645    0.23271427528445
              16.89757    0.47019295006289
             5.7996353    0.35852086192309
 s    3 1.00
             15.539616   -0.11077750382508
             3.5999336   -0.14802630511126
             1.0137618     1.1307670390447
 s    1 1.00
             0.2700058                   1
 p    3 1.00
             15.539616   0.070874299543311
             3.5999336    0.33975279781076
             1.0137618    0.72715859531445
 p    1 1.00
             0.2700058                   1
 d    1 1.00
                   0.8                   1

43 0
 s    3 1.00
             18.731137    0.03349459952309
             2.8253937    0.23472694665786
             0.6401217    0.81375731841339
 s    1 1.00
             0.1612778                   1

[5d]
[7f]
[9g]

[MO]
 Sym= A
 Ene=               0
 Spin= Alpha
 Occup=    1.00000
   1    2.0759675733022e-06
   2    1.8533642254952e-05
   3    -5.1556472057858e-06
   4     8.80450590408e-06
   5    -6.22469009622e-06
   6    -7.33482084411e-06
   7    -2.8298916827205e-05
   8    -0.00011756615820201
   9    0.00039684193016249
  10    -1.1186376680593e-07
  11    -1.2205079802546e-05
  12    -2.5832214938529e-06
  13    -1.5121725541065e-05
  14    8.386792661226e-06
  15    1.510639136184e-05
  16    -1.7190776162018e-05
  17    -1.0637655242491e-05
  18    -0.00016512566469737
  19    -0.00041380011002539
  20    -5.4638991781874e-05
  21    2.2102453036284e-05
  22    6.2766541026703e-05
  23    -0.00017469974990061
  24    0.00011666503764469
  25    0.00062375626123546
  26    -2.4164488772427e-05
  27    2.5420502579416e-05
  28    -1.3092484473312e-05
  29    -4.5093001275267e-05
  30    2.2611646011957e-06
  31    1.2206716367181e-05
  32    -3.2639220105497e-05
  33    -4.3338438059565e-05
  34    -0.00039347259166865
  35    0.0045611592300743
  36    8.7073802948818e-05
  37    -1.8773585663298e-06
  38    -0.00012248218157503
  39    0.00056007799436941
  40    -0.0019918719261755
  41    -0.00051575724947219
  42    2.6118056238601e-05
  43    -0.0001182542831132
  44    7.0371370668586e-05
  45    -2.6461197708653e-05
  46    -6.0996235645007e-05
  47    1.0891028901061e-05
  48    0.00028553953590556
  49    -3.4500130981606e-05
  50    -6.3635429662778e-05
  51    -0.0036588742959164
  52    -0.00015694265965019
  53    0.00024540794222802
  54    0.00018993861723522
  55    0.0018665151280419
  56    -0.0027150106919188
  57    -0.0023481248815365
  58    2.4930364874944e-05
  59    -3.2506175743466e-05
  60    -0.00021073295100277
  61    -3.6285659884345e-05
  62    0.00013177072065173
  63    -0.00027575812392343
  64    -5.7528720596636e-05
  65    1.137346590456e-07
  66    -3.4743443534838e-08
  67    5.7997922895417e-09
  68    7.8313640324631e-07
  69    -3.1963237619036e-06
  70    1.7673437341115e-07
  71    1.8029209395386e-07
  72    -4.6167701618011e-07
  73    4.7878580336901e-08
  74    -2.3059324368599e-06
  75    1.2749682178942e-07
  76    5.0349144586911e-08
  77     1.05359150166e-07
  78    -3.692265026651e-08
  79    -8.6640005433066e-08
  80    8.1632282671628e-08
  81    -1.9692692090729e-07
  82    -5.8996898328453e-07
  83    -5.407646535987e-08
  84    2.2472366418537e-07
  85    1.4998930919683e-05
  86    -1.2663540084609e-06
  87    -5.6241420356562e-07
  88    -8.5820609884407e-07
  89    -3.9924965706211e-06
  90    5.2358145973443e-06
  91    -3.6726331738658e-06
  92    -1.4090648755586e-07
  93    2.118090482284e-07
  94    -4.9308562415445e-07
  95    -8.8820974886846e-08
  96    7.3067064591721e-08
  97    -1.5964436555396e-06
  98    -2.315718048073e-06
  99    4.6064707752289e-07
 100    1.990606397133e-06
 101    1.7878149712911e-07
 102    7.7494506944465e-07
 103    -1.6080155571976e-05
 104    1.8952355771702e-06
 105    3.8615386711377e-06
 106    5.487726972333e-07
 107    2.1829818170558e-05
 108    -1.6801362186137e-05
 109    -3.2909411019387e-05
 110    6.3107508143812e-07
 111    5.4325906794443e-07
 112    -2.6090549487326e-07
 113    -4.4641774589409e-07
 114    4.5823452473672e-07
 115    4.5385301753127e-07
 116    4.922211519863e-06
 117    -3.8408610645805e-05
 118    5.5035088218414e-07
 119    -1.279658765039e-06
 120    -5.7217942294248e-07
 121    8.8416562447602e-06
 122    -9.9344698495679e-07
 123    -2.2467162072522e-06
 124    8.0436220737312e-08
 125    3.0942616888044e-07
 126    2.1536110939471e-07
 127    -2.0738093222788e-07
 128    3.0589027957024e-07
 129    1.0865880105214e-06
 130    9.094159177514e-06
 131    -5.5319939882424e-05
 132    8.7439843046067e-07
 133    2.7345403432424e-06
 134    -3.3739656016243e-06
 135    2.7395232645982e-05
 136    6.0246640155649e-07
 137    8.6540120767996e-05
 138    -2.5140338952121e-06
 139    -1.7829442273296e-06
 140    -1.5765680203839e-07
 141    -3.5280746560711e-07
 142    3.1337852591535e-08
 143    3.0135153556515e-07
 144    4.4384413003313e-06
 145    -1.962852863033e-05
 146    2.165436525347e-08
 147    -1.2175211913421e-06
 148    -1.1724650990779e-06
 149    -1.1882932518783e-05
 150    6.5722860448017e-06
 151    2.8688099336841e-06
 152    1.0240006346169e-06
 153    3.5734676241739e-07
 154    8.951599729305e-08
 155    -6.9859494294329e-07
 156    8.4250563785541e-07
 157    -1.0658455634503e-07
 158    -9.4042201613552e-07
 159    -3.7699378149912e-07
 160    -1.0582131152947e-06
 161    4.2489167905712e-07
 162    -2.9163896662569e-07
 163      6.1466085858e-06
 164    6.0351057338865e-08
 165    -1.128575388099e-06
 166    -5.0946389396346e-07
 167    1.8150021111708e-07
 168    -6.1599203699378e-09
 169    1.2443974986268e-07
 170    -3.2170104374237e-07
 171    -1.7012929799786e-07
 172    7.1676151932515e-07
 173    2.5895053853747e-06
 174    1.1974093206651e-06
 175    3.2366407886284e-07
 176    -9.8190586719844e-07
 177    5.918888942365e-07
 178    -1.6403146277207e-06
 179    1.7625367495865e-06
 180    -1.6318238538947e-07
 181    -2.2991715688898e-07
 182    -4.8119948774699e-08
 183    4.0818935228606e-07
 184    -1.7753515534819e-07
 185    3.8793818181677e-07
 186    3.0290613105122e-06
 187    -2.5976359748947e-06
 188     2.77444946495e-07
 189    -8.8096757753563e-08
 190    -6.0180637650432e-07
 191    -1.9267203632738e-06
 192    -1.0707251811124e-06
 193    6.4207441619566e-06
 194    -3.2405034486003e-07
 195    -1.5694936334958e-08
 196    -1.621583813919e-07
 197    -7.6962472342458e-08
 198    8.6939979025783e-08
 199    7.0992332901219e-07
 200    1.2467878008667e-06
 201    3.2515300181655e-07
 202    -2.7209441364015e-06
 203    2.2368110061442e-06
 204    2.6161263146484e-06
 205    -1.9946283669073e-07
 206    1.3497773467027e-06
 207    -1.2477161968268e-06
 208    1.3109179289093e-05
 209    -1.0269481782948e-06
 210    4.1702785359727e-06
 211    -4.8483979352243e-07
 212    -2.968789605659e-06
 213    2.6913317989298e-07
 214    2.2369473499166e-06
 215    4.8695151232535e-07
 216    -1.0405186939968e-06
 217    -4.3156657552672e-07
 218    -1.0469800712608e-06
 219    -2.6258954317714e-07
 220    -1.4488649319251e-06
 221    -2.2022139751927e-07
 222    1.0753407454989e-05
 223    9.3330916787214e-06
 224    2.1971824108841e-06
 225    -1.2401962004993e-06
 226    -6.3401483855239e-06
 227    -1.1407340797063e-05
 228    -3.0676053273785e-05
 229    0.0001002089202487
 230    1.0982043977334e-06
 231    4.5034870209634e-06
 232    2.3536660870161e-06
 233    -1.9472849010647e-06
 234    -3.0498483649995e-06
 235    -1.6967389552833e-06
 236    -2.1686717314791e-06
 237    -3.7284238548783e-05
 238    -5.0498271695448e-06
 239    -1.0133899641107e-05
 240    4.346144490453e-06
 241    1.9464010255871e-05
 242    5.5086723990349e-06
 243    9.9252282386585e-05
 244    -1.4181718247841e-06
 245    -7.6408660024047e-06
 246    -2.0678591964279e-06
 247    -3.3706089616505e-06
 248    -1.6963345089046e-06
 249    4.1813778462328e-06
 250    -1.1933530864092e-05
 251    1.2207745543982e-05
 252    3.225158598901e-05
 253    -0.00026578234748903
 254    -3.2267359624179e-06
 255    6.0049288725123e-06
 256    -2.1039346955358e-05
 257    -0.00011431025930954
 258    -0.00010846408563689
 259    0.00025108872060505
 260    -2.7272826917106e-06
 261    1.2133123673732e-05
 262    5.983820513075e-06
 263    -8.028813161898e-06
 264    -6.0935378637664e-06
 265    -4.5365526990449e-06
 266    -3.4700312814414e-05
 267    1.0403945989611e-05
 268    -3.8175518253628e-05
 269    -0.00025755796723165
 270    -8.5268913044065e-05
 271    -0.0034376218738826
 272    -0.00022402966747695
 273    0.00042982898082837
 274    0.00023264664456401
 275     -0.00231940258005
 276    -0.00056068136090245
 277      0.00358288796318
 278    -0.00021672753741962
 279    0.00023025486326138