[Molden Format]
made by pyscf v[2.0.1]
[Atoms] (AU)
C   1   6     0.69100024066471     0.64692934207205    -3.48223131169301
H   2   1     2.68052439830868     1.13355088658700    -3.25784032593313
C   3   6    -0.36286361513219     0.85440132524594    -5.97030179418974
H   4   1    -2.35448549047279     0.36322488579172    -6.17995817793143
C   5   6     0.93697958957450     1.61209284601821    -8.05828437677121
H   6   1     1.79023114573091     3.48620134168797    -8.08322278856913
C   7   6     1.25568723688000     0.06665493916240   -10.26426053014808
H   8   1     0.39118722523993    -1.80671768770582   -10.21099750517578
H   9   1     1.55630230933075    -1.92953025305990    12.99630010416247
C   10   6     0.75233899775814    -2.21270439606481    11.10705728102219
H   11   1    -0.43433408177274    -3.90944857546550    11.22216085340412
C   12   6     2.86362581178706    -2.63237380607947     9.17926416456045
H   13   1     4.39038949912609    -1.24955421540245     9.49899813497433
H   14   1     3.74629220191363    -4.48798724300892     9.47414880959024
C   15   6     2.02478325613682    -2.42177285709634     6.44560829588644
C   16   6     3.88048732735477    -3.58795445234514     4.61402886975252
C   17   6    -0.18412382258602    -1.30464291234259     5.76021113872346
C   18   6    -2.10044360464350    -0.26837831858460     7.71610340967100
C   19   6    -3.08956938670431     2.35282328359417     6.88693925039594
C   20   6    -4.37372924086464    -2.09766595989678     7.93610724222001
C   21   6    -0.83850430601230     0.06372213486173    10.33002307638377
H   22   1     0.38411922151109     1.74281358582432    10.27380136542181
H   23   1    -2.30980003007874     0.45460143924521    11.73986301809809
H   24   1     4.58527064644668    -5.38706904487420     5.36778158031719
H   25   1     5.54944938085014    -2.37631462192748     4.35398898413318
H   26   1     3.06633019150423    -3.94118377050688     2.75255466040884
H   27   1    -4.17727778763735     2.26573369139522     5.12914900961283
H   28   1    -1.52662344944051     3.68001877445626     6.59540397144508
H   29   1    -4.32916174397830     3.13643051467482     8.35225460090378
H   30   1    -5.32329548508442    -2.36691813602939     6.11583672749896
H   31   1    -5.77989366602257    -1.33896741843465     9.25748940450990
H   32   1    -3.79310905208926    -3.96389819310853     8.61386170102686
C   33   6    -1.01100794811226    -1.06331657314144     3.11929490449947
C   34   6     0.37686231036534    -0.33275864505552     1.09165013605873
H   35   1    -3.01671213906703    -1.40297922279997     2.77827895090944
C   36   6    -0.64382707979370    -0.11591880174385    -1.42063131251064
H   37   1     2.35569259782137     0.17174499283897     1.33641070251401
H   38   1    -2.63317482980319    -0.60229203511219    -1.66119700387645
C   39   6     2.53016326718275     0.74184279311179   -12.38477126217512
C   40   6     2.74761784180424    -0.97075180884473   -14.53576076061004
H   41   1     3.43489191747297     2.57981441042514   -12.56110828288274
O   42   8     3.86136937293188    -0.48701494751058   -16.49697984673750
H   43   1     1.79359090776017    -2.83108880557309   -14.27278208139205
[GTO]
1 0
 s    6 1.00
             3047.5249  0.0018347001629433
             457.36951    0.01403730124668
             103.94869   0.068842606114048
             29.210155    0.23218442062076
              9.286663    0.46794134155879
              3.163927    0.36231203217765
 s    3 1.00
             7.8682724   -0.11933240861517
             1.8812885   -0.16085421161283
             0.5442493     1.1434564825515
 s    1 1.00
             0.1687144                   1
 p    3 1.00
             7.8682724   0.068999095584993
             1.8812885    0.31642397975315
             0.5442493    0.74430825237435
 p    1 1.00
             0.1687144                   1
 d    1 1.00
                   0.8                   1

2 0
 s    3 1.00
             18.731137    0.03349459952309
             2.8253937    0.23472694665786
             0.6401217    0.81375731841339
 s    1 1.00
             0.1612778                   1

3 0
 s    6 1.00
             3047.5249  0.0018347001629433
             457.36951    0.01403730124668
             103.94869   0.068842606114048
             29.210155    0.23218442062076
              9.286663    0.46794134155879
              3.163927    0.36231203217765
 s    3 1.00
             7.8682724   -0.11933240861517
             1.8812885   -0.16085421161283
             0.5442493     1.1434564825515
 s    1 1.00
             0.1687144                   1
 p    3 1.00
             7.8682724   0.068999095584993
             1.8812885    0.31642397975315
             0.5442493    0.74430825237435
 p    1 1.00
             0.1687144                   1
 d    1 1.00
                   0.8                   1

4 0
 s    3 1.00
             18.731137    0.03349459952309
             2.8253937    0.23472694665786
             0.6401217    0.81375731841339
 s    1 1.00
             0.1612778                   1

5 0
 s    6 1.00
             3047.5249  0.0018347001629433
             457.36951    0.01403730124668
             103.94869   0.068842606114048
             29.210155    0.23218442062076
              9.286663    0.46794134155879
              3.163927    0.36231203217765
 s    3 1.00
             7.8682724   -0.11933240861517
             1.8812885   -0.16085421161283
             0.5442493     1.1434564825515
 s    1 1.00
             0.1687144                   1
 p    3 1.00
             7.8682724   0.068999095584993
             1.8812885    0.31642397975315
             0.5442493    0.74430825237435
 p    1 1.00
             0.1687144                   1
 d    1 1.00
                   0.8                   1

6 0
 s    3 1.00
             18.731137    0.03349459952309
             2.8253937    0.23472694665786
             0.6401217    0.81375731841339
 s    1 1.00
             0.1612778                   1

7 0
 s    6 1.00
             3047.5249  0.0018347001629433
             457.36951    0.01403730124668
             103.94869   0.068842606114048
             29.210155    0.23218442062076
              9.286663    0.46794134155879
              3.163927    0.36231203217765
 s    3 1.00
             7.8682724   -0.11933240861517
             1.8812885   -0.16085421161283
             0.5442493     1.1434564825515
 s    1 1.00
             0.1687144                   1
 p    3 1.00
             7.8682724   0.068999095584993
             1.8812885    0.31642397975315
             0.5442493    0.74430825237435
 p    1 1.00
             0.1687144                   1
 d    1 1.00
                   0.8                   1

8 0
 s    3 1.00
             18.731137    0.03349459952309
             2.8253937    0.23472694665786
             0.6401217    0.81375731841339
 s    1 1.00
             0.1612778                   1

9 0
 s    3 1.00
             18.731137    0.03349459952309
             2.8253937    0.23472694665786
             0.6401217    0.81375731841339
 s    1 1.00
             0.1612778                   1

10 0
 s    6 1.00
             3047.5249  0.0018347001629433
             457.36951    0.01403730124668
             103.94869   0.068842606114048
             29.210155    0.23218442062076
              9.286663    0.46794134155879
              3.163927    0.36231203217765
 s    3 1.00
             7.8682724   -0.11933240861517
             1.8812885   -0.16085421161283
             0.5442493     1.1434564825515
 s    1 1.00
             0.1687144                   1
 p    3 1.00
             7.8682724   0.068999095584993
             1.8812885    0.31642397975315
             0.5442493    0.74430825237435
 p    1 1.00
             0.1687144                   1
 d    1 1.00
                   0.8                   1

11 0
 s    3 1.00
             18.731137    0.03349459952309
             2.8253937    0.23472694665786
             0.6401217    0.81375731841339
 s    1 1.00
             0.1612778                   1

12 0
 s    6 1.00
             3047.5249  0.0018347001629433
             457.36951    0.01403730124668
             103.94869   0.068842606114048
             29.210155    0.23218442062076
              9.286663    0.46794134155879
              3.163927    0.36231203217765
 s    3 1.00
             7.8682724   -0.11933240861517
             1.8812885   -0.16085421161283
             0.5442493     1.1434564825515
 s    1 1.00
             0.1687144                   1
 p    3 1.00
             7.8682724   0.068999095584993
             1.8812885    0.31642397975315
             0.5442493    0.74430825237435
 p    1 1.00
             0.1687144                   1
 d    1 1.00
                   0.8                   1

13 0
 s    3 1.00
             18.731137    0.03349459952309
             2.8253937    0.23472694665786
             0.6401217    0.81375731841339
 s    1 1.00
             0.1612778                   1

14 0
 s    3 1.00
             18.731137    0.03349459952309
             2.8253937    0.23472694665786
             0.6401217    0.81375731841339
 s    1 1.00
             0.1612778                   1

15 0
 s    6 1.00
             3047.5249  0.0018347001629433
             457.36951    0.01403730124668
             103.94869   0.068842606114048
             29.210155    0.23218442062076
              9.286663    0.46794134155879
              3.163927    0.36231203217765
 s    3 1.00
             7.8682724   -0.11933240861517
             1.8812885   -0.16085421161283
             0.5442493     1.1434564825515
 s    1 1.00
             0.1687144                   1
 p    3 1.00
             7.8682724   0.068999095584993
             1.8812885    0.31642397975315
             0.5442493    0.74430825237435
 p    1 1.00
             0.1687144                   1
 d    1 1.00
                   0.8                   1

16 0
 s    6 1.00
             3047.5249  0.0018347001629433
             457.36951    0.01403730124668
             103.94869   0.068842606114048
             29.210155    0.23218442062076
              9.286663    0.46794134155879
              3.163927    0.36231203217765
 s    3 1.00
             7.8682724   -0.11933240861517
             1.8812885   -0.16085421161283
             0.5442493     1.1434564825515
 s    1 1.00
             0.1687144                   1
 p    3 1.00
             7.8682724   0.068999095584993
             1.8812885    0.31642397975315
             0.5442493    0.74430825237435
 p    1 1.00
             0.1687144                   1
 d    1 1.00
                   0.8                   1

17 0
 s    6 1.00
             3047.5249  0.0018347001629433
             457.36951    0.01403730124668
             103.94869   0.068842606114048
             29.210155    0.23218442062076
              9.286663    0.46794134155879
              3.163927    0.36231203217765
 s    3 1.00
             7.8682724   -0.11933240861517
             1.8812885   -0.16085421161283
             0.5442493     1.1434564825515
 s    1 1.00
             0.1687144                   1
 p    3 1.00
             7.8682724   0.068999095584993
             1.8812885    0.31642397975315
             0.5442493    0.74430825237435
 p    1 1.00
             0.1687144                   1
 d    1 1.00
                   0.8                   1

18 0
 s    6 1.00
             3047.5249  0.0018347001629433
             457.36951    0.01403730124668
             103.94869   0.068842606114048
             29.210155    0.23218442062076
              9.286663    0.46794134155879
              3.163927    0.36231203217765
 s    3 1.00
             7.8682724   -0.11933240861517
             1.8812885   -0.16085421161283
             0.5442493     1.1434564825515
 s    1 1.00
             0.1687144                   1
 p    3 1.00
             7.8682724   0.068999095584993
             1.8812885    0.31642397975315
             0.5442493    0.74430825237435
 p    1 1.00
             0.1687144                   1
 d    1 1.00
                   0.8                   1

19 0
 s    6 1.00
             3047.5249  0.0018347001629433
             457.36951    0.01403730124668
             103.94869   0.068842606114048
             29.210155    0.23218442062076
              9.286663    0.46794134155879
              3.163927    0.36231203217765
 s    3 1.00
             7.8682724   -0.11933240861517
             1.8812885   -0.16085421161283
             0.5442493     1.1434564825515
 s    1 1.00
             0.1687144                   1
 p    3 1.00
             7.8682724   0.068999095584993
             1.8812885    0.31642397975315
             0.5442493    0.74430825237435
 p    1 1.00
             0.1687144                   1
 d    1 1.00
                   0.8                   1

20 0
 s    6 1.00
             3047.5249  0.0018347001629433
             457.36951    0.01403730124668
             103.94869   0.068842606114048
             29.210155    0.23218442062076
              9.286663    0.46794134155879
              3.163927    0.36231203217765
 s    3 1.00
             7.8682724   -0.11933240861517
             1.8812885   -0.16085421161283
             0.5442493     1.1434564825515
 s    1 1.00
             0.1687144                   1
 p    3 1.00
             7.8682724   0.068999095584993
             1.8812885    0.31642397975315
             0.5442493    0.74430825237435
 p    1 1.00
             0.1687144                   1
 d    1 1.00
                   0.8                   1

21 0
 s    6 1.00
             3047.5249  0.0018347001629433
             457.36951    0.01403730124668
             103.94869   0.068842606114048
             29.210155    0.23218442062076
              9.286663    0.46794134155879
              3.163927    0.36231203217765
 s    3 1.00
             7.8682724   -0.11933240861517
             1.8812885   -0.16085421161283
             0.5442493     1.1434564825515
 s    1 1.00
             0.1687144                   1
 p    3 1.00
             7.8682724   0.068999095584993
             1.8812885    0.31642397975315
             0.5442493    0.74430825237435
 p    1 1.00
             0.1687144                   1
 d    1 1.00
                   0.8                   1

22 0
 s    3 1.00
             18.731137    0.03349459952309
             2.8253937    0.23472694665786
             0.6401217    0.81375731841339
 s    1 1.00
             0.1612778                   1

23 0
 s    3 1.00
             18.731137    0.03349459952309
             2.8253937    0.23472694665786
             0.6401217    0.81375731841339
 s    1 1.00
             0.1612778                   1

24 0
 s    3 1.00
             18.731137    0.03349459952309
             2.8253937    0.23472694665786
             0.6401217    0.81375731841339
 s    1 1.00
             0.1612778                   1

25 0
 s    3 1.00
             18.731137    0.03349459952309
             2.8253937    0.23472694665786
             0.6401217    0.81375731841339
 s    1 1.00
             0.1612778                   1

26 0
 s    3 1.00
             18.731137    0.03349459952309
             2.8253937    0.23472694665786
             0.6401217    0.81375731841339
 s    1 1.00
             0.1612778                   1

27 0
 s    3 1.00
             18.731137    0.03349459952309
             2.8253937    0.23472694665786
             0.6401217    0.81375731841339
 s    1 1.00
             0.1612778                   1

28 0
 s    3 1.00
             18.731137    0.03349459952309
             2.8253937    0.23472694665786
             0.6401217    0.81375731841339
 s    1 1.00
             0.1612778                   1

29 0
 s    3 1.00
             18.731137    0.03349459952309
             2.8253937    0.23472694665786
             0.6401217    0.81375731841339
 s    1 1.00
             0.1612778                   1

30 0
 s    3 1.00
             18.731137    0.03349459952309
             2.8253937    0.23472694665786
             0.6401217    0.81375731841339
 s    1 1.00
             0.1612778                   1

31 0
 s    3 1.00
             18.731137    0.03349459952309
             2.8253937    0.23472694665786
             0.6401217    0.81375731841339
 s    1 1.00
             0.1612778                   1

32 0
 s    3 1.00
             18.731137    0.03349459952309
             2.8253937    0.23472694665786
             0.6401217    0.81375731841339
 s    1 1.00
             0.1612778                   1

33 0
 s    6 1.00
             3047.5249  0.0018347001629433
             457.36951    0.01403730124668
             103.94869   0.068842606114048
             29.210155    0.23218442062076
              9.286663    0.46794134155879
              3.163927    0.36231203217765
 s    3 1.00
             7.8682724   -0.11933240861517
             1.8812885   -0.16085421161283
             0.5442493     1.1434564825515
 s    1 1.00
             0.1687144                   1
 p    3 1.00
             7.8682724   0.068999095584993
             1.8812885    0.31642397975315
             0.5442493    0.74430825237435
 p    1 1.00
             0.1687144                   1
 d    1 1.00
                   0.8                   1

34 0
 s    6 1.00
             3047.5249  0.0018347001629433
             457.36951    0.01403730124668
             103.94869   0.068842606114048
             29.210155    0.23218442062076
              9.286663    0.46794134155879
              3.163927    0.36231203217765
 s    3 1.00
             7.8682724   -0.11933240861517
             1.8812885   -0.16085421161283
             0.5442493     1.1434564825515
 s    1 1.00
             0.1687144                   1
 p    3 1.00
             7.8682724   0.068999095584993
             1.8812885    0.31642397975315
             0.5442493    0.74430825237435
 p    1 1.00
             0.1687144                   1
 d    1 1.00
                   0.8                   1

35 0
 s    3 1.00
             18.731137    0.03349459952309
             2.8253937    0.23472694665786
             0.6401217    0.81375731841339
 s    1 1.00
             0.1612778                   1

36 0
 s    6 1.00
             3047.5249  0.0018347001629433
             457.36951    0.01403730124668
             103.94869   0.068842606114048
             29.210155    0.23218442062076
              9.286663    0.46794134155879
              3.163927    0.36231203217765
 s    3 1.00
             7.8682724   -0.11933240861517
             1.8812885   -0.16085421161283
             0.5442493     1.1434564825515
 s    1 1.00
             0.1687144                   1
 p    3 1.00
             7.8682724   0.068999095584993
             1.8812885    0.31642397975315
             0.5442493    0.74430825237435
 p    1 1.00
             0.1687144                   1
 d    1 1.00
                   0.8                   1

37 0
 s    3 1.00
             18.731137    0.03349459952309
             2.8253937    0.23472694665786
             0.6401217    0.81375731841339
 s    1 1.00
             0.1612778                   1

38 0
 s    3 1.00
             18.731137    0.03349459952309
             2.8253937    0.23472694665786
             0.6401217    0.81375731841339
 s    1 1.00
             0.1612778                   1

39 0
 s    6 1.00
             3047.5249  0.0018347001629433
             457.36951    0.01403730124668
             103.94869   0.068842606114048
             29.210155    0.23218442062076
              9.286663    0.46794134155879
              3.163927    0.36231203217765
 s    3 1.00
             7.8682724   -0.11933240861517
             1.8812885   -0.16085421161283
             0.5442493     1.1434564825515
 s    1 1.00
             0.1687144                   1
 p    3 1.00
             7.8682724   0.068999095584993
             1.8812885    0.31642397975315
             0.5442493    0.74430825237435
 p    1 1.00
             0.1687144                   1
 d    1 1.00
                   0.8                   1

40 0
 s    6 1.00
             3047.5249  0.0018347001629433
             457.36951    0.01403730124668
             103.94869   0.068842606114048
             29.210155    0.23218442062076
              9.286663    0.46794134155879
              3.163927    0.36231203217765
 s    3 1.00
             7.8682724   -0.11933240861517
             1.8812885   -0.16085421161283
             0.5442493     1.1434564825515
 s    1 1.00
             0.1687144                   1
 p    3 1.00
             7.8682724   0.068999095584993
             1.8812885    0.31642397975315
             0.5442493    0.74430825237435
 p    1 1.00
             0.1687144                   1
 d    1 1.00
                   0.8                   1

41 0
 s    3 1.00
             18.731137    0.03349459952309
             2.8253937    0.23472694665786
             0.6401217    0.81375731841339
 s    1 1.00
             0.1612778                   1

42 0
 s    6 1.00
             5484.6717   0.001831099805527
             825.23495   0.013950098518422
             188.04696    0.06844509273075
               52.9645    0.23271427528445
              16.89757    0.47019295006289
             5.7996353    0.35852086192309
 s    3 1.00
             15.539616   -0.11077750382508
             3.5999336   -0.14802630511126
             1.0137618     1.1307670390447
 s    1 1.00
             0.2700058                   1
 p    3 1.00
             15.539616   0.070874299543311
             3.5999336    0.33975279781076
             1.0137618    0.72715859531445
 p    1 1.00
             0.2700058                   1
 d    1 1.00
                   0.8                   1

43 0
 s    3 1.00
             18.731137    0.03349459952309
             2.8253937    0.23472694665786
             0.6401217    0.81375731841339
 s    1 1.00
             0.1612778                   1

[5d]
[7f]
[9g]

[MO]
 Sym= A
 Ene=               0
 Spin= Alpha
 Occup=    1.00000
   1    -1.761172728968e-06
   2    -1.3144227350623e-05
   3    0.00016266474597347
   4    -7.2857455628087e-06
   5    3.1790924272707e-05
   6    1.3183123899107e-06
   7    -9.2980673482829e-05
   8    -7.4856339523823e-05
   9    -7.6316442727406e-05
  10    -5.2652613195028e-06
  11     4.34138592876e-06
  12    4.0060997088075e-06
  13    1.0094945720622e-05
  14    -5.6486625580297e-06
  15    9.1039283067138e-07
  16    3.3584124080528e-05
  17    4.4097318303661e-06
  18    9.9243801623465e-05
  19    0.00078504619134118
  20    3.4178928109151e-05
  21    -2.6102653226222e-05
  22    -6.1141295413415e-05
  23    0.00019146081178042
  24    -6.1912565381586e-06
  25    -0.00073113141003562
  26    3.2759017845126e-05
  27    -2.2703682845024e-05
  28    -6.4450163663587e-06
  29    4.1127405238958e-05
  30    -2.685721679756e-05
  31    -7.5231277009423e-06
  32    -6.0130956506856e-06
  33    4.2369266952279e-05
  34    0.00036811661320006
  35    -0.0046787062822855
  36    -6.6322255287655e-05
  37    4.6861761455017e-06
  38    0.00011838527596957
  39    0.00041852718450981
  40    0.0018435523838384
  41    0.00099106140015535
  42    -9.2116105289501e-05
  43    6.9452459138209e-05
  44    -0.00010074920821012
  45    4.0048050740891e-05
  46    -1.1785725830289e-05
  47    -1.2476456757302e-05
  48    -0.00029645155853306
  49    3.4172743051457e-05
  50    6.4333596079866e-05
  51    0.0037030880987667
  52    2.0669796449035e-05
  53    -0.00022295232335133
  54    -0.00026146606023597
  55    -0.00034311562510073
  56    0.0024747789169298
  57    0.0031456272446898
  58    5.2419909665055e-05
  59    8.4194144176532e-05
  60    0.00019631780578221
  61    -8.8859681994166e-06
  62    -0.00012804586421467
  63    0.00027828959715622
  64    6.033312856094e-05
  65    -7.6971611152497e-08
  66    -3.2176896167001e-07
  67    3.4482677976754e-08
  68    -3.4133402846711e-07
  69    2.8473511168421e-06
  70    -3.7566419678506e-07
  71    1.3189432565672e-07
  72    2.5566851442576e-07
  73    -7.4485638843005e-07
  74    1.6894368943854e-06
  75    5.6271412206371e-07
  76    -7.8828721449885e-08
  77    -8.4584405153766e-08
  78    -1.1487424382106e-09
  79    6.0607214194192e-08
  80    -5.7917198199152e-08
  81    9.1697807210096e-08
  82    3.2559007367585e-07
  83    2.9119427769489e-08
  84    -3.968278256983e-07
  85    -6.5229193333882e-06
  86    8.9218600772306e-07
  87    6.2632888122031e-07
  88     4.92166584886e-07
  89    1.9511273171964e-06
  90    -2.2083217470675e-06
  91    1.7191301718843e-06
  92    8.265682511268e-08
  93    -2.2748305819779e-09
  94    1.5495382421837e-07
  95    1.0497504735057e-07
  96    2.2264132691612e-09
  97    1.084789466136e-06
  98    2.0583803710474e-06
  99    -4.4958872903185e-07
 100    -1.370074319066e-06
 101    -1.7504246663795e-07
 102    -4.2188142822318e-07
 103    1.2746149326498e-06
 104    -2.2707477527388e-06
 105    -3.5273937177864e-06
 106    1.4249285489382e-07
 107    -8.1045355345244e-06
 108    2.4990620751238e-06
 109    1.6571071241187e-05
 110    -5.2903727684035e-07
 111    -5.3452952483693e-07
 112    2.7435504454312e-07
 113    7.1532556882289e-07
 114    8.6499916573731e-08
 115    -4.3363127376442e-07
 116    -4.3708673803931e-06
 117    2.6958225231258e-05
 118    -3.3028675513818e-07
 119    8.0794739527181e-07
 120    3.4696404283564e-07
 121    -5.0107488001332e-06
 122    2.2298478069987e-07
 123    -4.8339562396425e-06
 124    -1.0529953447501e-07
 125    5.3777613908871e-08
 126    -1.4233970377421e-07
 127    2.7470617029301e-08
 128    -3.6895957330714e-08
 129    -6.6903213787348e-07
 130    -7.045446598367e-06
 131    1.6304227389604e-05
 132    -1.7988373490219e-06
 133    -3.9713450687061e-06
 134    3.5795010214068e-06
 135    1.1106609244147e-06
 136    2.7176878634353e-06
 137    -3.8349291759737e-05
 138    1.200322226307e-06
 139    7.1889530894187e-07
 140    -4.6460887202144e-07
 141    2.3022874598059e-07
 142    -3.1260667117976e-07
 143    7.0760186073212e-08
 144    -9.9511448220828e-07
 145    9.6975437914926e-06
 146    -1.6305748811144e-08
 147    1.580392463049e-06
 148    2.7528858714617e-08
 149    5.4587945028139e-06
 150    -1.4100737943618e-05
 151    5.4649713023534e-06
 152    -5.5754027515426e-07
 153    -1.2719954982372e-07
 154    4.2442704432067e-07
 155    4.2719057057934e-07
 156    -1.5635802915867e-07
 157    -7.1894640031101e-08
 158    -6.348602862032e-07
 159    9.3260146258438e-06
 160    8.4272263787272e-07
 161    -7.0846513052898e-07
 162    9.3314467483454e-07
 163    -4.4091346242762e-07
 164    -3.8528285998254e-06
 165    3.5718991832675e-07
 166    -2.8468937714349e-08
 167    1.1406830245635e-07
 168    -6.9867618910579e-08
 169    -2.0211242158649e-07
 170    -5.8766908225301e-08
 171    1.5500011849144e-07
 172    -5.5664230970361e-07
 173    -4.1169635829406e-06
 174    -9.0877420890714e-07
 175    -1.2574416269995e-07
 176    4.011077174547e-07
 177    -3.0804895804013e-06
 178    -5.4026145091898e-07
 179    -3.080829854044e-06
 180    2.2406504619798e-07
 181    -1.5436059819361e-07
 182    -7.1509219088403e-08
 183    -4.2063035836682e-07
 184    -1.1929986621149e-07
 185    -1.4068847718699e-07
 186    -6.8199650541291e-07
 187    -2.9957291357031e-06
 188    2.1463996517781e-08
 189    5.9054962509719e-08
 190    5.6870506141892e-08
 191    1.6995305327518e-06
 192    3.6339786496432e-06
 193    -2.4575747587746e-06
 194    2.1328964888392e-07
 195    -1.3288318475958e-07
 196    -3.4145619109157e-07
 197    8.0227746496687e-08
 198    -1.0824549892281e-07
 199    -1.5008203903304e-07
 200    -1.5781284958528e-06
 201    -2.356863172697e-07
 202    1.1635903320342e-06
 203    -1.6858165924359e-06
 204    -1.6613556973244e-06
 205    -2.7926702419634e-07
 206    -6.0880531568642e-07
 207    1.8590795382535e-06
 208    -1.8002117403722e-05
 209    -1.3231637572964e-07
 210    -2.3707635431852e-06
 211    -3.3123659499395e-07
 212    1.2404642281171e-06
 213    -1.7544778780175e-07
 214    -6.371177956708e-07
 215    1.8980422154729e-07
 216    -3.1542398000458e-06
 217    2.4656286300569e-07
 218     1.05692613256e-06
 219    -9.1312630798894e-08
 220    1.5276925435479e-06
 221    9.1953787669531e-07
 222    -3.8095061786208e-06
 223    -4.2314425921327e-05
 224    -4.8961366002007e-06
 225    4.8365965183249e-06
 226    4.323663552352e-06
 227    9.6072492074913e-06
 228    9.2141469527449e-06
 229    1.432556525113e-06
 230    -2.0474610240671e-06
 231    -6.1831499318102e-07
 232    -7.498191317608e-07
 233    4.3392340927356e-07
 234    1.8703001463956e-06
 235    -1.3907367257742e-06
 236    -1.1120702949469e-05
 237    0.00019987741149375
 238    5.6033342088206e-06
 239    1.3523864161771e-05
 240    -4.3033903929953e-06
 241    -5.8985871242481e-05
 242    -1.7991705890266e-05
 243    -0.00011184586495765
 244    6.7185541448688e-06
 245    4.7247785041341e-06
 246    1.6048580412092e-06
 247    2.4815466379977e-06
 248    3.3775524397837e-06
 249    1.2204732073868e-06
 250    1.4710925415099e-05
 251    -1.4132594042761e-05
 252    -1.0587085330437e-05
 253    -0.00014168581055475
 254    7.7215946082464e-06
 255    -9.3949015688236e-06
 256     2.04659432701e-05
 257    -5.6341420178714e-05
 258    8.9458310303426e-05
 259    -0.00016426899000063
 260    -4.5491954943111e-06
 261    -5.9718717571243e-06
 262    -4.7814721435762e-06
 263    1.6241559204628e-06
 264    7.4784200612993e-06
 265    5.2731576593379e-06
 266    2.7011881850562e-05
 267    -1.5286209307783e-05
 268    1.2714866456318e-05
 269    0.00025949278683678
 270    9.0878683224483e-05
 271      0.00337866932708
 272    -1.3275928683865e-07
 273    -0.00039839914757555
 274    -0.00036151678712725
 275    0.0020234730744616
 276    0.00062109798431452
 277    -0.0037977298934602
 278    0.0003315572676298
 279    -0.00015527342816267