[Molden Format]
made by pyscf v[2.0.1]
[Atoms] (AU)
C   1   6     0.69100024066471     0.64692934207205    -3.48223131169301
H   2   1     2.68052439830868     1.13355088658700    -3.25784032593313
C   3   6    -0.36286361513219     0.85440132524594    -5.97030179418974
H   4   1    -2.35448549047279     0.36322488579172    -6.17995817793143
C   5   6     0.93697958957450     1.61209284601821    -8.05828437677121
H   6   1     0.73648971111668     3.55370010139060    -8.71472010856714
C   7   6     2.58127687438623    -0.01872844577485    -9.47001807350619
H   8   1     2.76404479428938    -1.95840164828389    -8.78885291415754
H   9   1     1.55630230933075    -1.92953025305990    12.99630010416247
C   10   6     0.75233899775814    -2.21270439606481    11.10705728102219
H   11   1    -0.43433408177274    -3.90944857546550    11.22216085340412
C   12   6     2.86362581178706    -2.63237380607947     9.17926416456045
H   13   1     4.39038949912609    -1.24955421540245     9.49899813497433
H   14   1     3.74629220191363    -4.48798724300892     9.47414880959024
C   15   6     2.02478325613682    -2.42177285709634     6.44560829588644
C   16   6     3.88048732735477    -3.58795445234514     4.61402886975252
C   17   6    -0.18412382258602    -1.30464291234259     5.76021113872346
C   18   6    -2.10044360464350    -0.26837831858460     7.71610340967100
C   19   6    -3.08956938670431     2.35282328359417     6.88693925039594
C   20   6    -4.37372924086464    -2.09766595989678     7.93610724222001
C   21   6    -0.83850430601230     0.06372213486173    10.33002307638377
H   22   1     0.38411922151109     1.74281358582432    10.27380136542181
H   23   1    -2.30980003007874     0.45460143924521    11.73986301809809
H   24   1     4.58527064644668    -5.38706904487420     5.36778158031719
H   25   1     5.54944938085014    -2.37631462192748     4.35398898413318
H   26   1     3.06633019150423    -3.94118377050688     2.75255466040884
H   27   1    -4.17727778763735     2.26573369139522     5.12914900961283
H   28   1    -1.52662344944051     3.68001877445626     6.59540397144508
H   29   1    -4.32916174397830     3.13643051467482     8.35225460090378
H   30   1    -5.32329548508442    -2.36691813602939     6.11583672749896
H   31   1    -5.77989366602257    -1.33896741843465     9.25748940450990
H   32   1    -3.79310905208926    -3.96389819310853     8.61386170102686
C   33   6    -1.01100794811226    -1.06331657314144     3.11929490449947
C   34   6     0.37686231036534    -0.33275864505552     1.09165013605873
H   35   1    -3.01671213906703    -1.40297922279997     2.77827895090944
C   36   6    -0.64382707979370    -0.11591880174385    -1.42063131251064
H   37   1     2.35569259782137     0.17174499283897     1.33641070251401
H   38   1    -2.63317482980319    -0.60229203511219    -1.66119700387645
C   39   6     3.90960344721415     0.65123442372143   -11.55890098643101
C   40   6     5.53597339482346    -1.15257329589011   -12.86589030877460
H   41   1     3.81237322709460     2.55237110239842   -12.33607146621226
O   42   8     6.77935136485374    -0.67974925370394   -14.75037240649433
H   43   1     5.57867975922019    -3.07543379045103   -12.00509846248917
[GTO]
1 0
 s    6 1.00
             3047.5249  0.0018347001629433
             457.36951    0.01403730124668
             103.94869   0.068842606114048
             29.210155    0.23218442062076
              9.286663    0.46794134155879
              3.163927    0.36231203217765
 s    3 1.00
             7.8682724   -0.11933240861517
             1.8812885   -0.16085421161283
             0.5442493     1.1434564825515
 s    1 1.00
             0.1687144                   1
 p    3 1.00
             7.8682724   0.068999095584993
             1.8812885    0.31642397975315
             0.5442493    0.74430825237435
 p    1 1.00
             0.1687144                   1
 d    1 1.00
                   0.8                   1

2 0
 s    3 1.00
             18.731137    0.03349459952309
             2.8253937    0.23472694665786
             0.6401217    0.81375731841339
 s    1 1.00
             0.1612778                   1

3 0
 s    6 1.00
             3047.5249  0.0018347001629433
             457.36951    0.01403730124668
             103.94869   0.068842606114048
             29.210155    0.23218442062076
              9.286663    0.46794134155879
              3.163927    0.36231203217765
 s    3 1.00
             7.8682724   -0.11933240861517
             1.8812885   -0.16085421161283
             0.5442493     1.1434564825515
 s    1 1.00
             0.1687144                   1
 p    3 1.00
             7.8682724   0.068999095584993
             1.8812885    0.31642397975315
             0.5442493    0.74430825237435
 p    1 1.00
             0.1687144                   1
 d    1 1.00
                   0.8                   1

4 0
 s    3 1.00
             18.731137    0.03349459952309
             2.8253937    0.23472694665786
             0.6401217    0.81375731841339
 s    1 1.00
             0.1612778                   1

5 0
 s    6 1.00
             3047.5249  0.0018347001629433
             457.36951    0.01403730124668
             103.94869   0.068842606114048
             29.210155    0.23218442062076
              9.286663    0.46794134155879
              3.163927    0.36231203217765
 s    3 1.00
             7.8682724   -0.11933240861517
             1.8812885   -0.16085421161283
             0.5442493     1.1434564825515
 s    1 1.00
             0.1687144                   1
 p    3 1.00
             7.8682724   0.068999095584993
             1.8812885    0.31642397975315
             0.5442493    0.74430825237435
 p    1 1.00
             0.1687144                   1
 d    1 1.00
                   0.8                   1

6 0
 s    3 1.00
             18.731137    0.03349459952309
             2.8253937    0.23472694665786
             0.6401217    0.81375731841339
 s    1 1.00
             0.1612778                   1

7 0
 s    6 1.00
             3047.5249  0.0018347001629433
             457.36951    0.01403730124668
             103.94869   0.068842606114048
             29.210155    0.23218442062076
              9.286663    0.46794134155879
              3.163927    0.36231203217765
 s    3 1.00
             7.8682724   -0.11933240861517
             1.8812885   -0.16085421161283
             0.5442493     1.1434564825515
 s    1 1.00
             0.1687144                   1
 p    3 1.00
             7.8682724   0.068999095584993
             1.8812885    0.31642397975315
             0.5442493    0.74430825237435
 p    1 1.00
             0.1687144                   1
 d    1 1.00
                   0.8                   1

8 0
 s    3 1.00
             18.731137    0.03349459952309
             2.8253937    0.23472694665786
             0.6401217    0.81375731841339
 s    1 1.00
             0.1612778                   1

9 0
 s    3 1.00
             18.731137    0.03349459952309
             2.8253937    0.23472694665786
             0.6401217    0.81375731841339
 s    1 1.00
             0.1612778                   1

10 0
 s    6 1.00
             3047.5249  0.0018347001629433
             457.36951    0.01403730124668
             103.94869   0.068842606114048
             29.210155    0.23218442062076
              9.286663    0.46794134155879
              3.163927    0.36231203217765
 s    3 1.00
             7.8682724   -0.11933240861517
             1.8812885   -0.16085421161283
             0.5442493     1.1434564825515
 s    1 1.00
             0.1687144                   1
 p    3 1.00
             7.8682724   0.068999095584993
             1.8812885    0.31642397975315
             0.5442493    0.74430825237435
 p    1 1.00
             0.1687144                   1
 d    1 1.00
                   0.8                   1

11 0
 s    3 1.00
             18.731137    0.03349459952309
             2.8253937    0.23472694665786
             0.6401217    0.81375731841339
 s    1 1.00
             0.1612778                   1

12 0
 s    6 1.00
             3047.5249  0.0018347001629433
             457.36951    0.01403730124668
             103.94869   0.068842606114048
             29.210155    0.23218442062076
              9.286663    0.46794134155879
              3.163927    0.36231203217765
 s    3 1.00
             7.8682724   -0.11933240861517
             1.8812885   -0.16085421161283
             0.5442493     1.1434564825515
 s    1 1.00
             0.1687144                   1
 p    3 1.00
             7.8682724   0.068999095584993
             1.8812885    0.31642397975315
             0.5442493    0.74430825237435
 p    1 1.00
             0.1687144                   1
 d    1 1.00
                   0.8                   1

13 0
 s    3 1.00
             18.731137    0.03349459952309
             2.8253937    0.23472694665786
             0.6401217    0.81375731841339
 s    1 1.00
             0.1612778                   1

14 0
 s    3 1.00
             18.731137    0.03349459952309
             2.8253937    0.23472694665786
             0.6401217    0.81375731841339
 s    1 1.00
             0.1612778                   1

15 0
 s    6 1.00
             3047.5249  0.0018347001629433
             457.36951    0.01403730124668
             103.94869   0.068842606114048
             29.210155    0.23218442062076
              9.286663    0.46794134155879
              3.163927    0.36231203217765
 s    3 1.00
             7.8682724   -0.11933240861517
             1.8812885   -0.16085421161283
             0.5442493     1.1434564825515
 s    1 1.00
             0.1687144                   1
 p    3 1.00
             7.8682724   0.068999095584993
             1.8812885    0.31642397975315
             0.5442493    0.74430825237435
 p    1 1.00
             0.1687144                   1
 d    1 1.00
                   0.8                   1

16 0
 s    6 1.00
             3047.5249  0.0018347001629433
             457.36951    0.01403730124668
             103.94869   0.068842606114048
             29.210155    0.23218442062076
              9.286663    0.46794134155879
              3.163927    0.36231203217765
 s    3 1.00
             7.8682724   -0.11933240861517
             1.8812885   -0.16085421161283
             0.5442493     1.1434564825515
 s    1 1.00
             0.1687144                   1
 p    3 1.00
             7.8682724   0.068999095584993
             1.8812885    0.31642397975315
             0.5442493    0.74430825237435
 p    1 1.00
             0.1687144                   1
 d    1 1.00
                   0.8                   1

17 0
 s    6 1.00
             3047.5249  0.0018347001629433
             457.36951    0.01403730124668
             103.94869   0.068842606114048
             29.210155    0.23218442062076
              9.286663    0.46794134155879
              3.163927    0.36231203217765
 s    3 1.00
             7.8682724   -0.11933240861517
             1.8812885   -0.16085421161283
             0.5442493     1.1434564825515
 s    1 1.00
             0.1687144                   1
 p    3 1.00
             7.8682724   0.068999095584993
             1.8812885    0.31642397975315
             0.5442493    0.74430825237435
 p    1 1.00
             0.1687144                   1
 d    1 1.00
                   0.8                   1

18 0
 s    6 1.00
             3047.5249  0.0018347001629433
             457.36951    0.01403730124668
             103.94869   0.068842606114048
             29.210155    0.23218442062076
              9.286663    0.46794134155879
              3.163927    0.36231203217765
 s    3 1.00
             7.8682724   -0.11933240861517
             1.8812885   -0.16085421161283
             0.5442493     1.1434564825515
 s    1 1.00
             0.1687144                   1
 p    3 1.00
             7.8682724   0.068999095584993
             1.8812885    0.31642397975315
             0.5442493    0.74430825237435
 p    1 1.00
             0.1687144                   1
 d    1 1.00
                   0.8                   1

19 0
 s    6 1.00
             3047.5249  0.0018347001629433
             457.36951    0.01403730124668
             103.94869   0.068842606114048
             29.210155    0.23218442062076
              9.286663    0.46794134155879
              3.163927    0.36231203217765
 s    3 1.00
             7.8682724   -0.11933240861517
             1.8812885   -0.16085421161283
             0.5442493     1.1434564825515
 s    1 1.00
             0.1687144                   1
 p    3 1.00
             7.8682724   0.068999095584993
             1.8812885    0.31642397975315
             0.5442493    0.74430825237435
 p    1 1.00
             0.1687144                   1
 d    1 1.00
                   0.8                   1

20 0
 s    6 1.00
             3047.5249  0.0018347001629433
             457.36951    0.01403730124668
             103.94869   0.068842606114048
             29.210155    0.23218442062076
              9.286663    0.46794134155879
              3.163927    0.36231203217765
 s    3 1.00
             7.8682724   -0.11933240861517
             1.8812885   -0.16085421161283
             0.5442493     1.1434564825515
 s    1 1.00
             0.1687144                   1
 p    3 1.00
             7.8682724   0.068999095584993
             1.8812885    0.31642397975315
             0.5442493    0.74430825237435
 p    1 1.00
             0.1687144                   1
 d    1 1.00
                   0.8                   1

21 0
 s    6 1.00
             3047.5249  0.0018347001629433
             457.36951    0.01403730124668
             103.94869   0.068842606114048
             29.210155    0.23218442062076
              9.286663    0.46794134155879
              3.163927    0.36231203217765
 s    3 1.00
             7.8682724   -0.11933240861517
             1.8812885   -0.16085421161283
             0.5442493     1.1434564825515
 s    1 1.00
             0.1687144                   1
 p    3 1.00
             7.8682724   0.068999095584993
             1.8812885    0.31642397975315
             0.5442493    0.74430825237435
 p    1 1.00
             0.1687144                   1
 d    1 1.00
                   0.8                   1

22 0
 s    3 1.00
             18.731137    0.03349459952309
             2.8253937    0.23472694665786
             0.6401217    0.81375731841339
 s    1 1.00
             0.1612778                   1

23 0
 s    3 1.00
             18.731137    0.03349459952309
             2.8253937    0.23472694665786
             0.6401217    0.81375731841339
 s    1 1.00
             0.1612778                   1

24 0
 s    3 1.00
             18.731137    0.03349459952309
             2.8253937    0.23472694665786
             0.6401217    0.81375731841339
 s    1 1.00
             0.1612778                   1

25 0
 s    3 1.00
             18.731137    0.03349459952309
             2.8253937    0.23472694665786
             0.6401217    0.81375731841339
 s    1 1.00
             0.1612778                   1

26 0
 s    3 1.00
             18.731137    0.03349459952309
             2.8253937    0.23472694665786
             0.6401217    0.81375731841339
 s    1 1.00
             0.1612778                   1

27 0
 s    3 1.00
             18.731137    0.03349459952309
             2.8253937    0.23472694665786
             0.6401217    0.81375731841339
 s    1 1.00
             0.1612778                   1

28 0
 s    3 1.00
             18.731137    0.03349459952309
             2.8253937    0.23472694665786
             0.6401217    0.81375731841339
 s    1 1.00
             0.1612778                   1

29 0
 s    3 1.00
             18.731137    0.03349459952309
             2.8253937    0.23472694665786
             0.6401217    0.81375731841339
 s    1 1.00
             0.1612778                   1

30 0
 s    3 1.00
             18.731137    0.03349459952309
             2.8253937    0.23472694665786
             0.6401217    0.81375731841339
 s    1 1.00
             0.1612778                   1

31 0
 s    3 1.00
             18.731137    0.03349459952309
             2.8253937    0.23472694665786
             0.6401217    0.81375731841339
 s    1 1.00
             0.1612778                   1

32 0
 s    3 1.00
             18.731137    0.03349459952309
             2.8253937    0.23472694665786
             0.6401217    0.81375731841339
 s    1 1.00
             0.1612778                   1

33 0
 s    6 1.00
             3047.5249  0.0018347001629433
             457.36951    0.01403730124668
             103.94869   0.068842606114048
             29.210155    0.23218442062076
              9.286663    0.46794134155879
              3.163927    0.36231203217765
 s    3 1.00
             7.8682724   -0.11933240861517
             1.8812885   -0.16085421161283
             0.5442493     1.1434564825515
 s    1 1.00
             0.1687144                   1
 p    3 1.00
             7.8682724   0.068999095584993
             1.8812885    0.31642397975315
             0.5442493    0.74430825237435
 p    1 1.00
             0.1687144                   1
 d    1 1.00
                   0.8                   1

34 0
 s    6 1.00
             3047.5249  0.0018347001629433
             457.36951    0.01403730124668
             103.94869   0.068842606114048
             29.210155    0.23218442062076
              9.286663    0.46794134155879
              3.163927    0.36231203217765
 s    3 1.00
             7.8682724   -0.11933240861517
             1.8812885   -0.16085421161283
             0.5442493     1.1434564825515
 s    1 1.00
             0.1687144                   1
 p    3 1.00
             7.8682724   0.068999095584993
             1.8812885    0.31642397975315
             0.5442493    0.74430825237435
 p    1 1.00
             0.1687144                   1
 d    1 1.00
                   0.8                   1

35 0
 s    3 1.00
             18.731137    0.03349459952309
             2.8253937    0.23472694665786
             0.6401217    0.81375731841339
 s    1 1.00
             0.1612778                   1

36 0
 s    6 1.00
             3047.5249  0.0018347001629433
             457.36951    0.01403730124668
             103.94869   0.068842606114048
             29.210155    0.23218442062076
              9.286663    0.46794134155879
              3.163927    0.36231203217765
 s    3 1.00
             7.8682724   -0.11933240861517
             1.8812885   -0.16085421161283
             0.5442493     1.1434564825515
 s    1 1.00
             0.1687144                   1
 p    3 1.00
             7.8682724   0.068999095584993
             1.8812885    0.31642397975315
             0.5442493    0.74430825237435
 p    1 1.00
             0.1687144                   1
 d    1 1.00
                   0.8                   1

37 0
 s    3 1.00
             18.731137    0.03349459952309
             2.8253937    0.23472694665786
             0.6401217    0.81375731841339
 s    1 1.00
             0.1612778                   1

38 0
 s    3 1.00
             18.731137    0.03349459952309
             2.8253937    0.23472694665786
             0.6401217    0.81375731841339
 s    1 1.00
             0.1612778                   1

39 0
 s    6 1.00
             3047.5249  0.0018347001629433
             457.36951    0.01403730124668
             103.94869   0.068842606114048
             29.210155    0.23218442062076
              9.286663    0.46794134155879
              3.163927    0.36231203217765
 s    3 1.00
             7.8682724   -0.11933240861517
             1.8812885   -0.16085421161283
             0.5442493     1.1434564825515
 s    1 1.00
             0.1687144                   1
 p    3 1.00
             7.8682724   0.068999095584993
             1.8812885    0.31642397975315
             0.5442493    0.74430825237435
 p    1 1.00
             0.1687144                   1
 d    1 1.00
                   0.8                   1

40 0
 s    6 1.00
             3047.5249  0.0018347001629433
             457.36951    0.01403730124668
             103.94869   0.068842606114048
             29.210155    0.23218442062076
              9.286663    0.46794134155879
              3.163927    0.36231203217765
 s    3 1.00
             7.8682724   -0.11933240861517
             1.8812885   -0.16085421161283
             0.5442493     1.1434564825515
 s    1 1.00
             0.1687144                   1
 p    3 1.00
             7.8682724   0.068999095584993
             1.8812885    0.31642397975315
             0.5442493    0.74430825237435
 p    1 1.00
             0.1687144                   1
 d    1 1.00
                   0.8                   1

41 0
 s    3 1.00
             18.731137    0.03349459952309
             2.8253937    0.23472694665786
             0.6401217    0.81375731841339
 s    1 1.00
             0.1612778                   1

42 0
 s    6 1.00
             5484.6717   0.001831099805527
             825.23495   0.013950098518422
             188.04696    0.06844509273075
               52.9645    0.23271427528445
              16.89757    0.47019295006289
             5.7996353    0.35852086192309
 s    3 1.00
             15.539616   -0.11077750382508
             3.5999336   -0.14802630511126
             1.0137618     1.1307670390447
 s    1 1.00
             0.2700058                   1
 p    3 1.00
             15.539616   0.070874299543311
             3.5999336    0.33975279781076
             1.0137618    0.72715859531445
 p    1 1.00
             0.2700058                   1
 d    1 1.00
                   0.8                   1

43 0
 s    3 1.00
             18.731137    0.03349459952309
             2.8253937    0.23472694665786
             0.6401217    0.81375731841339
 s    1 1.00
             0.1612778                   1

[5d]
[7f]
[9g]

[MO]
 Sym= A
 Ene=               0
 Spin= Alpha
 Occup=    1.00000
   1    6.179796141348e-07
   2    -6.0859557194103e-06
   3    -0.00012203418823616
   4    -2.7423679179267e-06
   5    -1.4129910303737e-05
   6    1.3314275846233e-05
   7    6.5867497797864e-05
   8    0.00015693491518933
   9    -0.00034538911100837
  10    -1.3573361713094e-06
  11    9.187868352484e-06
  12    -4.3924384672801e-07
  13    1.4290234205402e-05
  14    -8.2146998321254e-06
  15    -1.2339064062837e-05
  16    6.8787024922731e-06
  17    7.499846525086e-06
  18    0.00015968746424461
  19    0.00052944786600879
  20    5.9863224511945e-05
  21    -2.8772539489502e-06
  22    -7.1760604664007e-05
  23    0.00026712565498964
  24    -0.00012999806022137
  25    -0.00054469046091558
  26    2.3454080626935e-05
  27    -2.6415664565608e-05
  28    1.7597999696918e-05
  29    4.2444550762706e-05
  30    8.4629666951197e-06
  31    -1.03351028774e-05
  32    5.0433318470486e-05
  33    5.7704434765357e-05
  34    0.00038085641962844
  35    -0.0046386146375638
  36    -9.9736337690623e-05
  37    1.4907340195742e-05
  38    0.00013678304163205
  39    -0.00091256931466897
  40    0.0019685476315608
  41    0.0002857690188373
  42    -3.9044139220713e-06
  43    0.00011859237963392
  44    -4.6149538407558e-05
  45    5.3049781094084e-06
  46    8.2782865313593e-05
  47    -1.8119125205889e-05
  48    -0.00030094264630189
  49    4.7578587514441e-05
  50    0.00020495147712102
  51     0.003813715108595
  52    0.00026736525206585
  53    -0.0002193102397301
  54    -0.00025010448146723
  55    -0.002403073013698
  56    0.0026043834716404
  57     0.001956530734463
  58    -5.7536244212335e-05
  59    2.1833840629609e-05
  60    0.00019594878394224
  61    4.8364037010849e-05
  62    -0.0001221664217511
  63    0.00032482362222532
  64    8.7189962456326e-05
  65    -1.8609166369578e-07
  66    -3.2817514662517e-07
  67    -3.8615285419457e-08
  68    -5.7349745467215e-07
  69    2.7937965908904e-06
  70    1.931528387225e-07
  71    -3.1109865906318e-07
  72    1.8052177493217e-07
  73     2.11989841061e-07
  74    1.6930433403537e-06
  75    -3.1839877176486e-08
  76    -7.4714804393447e-08
  77    -1.3355046528106e-07
  78    3.9638197340668e-08
  79    5.8449885325924e-08
  80    -1.2356287510425e-07
  81    1.0305358665886e-07
  82    1.8112134661636e-07
  83    3.4796731407649e-09
  84    -4.1201577832967e-07
  85    -1.5646905986257e-05
  86    7.774693387068e-07
  87    -3.0585936294369e-08
  88    9.8473102569825e-07
  89    3.3584678957483e-06
  90    -4.49456059917e-06
  91    4.2402371968773e-06
  92    1.9506015693786e-07
  93    -2.8325708073226e-07
  94    3.6443062951888e-07
  95    8.8298514291519e-08
  96    -1.8586002342015e-07
  97    6.888601882677e-07
  98    7.8099683408879e-07
  99    6.8550411242542e-08
 100    -9.7139848361904e-07
 101    -2.9040562828344e-10
 102    -4.6835635145532e-07
 103    7.5636016830191e-06
 104    4.0724109745116e-07
 105    -1.0907410670542e-06
 106    -7.1360793565857e-07
 107    -1.9517394060246e-05
 108    1.8523145110053e-05
 109    3.7993955847056e-05
 110    -6.7532683922256e-07
 111    -6.96179201616e-07
 112    2.8703681431936e-07
 113    2.2665105059055e-07
 114    -5.0659233143469e-07
 115    -5.2584897448392e-07
 116    -4.7493220334807e-06
 117    4.0064767194692e-05
 118    -7.4128513176829e-07
 119    9.4581069605625e-07
 120    9.9166398412064e-07
 121    -1.0279645643474e-05
 122    2.9010674376786e-06
 123    3.909937509834e-06
 124    -1.4984575586994e-07
 125    -3.2599357671611e-07
 126    -4.1281913334424e-08
 127    2.194345384852e-07
 128    -4.518441955344e-07
 129    -1.1099018729319e-06
 130    -9.5029249364717e-06
 131    6.2065910208469e-05
 132    -3.5039772099824e-08
 133    1.4801934768153e-07
 134    3.625953099132e-06
 135    -2.0095610305454e-05
 136    -3.4911732976735e-06
 137    -9.5931559652863e-05
 138    2.8303622584541e-06
 139    1.8764311043591e-06
 140    1.2459623608115e-07
 141    4.8948756641395e-07
 142    -9.2626324283096e-08
 143    -5.6863714626512e-07
 144    -5.2266084137269e-06
 145    2.9457681535784e-05
 146    1.2094459258288e-07
 147    3.4653345126646e-07
 148    3.1680855918708e-07
 149    1.6564678614541e-05
 150    -7.0423688682944e-06
 151    -4.4301366409239e-06
 152    -1.0076273442553e-06
 153    -4.7715320630156e-07
 154    -8.0257277214862e-08
 155    8.1399026365608e-07
 156    -9.1638225339943e-07
 157    1.0760093798875e-07
 158    7.985605539727e-07
 159    2.0669782584955e-07
 160    6.8050000962882e-07
 161    -2.555444490075e-08
 162    -1.6938269325792e-07
 163    -7.2362448627297e-06
 164    4.1822038559729e-07
 165    8.3721926456538e-07
 166    5.4930859567794e-07
 167    -2.885402034407e-07
 168    3.7650447950678e-08
 169    -1.3898386313088e-07
 170    3.7002620770495e-07
 171    2.1103554778926e-08
 172    -4.7657231601818e-07
 173    -8.953917264053e-07
 174    -6.0416903615417e-07
 175    -1.9413118721841e-07
 176    7.2897849047296e-07
 177    -8.4736054703365e-07
 178    2.1934883830487e-06
 179    -1.650760938157e-06
 180    1.3784604729925e-07
 181    1.8238837245975e-07
 182    9.284782056064e-08
 183    -4.4901143552106e-07
 184    1.6443262215614e-07
 185    -2.9296256052075e-07
 186    -3.0594241824602e-06
 187    2.2290802984936e-07
 188    -1.6616487011708e-07
 189    1.5620207162871e-07
 190    1.351634968735e-06
 191    2.2932933160623e-06
 192    8.1404200539404e-07
 193    -4.88482212002e-06
 194    2.3474645415841e-07
 195    -7.7246842277429e-08
 196    2.2210154559474e-07
 197    1.4926263887371e-07
 198    -1.2534183129181e-07
 199    -6.6785743630583e-07
 200    -1.1170144455602e-06
 201    4.5283732841361e-08
 202    3.5567458242824e-06
 203    -1.6691977632434e-06
 204    -1.3218843166342e-06
 205    -4.1576202704532e-07
 206    -2.5615460101955e-06
 207    6.902949272254e-07
 208    -1.0041942628057e-05
 209    1.2146910907976e-06
 210    -4.946055242649e-06
 211    5.9238024885709e-07
 212    3.0529059137964e-06
 213    -2.9404669251232e-07
 214    -2.2021977189891e-06
 215    -3.6621090019566e-07
 216    1.6052728686843e-07
 217    1.952195505711e-07
 218    6.0048409096649e-07
 219    3.3195781203767e-07
 220    1.3361390252012e-06
 221    -5.3308164360668e-07
 222    -7.3538427278161e-06
 223    -3.0273593271905e-05
 224    6.1238606148949e-07
 225    -1.6343471720336e-06
 226    4.6172736296251e-06
 227    2.6171006164507e-06
 228    2.8857398886981e-05
 229    -0.00010085563733759
 230    -1.5009633639137e-06
 231    -4.4066011913622e-06
 232    -1.6968268720885e-06
 233    1.9179569075935e-06
 234    2.8071773112391e-06
 235    -9.4972921417636e-07
 236    -9.8585019272316e-06
 237    3.8276193345385e-05
 238    -3.0847122312536e-07
 239    3.8632730761237e-06
 240    2.6642017353298e-06
 241    -3.2971182640583e-05
 242    -8.7867148814338e-06
 243    -8.1969875141123e-05
 244    1.2659130818408e-06
 245    6.8351078959657e-06
 246    1.0671829525624e-06
 247    2.9278287731898e-06
 248    8.0816002503999e-07
 249    -5.0722239788629e-06
 250    1.1139350547518e-05
 251    -2.0003796010496e-06
 252    -3.223577704984e-05
 253    0.00030411201135738
 254    3.3721573333142e-06
 255    -7.3268586390985e-06
 256    7.7521984243552e-06
 257    0.00012245574636309
 258    8.9306806754247e-05
 259    -0.00028305600858161
 260    3.6011553014067e-06
 261    -1.366879214745e-05
 262    -4.590419460776e-06
 263    9.4423098317692e-06
 264    3.8323286575802e-06
 265    -2.9633728734801e-06
 266    3.0423214402038e-05
 267    -9.1358438860835e-06
 268    3.5089259850895e-05
 269    -1.326262306465e-05
 270    -6.2302955611369e-05
 271     0.003324861873479
 272    3.1992798575952e-05
 273    -0.00019990669685547
 274    5.295555867076e-05
 275    0.0023468735133829
 276    0.00064930637911724
 277     -0.00343706972145
 278    0.00016902185213197
 279    -0.00025737504422279
 280    0.00018198309441578