[Molden Format]
made by pyscf v[2.0.1]
[Atoms] (AU)
C   1   6     0.69100024066471     0.64692934207205    -3.48223131169301
H   2   1     2.68052439830868     1.13355088658700    -3.25784032593313
C   3   6    -0.36286361513219     0.85440132524594    -5.97030179418974
H   4   1    -2.35448549047279     0.36322488579172    -6.17995817793143
C   5   6     0.93697958957450     1.61209284601821    -8.05828437677121
H   6   1     0.01358296644616     2.85086245433209    -9.41980240085128
C   7   6     3.49095983212942     0.86501358647737    -8.58301400036413
H   8   1     4.39173101664678    -0.37544723242066    -7.20113468241566
H   9   1     1.55630230933075    -1.92953025305990    12.99630010416247
C   10   6     0.75233899775814    -2.21270439606481    11.10705728102219
H   11   1    -0.43433408177274    -3.90944857546550    11.22216085340412
C   12   6     2.86362581178706    -2.63237380607947     9.17926416456045
H   13   1     4.39038949912609    -1.24955421540245     9.49899813497433
H   14   1     3.74629220191363    -4.48798724300892     9.47414880959024
C   15   6     2.02478325613682    -2.42177285709634     6.44560829588644
C   16   6     3.88048732735477    -3.58795445234514     4.61402886975252
C   17   6    -0.18412382258602    -1.30464291234259     5.76021113872346
C   18   6    -2.10044360464350    -0.26837831858460     7.71610340967100
C   19   6    -3.08956938670431     2.35282328359417     6.88693925039594
C   20   6    -4.37372924086464    -2.09766595989678     7.93610724222001
C   21   6    -0.83850430601230     0.06372213486173    10.33002307638377
H   22   1     0.38411922151109     1.74281358582432    10.27380136542181
H   23   1    -2.30980003007874     0.45460143924521    11.73986301809809
H   24   1     4.58527064644668    -5.38706904487420     5.36778158031719
H   25   1     5.54944938085014    -2.37631462192748     4.35398898413318
H   26   1     3.06633019150423    -3.94118377050688     2.75255466040884
H   27   1    -4.17727778763735     2.26573369139522     5.12914900961283
H   28   1    -1.52662344944051     3.68001877445626     6.59540397144508
H   29   1    -4.32916174397830     3.13643051467482     8.35225460090378
H   30   1    -5.32329548508442    -2.36691813602939     6.11583672749896
H   31   1    -5.77989366602257    -1.33896741843465     9.25748940450990
H   32   1    -3.79310905208926    -3.96389819310853     8.61386170102686
C   33   6    -1.01100794811226    -1.06331657314144     3.11929490449947
C   34   6     0.37686231036534    -0.33275864505552     1.09165013605873
H   35   1    -3.01671213906703    -1.40297922279997     2.77827895090944
C   36   6    -0.64382707979370    -0.11591880174385    -1.42063131251064
H   37   1     2.35569259782137     0.17174499283897     1.33641070251401
H   38   1    -2.63317482980319    -0.60229203511219    -1.66119700387645
C   39   6     4.85727779250226     1.56932506344372   -10.63578143211247
C   40   6     7.45078580641309     0.70440198785573   -10.99998857146552
H   41   1     4.07326566832422     2.80126406203857   -12.08333786763668
O   42   8     8.78463246786107     1.26137953491899   -12.79761289932761
H   43   1     8.17650804893433    -0.55247504818230    -9.47232163774676
[GTO]
1 0
 s    6 1.00
             3047.5249  0.0018347001629433
             457.36951    0.01403730124668
             103.94869   0.068842606114048
             29.210155    0.23218442062076
              9.286663    0.46794134155879
              3.163927    0.36231203217765
 s    3 1.00
             7.8682724   -0.11933240861517
             1.8812885   -0.16085421161283
             0.5442493     1.1434564825515
 s    1 1.00
             0.1687144                   1
 p    3 1.00
             7.8682724   0.068999095584993
             1.8812885    0.31642397975315
             0.5442493    0.74430825237435
 p    1 1.00
             0.1687144                   1
 d    1 1.00
                   0.8                   1

2 0
 s    3 1.00
             18.731137    0.03349459952309
             2.8253937    0.23472694665786
             0.6401217    0.81375731841339
 s    1 1.00
             0.1612778                   1

3 0
 s    6 1.00
             3047.5249  0.0018347001629433
             457.36951    0.01403730124668
             103.94869   0.068842606114048
             29.210155    0.23218442062076
              9.286663    0.46794134155879
              3.163927    0.36231203217765
 s    3 1.00
             7.8682724   -0.11933240861517
             1.8812885   -0.16085421161283
             0.5442493     1.1434564825515
 s    1 1.00
             0.1687144                   1
 p    3 1.00
             7.8682724   0.068999095584993
             1.8812885    0.31642397975315
             0.5442493    0.74430825237435
 p    1 1.00
             0.1687144                   1
 d    1 1.00
                   0.8                   1

4 0
 s    3 1.00
             18.731137    0.03349459952309
             2.8253937    0.23472694665786
             0.6401217    0.81375731841339
 s    1 1.00
             0.1612778                   1

5 0
 s    6 1.00
             3047.5249  0.0018347001629433
             457.36951    0.01403730124668
             103.94869   0.068842606114048
             29.210155    0.23218442062076
              9.286663    0.46794134155879
              3.163927    0.36231203217765
 s    3 1.00
             7.8682724   -0.11933240861517
             1.8812885   -0.16085421161283
             0.5442493     1.1434564825515
 s    1 1.00
             0.1687144                   1
 p    3 1.00
             7.8682724   0.068999095584993
             1.8812885    0.31642397975315
             0.5442493    0.74430825237435
 p    1 1.00
             0.1687144                   1
 d    1 1.00
                   0.8                   1

6 0
 s    3 1.00
             18.731137    0.03349459952309
             2.8253937    0.23472694665786
             0.6401217    0.81375731841339
 s    1 1.00
             0.1612778                   1

7 0
 s    6 1.00
             3047.5249  0.0018347001629433
             457.36951    0.01403730124668
             103.94869   0.068842606114048
             29.210155    0.23218442062076
              9.286663    0.46794134155879
              3.163927    0.36231203217765
 s    3 1.00
             7.8682724   -0.11933240861517
             1.8812885   -0.16085421161283
             0.5442493     1.1434564825515
 s    1 1.00
             0.1687144                   1
 p    3 1.00
             7.8682724   0.068999095584993
             1.8812885    0.31642397975315
             0.5442493    0.74430825237435
 p    1 1.00
             0.1687144                   1
 d    1 1.00
                   0.8                   1

8 0
 s    3 1.00
             18.731137    0.03349459952309
             2.8253937    0.23472694665786
             0.6401217    0.81375731841339
 s    1 1.00
             0.1612778                   1

9 0
 s    3 1.00
             18.731137    0.03349459952309
             2.8253937    0.23472694665786
             0.6401217    0.81375731841339
 s    1 1.00
             0.1612778                   1

10 0
 s    6 1.00
             3047.5249  0.0018347001629433
             457.36951    0.01403730124668
             103.94869   0.068842606114048
             29.210155    0.23218442062076
              9.286663    0.46794134155879
              3.163927    0.36231203217765
 s    3 1.00
             7.8682724   -0.11933240861517
             1.8812885   -0.16085421161283
             0.5442493     1.1434564825515
 s    1 1.00
             0.1687144                   1
 p    3 1.00
             7.8682724   0.068999095584993
             1.8812885    0.31642397975315
             0.5442493    0.74430825237435
 p    1 1.00
             0.1687144                   1
 d    1 1.00
                   0.8                   1

11 0
 s    3 1.00
             18.731137    0.03349459952309
             2.8253937    0.23472694665786
             0.6401217    0.81375731841339
 s    1 1.00
             0.1612778                   1

12 0
 s    6 1.00
             3047.5249  0.0018347001629433
             457.36951    0.01403730124668
             103.94869   0.068842606114048
             29.210155    0.23218442062076
              9.286663    0.46794134155879
              3.163927    0.36231203217765
 s    3 1.00
             7.8682724   -0.11933240861517
             1.8812885   -0.16085421161283
             0.5442493     1.1434564825515
 s    1 1.00
             0.1687144                   1
 p    3 1.00
             7.8682724   0.068999095584993
             1.8812885    0.31642397975315
             0.5442493    0.74430825237435
 p    1 1.00
             0.1687144                   1
 d    1 1.00
                   0.8                   1

13 0
 s    3 1.00
             18.731137    0.03349459952309
             2.8253937    0.23472694665786
             0.6401217    0.81375731841339
 s    1 1.00
             0.1612778                   1

14 0
 s    3 1.00
             18.731137    0.03349459952309
             2.8253937    0.23472694665786
             0.6401217    0.81375731841339
 s    1 1.00
             0.1612778                   1

15 0
 s    6 1.00
             3047.5249  0.0018347001629433
             457.36951    0.01403730124668
             103.94869   0.068842606114048
             29.210155    0.23218442062076
              9.286663    0.46794134155879
              3.163927    0.36231203217765
 s    3 1.00
             7.8682724   -0.11933240861517
             1.8812885   -0.16085421161283
             0.5442493     1.1434564825515
 s    1 1.00
             0.1687144                   1
 p    3 1.00
             7.8682724   0.068999095584993
             1.8812885    0.31642397975315
             0.5442493    0.74430825237435
 p    1 1.00
             0.1687144                   1
 d    1 1.00
                   0.8                   1

16 0
 s    6 1.00
             3047.5249  0.0018347001629433
             457.36951    0.01403730124668
             103.94869   0.068842606114048
             29.210155    0.23218442062076
              9.286663    0.46794134155879
              3.163927    0.36231203217765
 s    3 1.00
             7.8682724   -0.11933240861517
             1.8812885   -0.16085421161283
             0.5442493     1.1434564825515
 s    1 1.00
             0.1687144                   1
 p    3 1.00
             7.8682724   0.068999095584993
             1.8812885    0.31642397975315
             0.5442493    0.74430825237435
 p    1 1.00
             0.1687144                   1
 d    1 1.00
                   0.8                   1

17 0
 s    6 1.00
             3047.5249  0.0018347001629433
             457.36951    0.01403730124668
             103.94869   0.068842606114048
             29.210155    0.23218442062076
              9.286663    0.46794134155879
              3.163927    0.36231203217765
 s    3 1.00
             7.8682724   -0.11933240861517
             1.8812885   -0.16085421161283
             0.5442493     1.1434564825515
 s    1 1.00
             0.1687144                   1
 p    3 1.00
             7.8682724   0.068999095584993
             1.8812885    0.31642397975315
             0.5442493    0.74430825237435
 p    1 1.00
             0.1687144                   1
 d    1 1.00
                   0.8                   1

18 0
 s    6 1.00
             3047.5249  0.0018347001629433
             457.36951    0.01403730124668
             103.94869   0.068842606114048
             29.210155    0.23218442062076
              9.286663    0.46794134155879
              3.163927    0.36231203217765
 s    3 1.00
             7.8682724   -0.11933240861517
             1.8812885   -0.16085421161283
             0.5442493     1.1434564825515
 s    1 1.00
             0.1687144                   1
 p    3 1.00
             7.8682724   0.068999095584993
             1.8812885    0.31642397975315
             0.5442493    0.74430825237435
 p    1 1.00
             0.1687144                   1
 d    1 1.00
                   0.8                   1

19 0
 s    6 1.00
             3047.5249  0.0018347001629433
             457.36951    0.01403730124668
             103.94869   0.068842606114048
             29.210155    0.23218442062076
              9.286663    0.46794134155879
              3.163927    0.36231203217765
 s    3 1.00
             7.8682724   -0.11933240861517
             1.8812885   -0.16085421161283
             0.5442493     1.1434564825515
 s    1 1.00
             0.1687144                   1
 p    3 1.00
             7.8682724   0.068999095584993
             1.8812885    0.31642397975315
             0.5442493    0.74430825237435
 p    1 1.00
             0.1687144                   1
 d    1 1.00
                   0.8                   1

20 0
 s    6 1.00
             3047.5249  0.0018347001629433
             457.36951    0.01403730124668
             103.94869   0.068842606114048
             29.210155    0.23218442062076
              9.286663    0.46794134155879
              3.163927    0.36231203217765
 s    3 1.00
             7.8682724   -0.11933240861517
             1.8812885   -0.16085421161283
             0.5442493     1.1434564825515
 s    1 1.00
             0.1687144                   1
 p    3 1.00
             7.8682724   0.068999095584993
             1.8812885    0.31642397975315
             0.5442493    0.74430825237435
 p    1 1.00
             0.1687144                   1
 d    1 1.00
                   0.8                   1

21 0
 s    6 1.00
             3047.5249  0.0018347001629433
             457.36951    0.01403730124668
             103.94869   0.068842606114048
             29.210155    0.23218442062076
              9.286663    0.46794134155879
              3.163927    0.36231203217765
 s    3 1.00
             7.8682724   -0.11933240861517
             1.8812885   -0.16085421161283
             0.5442493     1.1434564825515
 s    1 1.00
             0.1687144                   1
 p    3 1.00
             7.8682724   0.068999095584993
             1.8812885    0.31642397975315
             0.5442493    0.74430825237435
 p    1 1.00
             0.1687144                   1
 d    1 1.00
                   0.8                   1

22 0
 s    3 1.00
             18.731137    0.03349459952309
             2.8253937    0.23472694665786
             0.6401217    0.81375731841339
 s    1 1.00
             0.1612778                   1

23 0
 s    3 1.00
             18.731137    0.03349459952309
             2.8253937    0.23472694665786
             0.6401217    0.81375731841339
 s    1 1.00
             0.1612778                   1

24 0
 s    3 1.00
             18.731137    0.03349459952309
             2.8253937    0.23472694665786
             0.6401217    0.81375731841339
 s    1 1.00
             0.1612778                   1

25 0
 s    3 1.00
             18.731137    0.03349459952309
             2.8253937    0.23472694665786
             0.6401217    0.81375731841339
 s    1 1.00
             0.1612778                   1

26 0
 s    3 1.00
             18.731137    0.03349459952309
             2.8253937    0.23472694665786
             0.6401217    0.81375731841339
 s    1 1.00
             0.1612778                   1

27 0
 s    3 1.00
             18.731137    0.03349459952309
             2.8253937    0.23472694665786
             0.6401217    0.81375731841339
 s    1 1.00
             0.1612778                   1

28 0
 s    3 1.00
             18.731137    0.03349459952309
             2.8253937    0.23472694665786
             0.6401217    0.81375731841339
 s    1 1.00
             0.1612778                   1

29 0
 s    3 1.00
             18.731137    0.03349459952309
             2.8253937    0.23472694665786
             0.6401217    0.81375731841339
 s    1 1.00
             0.1612778                   1

30 0
 s    3 1.00
             18.731137    0.03349459952309
             2.8253937    0.23472694665786
             0.6401217    0.81375731841339
 s    1 1.00
             0.1612778                   1

31 0
 s    3 1.00
             18.731137    0.03349459952309
             2.8253937    0.23472694665786
             0.6401217    0.81375731841339
 s    1 1.00
             0.1612778                   1

32 0
 s    3 1.00
             18.731137    0.03349459952309
             2.8253937    0.23472694665786
             0.6401217    0.81375731841339
 s    1 1.00
             0.1612778                   1

33 0
 s    6 1.00
             3047.5249  0.0018347001629433
             457.36951    0.01403730124668
             103.94869   0.068842606114048
             29.210155    0.23218442062076
              9.286663    0.46794134155879
              3.163927    0.36231203217765
 s    3 1.00
             7.8682724   -0.11933240861517
             1.8812885   -0.16085421161283
             0.5442493     1.1434564825515
 s    1 1.00
             0.1687144                   1
 p    3 1.00
             7.8682724   0.068999095584993
             1.8812885    0.31642397975315
             0.5442493    0.74430825237435
 p    1 1.00
             0.1687144                   1
 d    1 1.00
                   0.8                   1

34 0
 s    6 1.00
             3047.5249  0.0018347001629433
             457.36951    0.01403730124668
             103.94869   0.068842606114048
             29.210155    0.23218442062076
              9.286663    0.46794134155879
              3.163927    0.36231203217765
 s    3 1.00
             7.8682724   -0.11933240861517
             1.8812885   -0.16085421161283
             0.5442493     1.1434564825515
 s    1 1.00
             0.1687144                   1
 p    3 1.00
             7.8682724   0.068999095584993
             1.8812885    0.31642397975315
             0.5442493    0.74430825237435
 p    1 1.00
             0.1687144                   1
 d    1 1.00
                   0.8                   1

35 0
 s    3 1.00
             18.731137    0.03349459952309
             2.8253937    0.23472694665786
             0.6401217    0.81375731841339
 s    1 1.00
             0.1612778                   1

36 0
 s    6 1.00
             3047.5249  0.0018347001629433
             457.36951    0.01403730124668
             103.94869   0.068842606114048
             29.210155    0.23218442062076
              9.286663    0.46794134155879
              3.163927    0.36231203217765
 s    3 1.00
             7.8682724   -0.11933240861517
             1.8812885   -0.16085421161283
             0.5442493     1.1434564825515
 s    1 1.00
             0.1687144                   1
 p    3 1.00
             7.8682724   0.068999095584993
             1.8812885    0.31642397975315
             0.5442493    0.74430825237435
 p    1 1.00
             0.1687144                   1
 d    1 1.00
                   0.8                   1

37 0
 s    3 1.00
             18.731137    0.03349459952309
             2.8253937    0.23472694665786
             0.6401217    0.81375731841339
 s    1 1.00
             0.1612778                   1

38 0
 s    3 1.00
             18.731137    0.03349459952309
             2.8253937    0.23472694665786
             0.6401217    0.81375731841339
 s    1 1.00
             0.1612778                   1

39 0
 s    6 1.00
             3047.5249  0.0018347001629433
             457.36951    0.01403730124668
             103.94869   0.068842606114048
             29.210155    0.23218442062076
              9.286663    0.46794134155879
              3.163927    0.36231203217765
 s    3 1.00
             7.8682724   -0.11933240861517
             1.8812885   -0.16085421161283
             0.5442493     1.1434564825515
 s    1 1.00
             0.1687144                   1
 p    3 1.00
             7.8682724   0.068999095584993
             1.8812885    0.31642397975315
             0.5442493    0.74430825237435
 p    1 1.00
             0.1687144                   1
 d    1 1.00
                   0.8                   1

40 0
 s    6 1.00
             3047.5249  0.0018347001629433
             457.36951    0.01403730124668
             103.94869   0.068842606114048
             29.210155    0.23218442062076
              9.286663    0.46794134155879
              3.163927    0.36231203217765
 s    3 1.00
             7.8682724   -0.11933240861517
             1.8812885   -0.16085421161283
             0.5442493     1.1434564825515
 s    1 1.00
             0.1687144                   1
 p    3 1.00
             7.8682724   0.068999095584993
             1.8812885    0.31642397975315
             0.5442493    0.74430825237435
 p    1 1.00
             0.1687144                   1
 d    1 1.00
                   0.8                   1

41 0
 s    3 1.00
             18.731137    0.03349459952309
             2.8253937    0.23472694665786
             0.6401217    0.81375731841339
 s    1 1.00
             0.1612778                   1

42 0
 s    6 1.00
             5484.6717   0.001831099805527
             825.23495   0.013950098518422
             188.04696    0.06844509273075
               52.9645    0.23271427528445
              16.89757    0.47019295006289
             5.7996353    0.35852086192309
 s    3 1.00
             15.539616   -0.11077750382508
             3.5999336   -0.14802630511126
             1.0137618     1.1307670390447
 s    1 1.00
             0.2700058                   1
 p    3 1.00
             15.539616   0.070874299543311
             3.5999336    0.33975279781076
             1.0137618    0.72715859531445
 p    1 1.00
             0.2700058                   1
 d    1 1.00
                   0.8                   1

43 0
 s    3 1.00
             18.731137    0.03349459952309
             2.8253937    0.23472694665786
             0.6401217    0.81375731841339
 s    1 1.00
             0.1612778                   1

[5d]
[7f]
[9g]

[MO]
 Sym= A
 Ene=               0
 Spin= Alpha
 Occup=    1.00000
   1    -8.6044060086875e-06
   2    -6.5448480514543e-05
   3    0.00089560117879923
   4    -2.5693013121631e-05
   5    2.7628887617231e-05
   6    2.7161501624211e-06
   7    -6.4407817181341e-05
   8    -8.148524881118e-05
   9    -0.00055154027826858
  10    2.4336600091615e-05
  11    1.7306158397097e-05
  12    7.0276284952694e-06
  13    -2.5712278259576e-06
  14    3.4894566665704e-06
  15    -1.524583075667e-05
  16    -3.0850425280785e-05
  17    1.3021964504908e-05
  18    2.611284092469e-05
  19    -0.0017235402962925
  20    -3.8669225572022e-05
  21    -1.1984308802009e-05
  22    6.8787262376921e-05
  23    -0.0010900828128444
  24    3.0821134480992e-05
  25    -6.8648535383757e-05
  26    -3.6872605905342e-05
  27    2.9118653710209e-05
  28    -1.5235109932382e-05
  29    -2.9592657858394e-05
  30    -2.7850487391154e-05
  31    -3.2229012151649e-05
  32    -0.00022063222848142
  33    -6.131209573493e-05
  34    -0.0003806808781203
  35    0.0051108897877954
  36    0.00011137212968379
  37    1.0997542428769e-05
  38    -9.0699333469716e-05
  39    0.0021288484002728
  40    -0.0012623531285772
  41    0.00076949559659827
  42    -2.5397405753053e-05
  43    -7.999493823993e-05
  44    -2.7995017883712e-05
  45    0.00011475172919235
  46    -7.4761600806707e-05
  47    3.4910473529704e-05
  48    0.00040913906286101
  49    -4.5243410514054e-05
  50    -0.00019306462023338
  51    -0.0041399245508541
  52    -0.00039481530520606
  53    0.00010174075194044
  54    0.00012100866144017
  55    0.0040283662399354
  56    -0.001373936373117
  57    -0.00060677050052933
  58    0.0001652555685642
  59    -8.9608643347659e-06
  60    -0.00014599846511508
  61    -0.00010259066340362
  62    7.1998989866994e-05
  63    -0.0003163598430775
  64    -0.00017050186965478
  65    -1.6793901807785e-07
  66    8.5419287303696e-07
  67    -3.5181286695267e-08
  68    -1.9688082944662e-07
  69    -1.6865504087865e-06
  70    3.2851019802297e-07
  71    -4.3340464318683e-07
  72    -1.3591327918564e-07
  73    1.4590231078362e-06
  74    6.8752608342836e-07
  75    -1.8193685116515e-07
  76    2.2329538519169e-07
  77    1.7593110068049e-07
  78    4.2547098716842e-08
  79    8.1563486474674e-08
  80    1.8560947549175e-07
  81    1.1638985745982e-07
  82    1.0099502131477e-06
  83    1.6789212940634e-07
  84    1.8154404049499e-06
  85    1.1404268047085e-05
  86    -6.2836601106133e-07
  87    6.2287312864709e-07
  88    -5.3896609740981e-07
  89    2.3612935189102e-08
  90    -4.5488089890926e-06
  91    -5.6670806009088e-06
  92    -1.6730745184308e-07
  93    -2.1449247330051e-08
  94    2.4139083820283e-07
  95    -3.4596974320681e-07
  96    1.6204593217426e-07
  97    3.957435899983e-07
  98    1.0369253305419e-06
  99    -7.4964560173256e-07
 100    -1.3724131926007e-06
 101    -4.7124791198131e-07
 102    -2.3818515221283e-06
 103    5.1805206221104e-05
 104    -1.629560106617e-06
 105    5.0624758849609e-07
 106    -4.9630587333496e-08
 107    -4.087854062457e-06
 108    5.3834101052959e-06
 109    -4.6537039884675e-05
 110    6.6093749680376e-07
 111    1.3470967048215e-06
 112    -5.5930655555996e-07
 113    8.2387529310935e-08
 114    -4.1679274683197e-07
 115    4.2732929248443e-07
 116    3.6352549068337e-06
 117    -2.9404998897382e-05
 118    4.4705235803697e-07
 119    5.0874506050041e-07
 120    -1.4467544086737e-06
 121    1.2633081694257e-05
 122    -1.2775102517149e-05
 123    -5.1537673973092e-07
 124    5.6746899884789e-07
 125    1.8612118715209e-07
 126    -7.4390810163308e-07
 127    -5.5682944022356e-07
 128    3.8503608274603e-07
 129    1.1701060058801e-06
 130    7.5231502597882e-06
 131    -5.9947675975569e-05
 132    2.6767947910895e-06
 133    -1.425447571294e-06
 134    -2.8587226307707e-06
 135    -5.2442452982484e-05
 136    1.7694636618404e-05
 137    8.9569727550551e-05
 138    -2.7221859046523e-06
 139    -1.2586233803572e-06
 140    1.5318862369933e-06
 141    -3.7597887120258e-07
 142    1.7040363386491e-06
 143    7.5644608277078e-07
 144    5.5943674557113e-06
 145    -6.1921583100962e-05
 146    4.476059950071e-07
 147    1.9517041584244e-07
 148    2.6823031286877e-06
 149    -3.1187552069311e-05
 150    2.1763747764679e-05
 151    -5.8942246377002e-06
 152    1.732357716514e-07
 153    3.7502897665708e-07
 154    -9.8939240992316e-07
 155    -7.8407688331651e-07
 156    6.0767688133655e-07
 157    2.9913577902648e-07
 158    2.8333790848055e-06
 159    -1.558000355233e-05
 160    2.2760603813142e-07
 161    7.8948557072282e-08
 162    -2.430397569382e-07
 163    9.5434694486523e-07
 164    6.0453636938081e-06
 165    1.8222308369301e-06
 166    -2.0462455800268e-08
 167    3.2816866988622e-07
 168    -6.8686938723525e-08
 169    5.1432856658213e-07
 170    -1.5132984374059e-07
 171    -1.3839839271979e-08
 172    -2.0922707001158e-07
 173    -1.3273465134702e-07
 174    -3.6974092652429e-07
 175    9.9473302058891e-08
 176    8.8296097492135e-07
 177    8.8914367719333e-06
 178    -2.154338556642e-06
 179    1.7943216326874e-06
 180    -1.2594454013975e-07
 181    7.9454329091203e-07
 182    -2.2118340884682e-07
 183    8.1929093792433e-07
 184    5.1518307125321e-07
 185    -2.3304929589122e-07
 186    -1.2150138356193e-06
 187    2.1899822719495e-05
 188    -6.4134423211211e-07
 189    -2.7184543840481e-07
 190    -1.5750549115651e-06
 191    -3.0473756846298e-06
 192    -4.6712081353796e-06
 193    -7.5597412049423e-06
 194    4.5480976158918e-07
 195    6.1438317525155e-07
 196    4.3839937924421e-07
 197    -4.8319732333951e-07
 198    3.9741935737028e-07
 199    -7.5377062154482e-07
 200    9.5793785648112e-07
 201    -3.5063138675196e-07
 202    -2.2288906166515e-06
 203    -2.9273476089129e-08
 204    -4.0169655546921e-06
 205    1.9204240449965e-06
 206    5.2490065333173e-07
 207    2.1538051768922e-06
 208    1.4807037599591e-06
 209    5.3352961668705e-07
 210    4.7732966396958e-06
 211     4.12307251271e-07
 212    -1.4807516694753e-07
 213    6.0201802667237e-07
 214    -1.2086865514884e-06
 215    -1.8221065155618e-06
 216    9.3298753207691e-06
 217    6.7679102427115e-07
 218    1.7923994008822e-06
 219    -1.9188223151003e-07
 220    -3.0077447832013e-06
 221    -2.4914091998787e-06
 222    -1.4756666187259e-05
 223    0.00026488602139141
 224    5.1667861140025e-07
 225    4.2992272831486e-06
 226    -5.9593437798566e-06
 227    8.2541199257907e-05
 228    1.3393844350065e-05
 229    -5.3266398068404e-05
 230    5.2894727207948e-06
 231    -1.6350382459606e-06
 232    -3.5914313221835e-06
 233    1.0638068566141e-06
 234    6.6028381901351e-07
 235    2.8966788275562e-06
 236    1.6411197340054e-05
 237    -0.0003643383855785
 238    -4.2652044383474e-06
 239    -6.6566308216346e-06
 240    1.0702498015883e-05
 241    0.00015576025616854
 242    4.565356423301e-05
 243    -2.6716467938153e-05
 244    -5.9252175826126e-06
 245    1.4051092922568e-06
 246    5.0442279040347e-06
 247    -1.7656580045018e-06
 248    5.2076750135479e-07
 249    2.0340953195127e-06
 250    -6.782576728579e-06
 251    1.2133142271233e-06
 252    1.0970279583657e-05
 253    9.9200120405579e-05
 254    -5.9582337641828e-06
 255    -1.1080131063192e-06
 256    -1.7251000488294e-05
 257    9.4225695480718e-05
 258    2.7228561664378e-05
 259    0.00028243682330075
 260    -1.0088473622115e-06
 261    8.6275592903802e-06
 262    -2.5605024851592e-06
 263    -6.2667761265211e-06
 264    5.4495165367982e-06
 265    -1.0985724821506e-05
 266    -1.216268501973e-05
 267    1.7401403240512e-05
 268    3.7763854340525e-05
 269    1.2692235523901e-05
 270    5.9808598935113e-05
 271    -0.0033204666330695
 272    -0.00010459279788778
 273    0.00012239044524653
 274    -0.00012635398404927
 275    -0.0027080785524434
 276    -0.0008346715393574
 277    0.0031986483406895
 278    4.755455933768e-05
 279    0.00033894722812058
 280    -0.00013536111365128