[Molden Format]
made by pyscf v[2.0.1]
[Atoms] (AU)
C   1   6     0.69100024066471     0.64692934207205    -3.48223131169301
H   2   1     2.68052439830868     1.13355088658700    -3.25784032593313
C   3   6    -0.36286361513219     0.85440132524594    -5.97030179418974
H   4   1    -2.35448549047279     0.36322488579172    -6.17995817793143
C   5   6     0.93697958957450     1.61209284601821    -8.05828437677121
H   6   1     0.85962833397368     3.59050820045091    -8.62470494839578
C   7   6     2.42635389771936    -0.06497183323565    -9.58324401854610
H   8   1     2.48676726707897    -2.04132781761705    -8.99156043119802
H   9   1     1.55630230933075    -1.92953025305990    12.99630010416247
C   10   6     0.75233899775814    -2.21270439606481    11.10705728102219
H   11   1    -0.43433408177274    -3.90944857546550    11.22216085340412
C   12   6     2.86362581178706    -2.63237380607947     9.17926416456045
H   13   1     4.39038949912609    -1.24955421540245     9.49899813497433
H   14   1     3.74629220191363    -4.48798724300892     9.47414880959024
C   15   6     2.02478325613682    -2.42177285709634     6.44560829588644
C   16   6     3.88048732735477    -3.58795445234514     4.61402886975252
C   17   6    -0.18412382258602    -1.30464291234259     5.76021113872346
C   18   6    -2.10044360464350    -0.26837831858460     7.71610340967100
C   19   6    -3.08956938670431     2.35282328359417     6.88693925039594
C   20   6    -4.37372924086464    -2.09766595989678     7.93610724222001
C   21   6    -0.83850430601230     0.06372213486173    10.33002307638377
H   22   1     0.38411922151109     1.74281358582432    10.27380136542181
H   23   1    -2.30980003007874     0.45460143924521    11.73986301809809
H   24   1     4.58527064644668    -5.38706904487420     5.36778158031719
H   25   1     5.54944938085014    -2.37631462192748     4.35398898413318
H   26   1     3.06633019150423    -3.94118377050688     2.75255466040884
H   27   1    -4.17727778763735     2.26573369139522     5.12914900961283
H   28   1    -1.52662344944051     3.68001877445626     6.59540397144508
H   29   1    -4.32916174397830     3.13643051467482     8.35225460090378
H   30   1    -5.32329548508442    -2.36691813602939     6.11583672749896
H   31   1    -5.77989366602257    -1.33896741843465     9.25748940450990
H   32   1    -3.79310905208926    -3.96389819310853     8.61386170102686
C   33   6    -1.01100794811226    -1.06331657314144     3.11929490449947
C   34   6     0.37686231036534    -0.33275864505552     1.09165013605873
H   35   1    -3.01671213906703    -1.40297922279997     2.77827895090944
C   36   6    -0.64382707979370    -0.11591880174385    -1.42063131251064
H   37   1     2.35569259782137     0.17174499283897     1.33641070251401
H   38   1    -2.63317482980319    -0.60229203511219    -1.66119700387645
C   39   6     3.74832505967432     0.60333842975764   -11.67668310140841
C   40   6     5.21001738076888    -1.24955999097241   -13.10400422335708
H   41   1     3.76814643119893     2.53960520723023   -12.36823673003836
O   42   8     6.43815552067501    -0.78092818090474   -14.99949494178040
H   43   1     5.13629360998863    -3.20740752771493   -12.32839043702936
[GTO]
1 0
 s    6 1.00
             3047.5249  0.0018347001629433
             457.36951    0.01403730124668
             103.94869   0.068842606114048
             29.210155    0.23218442062076
              9.286663    0.46794134155879
              3.163927    0.36231203217765
 s    3 1.00
             7.8682724   -0.11933240861517
             1.8812885   -0.16085421161283
             0.5442493     1.1434564825515
 s    1 1.00
             0.1687144                   1
 p    3 1.00
             7.8682724   0.068999095584993
             1.8812885    0.31642397975315
             0.5442493    0.74430825237435
 p    1 1.00
             0.1687144                   1
 d    1 1.00
                   0.8                   1

2 0
 s    3 1.00
             18.731137    0.03349459952309
             2.8253937    0.23472694665786
             0.6401217    0.81375731841339
 s    1 1.00
             0.1612778                   1

3 0
 s    6 1.00
             3047.5249  0.0018347001629433
             457.36951    0.01403730124668
             103.94869   0.068842606114048
             29.210155    0.23218442062076
              9.286663    0.46794134155879
              3.163927    0.36231203217765
 s    3 1.00
             7.8682724   -0.11933240861517
             1.8812885   -0.16085421161283
             0.5442493     1.1434564825515
 s    1 1.00
             0.1687144                   1
 p    3 1.00
             7.8682724   0.068999095584993
             1.8812885    0.31642397975315
             0.5442493    0.74430825237435
 p    1 1.00
             0.1687144                   1
 d    1 1.00
                   0.8                   1

4 0
 s    3 1.00
             18.731137    0.03349459952309
             2.8253937    0.23472694665786
             0.6401217    0.81375731841339
 s    1 1.00
             0.1612778                   1

5 0
 s    6 1.00
             3047.5249  0.0018347001629433
             457.36951    0.01403730124668
             103.94869   0.068842606114048
             29.210155    0.23218442062076
              9.286663    0.46794134155879
              3.163927    0.36231203217765
 s    3 1.00
             7.8682724   -0.11933240861517
             1.8812885   -0.16085421161283
             0.5442493     1.1434564825515
 s    1 1.00
             0.1687144                   1
 p    3 1.00
             7.8682724   0.068999095584993
             1.8812885    0.31642397975315
             0.5442493    0.74430825237435
 p    1 1.00
             0.1687144                   1
 d    1 1.00
                   0.8                   1

6 0
 s    3 1.00
             18.731137    0.03349459952309
             2.8253937    0.23472694665786
             0.6401217    0.81375731841339
 s    1 1.00
             0.1612778                   1

7 0
 s    6 1.00
             3047.5249  0.0018347001629433
             457.36951    0.01403730124668
             103.94869   0.068842606114048
             29.210155    0.23218442062076
              9.286663    0.46794134155879
              3.163927    0.36231203217765
 s    3 1.00
             7.8682724   -0.11933240861517
             1.8812885   -0.16085421161283
             0.5442493     1.1434564825515
 s    1 1.00
             0.1687144                   1
 p    3 1.00
             7.8682724   0.068999095584993
             1.8812885    0.31642397975315
             0.5442493    0.74430825237435
 p    1 1.00
             0.1687144                   1
 d    1 1.00
                   0.8                   1

8 0
 s    3 1.00
             18.731137    0.03349459952309
             2.8253937    0.23472694665786
             0.6401217    0.81375731841339
 s    1 1.00
             0.1612778                   1

9 0
 s    3 1.00
             18.731137    0.03349459952309
             2.8253937    0.23472694665786
             0.6401217    0.81375731841339
 s    1 1.00
             0.1612778                   1

10 0
 s    6 1.00
             3047.5249  0.0018347001629433
             457.36951    0.01403730124668
             103.94869   0.068842606114048
             29.210155    0.23218442062076
              9.286663    0.46794134155879
              3.163927    0.36231203217765
 s    3 1.00
             7.8682724   -0.11933240861517
             1.8812885   -0.16085421161283
             0.5442493     1.1434564825515
 s    1 1.00
             0.1687144                   1
 p    3 1.00
             7.8682724   0.068999095584993
             1.8812885    0.31642397975315
             0.5442493    0.74430825237435
 p    1 1.00
             0.1687144                   1
 d    1 1.00
                   0.8                   1

11 0
 s    3 1.00
             18.731137    0.03349459952309
             2.8253937    0.23472694665786
             0.6401217    0.81375731841339
 s    1 1.00
             0.1612778                   1

12 0
 s    6 1.00
             3047.5249  0.0018347001629433
             457.36951    0.01403730124668
             103.94869   0.068842606114048
             29.210155    0.23218442062076
              9.286663    0.46794134155879
              3.163927    0.36231203217765
 s    3 1.00
             7.8682724   -0.11933240861517
             1.8812885   -0.16085421161283
             0.5442493     1.1434564825515
 s    1 1.00
             0.1687144                   1
 p    3 1.00
             7.8682724   0.068999095584993
             1.8812885    0.31642397975315
             0.5442493    0.74430825237435
 p    1 1.00
             0.1687144                   1
 d    1 1.00
                   0.8                   1

13 0
 s    3 1.00
             18.731137    0.03349459952309
             2.8253937    0.23472694665786
             0.6401217    0.81375731841339
 s    1 1.00
             0.1612778                   1

14 0
 s    3 1.00
             18.731137    0.03349459952309
             2.8253937    0.23472694665786
             0.6401217    0.81375731841339
 s    1 1.00
             0.1612778                   1

15 0
 s    6 1.00
             3047.5249  0.0018347001629433
             457.36951    0.01403730124668
             103.94869   0.068842606114048
             29.210155    0.23218442062076
              9.286663    0.46794134155879
              3.163927    0.36231203217765
 s    3 1.00
             7.8682724   -0.11933240861517
             1.8812885   -0.16085421161283
             0.5442493     1.1434564825515
 s    1 1.00
             0.1687144                   1
 p    3 1.00
             7.8682724   0.068999095584993
             1.8812885    0.31642397975315
             0.5442493    0.74430825237435
 p    1 1.00
             0.1687144                   1
 d    1 1.00
                   0.8                   1

16 0
 s    6 1.00
             3047.5249  0.0018347001629433
             457.36951    0.01403730124668
             103.94869   0.068842606114048
             29.210155    0.23218442062076
              9.286663    0.46794134155879
              3.163927    0.36231203217765
 s    3 1.00
             7.8682724   -0.11933240861517
             1.8812885   -0.16085421161283
             0.5442493     1.1434564825515
 s    1 1.00
             0.1687144                   1
 p    3 1.00
             7.8682724   0.068999095584993
             1.8812885    0.31642397975315
             0.5442493    0.74430825237435
 p    1 1.00
             0.1687144                   1
 d    1 1.00
                   0.8                   1

17 0
 s    6 1.00
             3047.5249  0.0018347001629433
             457.36951    0.01403730124668
             103.94869   0.068842606114048
             29.210155    0.23218442062076
              9.286663    0.46794134155879
              3.163927    0.36231203217765
 s    3 1.00
             7.8682724   -0.11933240861517
             1.8812885   -0.16085421161283
             0.5442493     1.1434564825515
 s    1 1.00
             0.1687144                   1
 p    3 1.00
             7.8682724   0.068999095584993
             1.8812885    0.31642397975315
             0.5442493    0.74430825237435
 p    1 1.00
             0.1687144                   1
 d    1 1.00
                   0.8                   1

18 0
 s    6 1.00
             3047.5249  0.0018347001629433
             457.36951    0.01403730124668
             103.94869   0.068842606114048
             29.210155    0.23218442062076
              9.286663    0.46794134155879
              3.163927    0.36231203217765
 s    3 1.00
             7.8682724   -0.11933240861517
             1.8812885   -0.16085421161283
             0.5442493     1.1434564825515
 s    1 1.00
             0.1687144                   1
 p    3 1.00
             7.8682724   0.068999095584993
             1.8812885    0.31642397975315
             0.5442493    0.74430825237435
 p    1 1.00
             0.1687144                   1
 d    1 1.00
                   0.8                   1

19 0
 s    6 1.00
             3047.5249  0.0018347001629433
             457.36951    0.01403730124668
             103.94869   0.068842606114048
             29.210155    0.23218442062076
              9.286663    0.46794134155879
              3.163927    0.36231203217765
 s    3 1.00
             7.8682724   -0.11933240861517
             1.8812885   -0.16085421161283
             0.5442493     1.1434564825515
 s    1 1.00
             0.1687144                   1
 p    3 1.00
             7.8682724   0.068999095584993
             1.8812885    0.31642397975315
             0.5442493    0.74430825237435
 p    1 1.00
             0.1687144                   1
 d    1 1.00
                   0.8                   1

20 0
 s    6 1.00
             3047.5249  0.0018347001629433
             457.36951    0.01403730124668
             103.94869   0.068842606114048
             29.210155    0.23218442062076
              9.286663    0.46794134155879
              3.163927    0.36231203217765
 s    3 1.00
             7.8682724   -0.11933240861517
             1.8812885   -0.16085421161283
             0.5442493     1.1434564825515
 s    1 1.00
             0.1687144                   1
 p    3 1.00
             7.8682724   0.068999095584993
             1.8812885    0.31642397975315
             0.5442493    0.74430825237435
 p    1 1.00
             0.1687144                   1
 d    1 1.00
                   0.8                   1

21 0
 s    6 1.00
             3047.5249  0.0018347001629433
             457.36951    0.01403730124668
             103.94869   0.068842606114048
             29.210155    0.23218442062076
              9.286663    0.46794134155879
              3.163927    0.36231203217765
 s    3 1.00
             7.8682724   -0.11933240861517
             1.8812885   -0.16085421161283
             0.5442493     1.1434564825515
 s    1 1.00
             0.1687144                   1
 p    3 1.00
             7.8682724   0.068999095584993
             1.8812885    0.31642397975315
             0.5442493    0.74430825237435
 p    1 1.00
             0.1687144                   1
 d    1 1.00
                   0.8                   1

22 0
 s    3 1.00
             18.731137    0.03349459952309
             2.8253937    0.23472694665786
             0.6401217    0.81375731841339
 s    1 1.00
             0.1612778                   1

23 0
 s    3 1.00
             18.731137    0.03349459952309
             2.8253937    0.23472694665786
             0.6401217    0.81375731841339
 s    1 1.00
             0.1612778                   1

24 0
 s    3 1.00
             18.731137    0.03349459952309
             2.8253937    0.23472694665786
             0.6401217    0.81375731841339
 s    1 1.00
             0.1612778                   1

25 0
 s    3 1.00
             18.731137    0.03349459952309
             2.8253937    0.23472694665786
             0.6401217    0.81375731841339
 s    1 1.00
             0.1612778                   1

26 0
 s    3 1.00
             18.731137    0.03349459952309
             2.8253937    0.23472694665786
             0.6401217    0.81375731841339
 s    1 1.00
             0.1612778                   1

27 0
 s    3 1.00
             18.731137    0.03349459952309
             2.8253937    0.23472694665786
             0.6401217    0.81375731841339
 s    1 1.00
             0.1612778                   1

28 0
 s    3 1.00
             18.731137    0.03349459952309
             2.8253937    0.23472694665786
             0.6401217    0.81375731841339
 s    1 1.00
             0.1612778                   1

29 0
 s    3 1.00
             18.731137    0.03349459952309
             2.8253937    0.23472694665786
             0.6401217    0.81375731841339
 s    1 1.00
             0.1612778                   1

30 0
 s    3 1.00
             18.731137    0.03349459952309
             2.8253937    0.23472694665786
             0.6401217    0.81375731841339
 s    1 1.00
             0.1612778                   1

31 0
 s    3 1.00
             18.731137    0.03349459952309
             2.8253937    0.23472694665786
             0.6401217    0.81375731841339
 s    1 1.00
             0.1612778                   1

32 0
 s    3 1.00
             18.731137    0.03349459952309
             2.8253937    0.23472694665786
             0.6401217    0.81375731841339
 s    1 1.00
             0.1612778                   1

33 0
 s    6 1.00
             3047.5249  0.0018347001629433
             457.36951    0.01403730124668
             103.94869   0.068842606114048
             29.210155    0.23218442062076
              9.286663    0.46794134155879
              3.163927    0.36231203217765
 s    3 1.00
             7.8682724   -0.11933240861517
             1.8812885   -0.16085421161283
             0.5442493     1.1434564825515
 s    1 1.00
             0.1687144                   1
 p    3 1.00
             7.8682724   0.068999095584993
             1.8812885    0.31642397975315
             0.5442493    0.74430825237435
 p    1 1.00
             0.1687144                   1
 d    1 1.00
                   0.8                   1

34 0
 s    6 1.00
             3047.5249  0.0018347001629433
             457.36951    0.01403730124668
             103.94869   0.068842606114048
             29.210155    0.23218442062076
              9.286663    0.46794134155879
              3.163927    0.36231203217765
 s    3 1.00
             7.8682724   -0.11933240861517
             1.8812885   -0.16085421161283
             0.5442493     1.1434564825515
 s    1 1.00
             0.1687144                   1
 p    3 1.00
             7.8682724   0.068999095584993
             1.8812885    0.31642397975315
             0.5442493    0.74430825237435
 p    1 1.00
             0.1687144                   1
 d    1 1.00
                   0.8                   1

35 0
 s    3 1.00
             18.731137    0.03349459952309
             2.8253937    0.23472694665786
             0.6401217    0.81375731841339
 s    1 1.00
             0.1612778                   1

36 0
 s    6 1.00
             3047.5249  0.0018347001629433
             457.36951    0.01403730124668
             103.94869   0.068842606114048
             29.210155    0.23218442062076
              9.286663    0.46794134155879
              3.163927    0.36231203217765
 s    3 1.00
             7.8682724   -0.11933240861517
             1.8812885   -0.16085421161283
             0.5442493     1.1434564825515
 s    1 1.00
             0.1687144                   1
 p    3 1.00
             7.8682724   0.068999095584993
             1.8812885    0.31642397975315
             0.5442493    0.74430825237435
 p    1 1.00
             0.1687144                   1
 d    1 1.00
                   0.8                   1

37 0
 s    3 1.00
             18.731137    0.03349459952309
             2.8253937    0.23472694665786
             0.6401217    0.81375731841339
 s    1 1.00
             0.1612778                   1

38 0
 s    3 1.00
             18.731137    0.03349459952309
             2.8253937    0.23472694665786
             0.6401217    0.81375731841339
 s    1 1.00
             0.1612778                   1

39 0
 s    6 1.00
             3047.5249  0.0018347001629433
             457.36951    0.01403730124668
             103.94869   0.068842606114048
             29.210155    0.23218442062076
              9.286663    0.46794134155879
              3.163927    0.36231203217765
 s    3 1.00
             7.8682724   -0.11933240861517
             1.8812885   -0.16085421161283
             0.5442493     1.1434564825515
 s    1 1.00
             0.1687144                   1
 p    3 1.00
             7.8682724   0.068999095584993
             1.8812885    0.31642397975315
             0.5442493    0.74430825237435
 p    1 1.00
             0.1687144                   1
 d    1 1.00
                   0.8                   1

40 0
 s    6 1.00
             3047.5249  0.0018347001629433
             457.36951    0.01403730124668
             103.94869   0.068842606114048
             29.210155    0.23218442062076
              9.286663    0.46794134155879
              3.163927    0.36231203217765
 s    3 1.00
             7.8682724   -0.11933240861517
             1.8812885   -0.16085421161283
             0.5442493     1.1434564825515
 s    1 1.00
             0.1687144                   1
 p    3 1.00
             7.8682724   0.068999095584993
             1.8812885    0.31642397975315
             0.5442493    0.74430825237435
 p    1 1.00
             0.1687144                   1
 d    1 1.00
                   0.8                   1

41 0
 s    3 1.00
             18.731137    0.03349459952309
             2.8253937    0.23472694665786
             0.6401217    0.81375731841339
 s    1 1.00
             0.1612778                   1

42 0
 s    6 1.00
             5484.6717   0.001831099805527
             825.23495   0.013950098518422
             188.04696    0.06844509273075
               52.9645    0.23271427528445
              16.89757    0.47019295006289
             5.7996353    0.35852086192309
 s    3 1.00
             15.539616   -0.11077750382508
             3.5999336   -0.14802630511126
             1.0137618     1.1307670390447
 s    1 1.00
             0.2700058                   1
 p    3 1.00
             15.539616   0.070874299543311
             3.5999336    0.33975279781076
             1.0137618    0.72715859531445
 p    1 1.00
             0.2700058                   1
 d    1 1.00
                   0.8                   1

43 0
 s    3 1.00
             18.731137    0.03349459952309
             2.8253937    0.23472694665786
             0.6401217    0.81375731841339
 s    1 1.00
             0.1612778                   1

[5d]
[7f]
[9g]

[MO]
 Sym= A
 Ene=               0
 Spin= Alpha
 Occup=    1.00000
   1    -1.0930161161949e-08
   2    1.160656643994e-05
   3    6.0764315464199e-05
   4    4.3428868855865e-06
   5    9.3366270144913e-06
   6    -1.4756091157963e-05
   7    -5.1721819048833e-05
   8    -0.00013893061980412
   9    0.00038206117338175
  10    4.2505344854999e-07
  11    -1.0765919600313e-05
  12    -7.4857885390348e-07
  13    -1.4810176730306e-05
  14    8.3213181271941e-06
  15    1.3717250359814e-05
  16    -1.1512735114486e-05
  17    -8.4146196100938e-06
  18    -0.00016822602759189
  19    -0.00048046022980709
  20    -5.9484293916729e-05
  21    5.3020620764156e-06
  22    7.2912726414887e-05
  23    -0.00022265851005162
  24    0.00012073122442397
  25    0.0005949866637573
  26    -2.3133961617416e-05
  27    2.5900984265124e-05
  28    -1.5333255601446e-05
  29    -4.3871518579043e-05
  30    -4.0086257295419e-06
  31    1.1372419252995e-05
  32    -4.2103443325362e-05
  33    -5.7785255206655e-05
  34    -0.0003826755875376
  35    0.0046430108165709
  36    9.5643179959566e-05
  37    -1.6411878087881e-05
  38    -0.00014093153242898
  39    0.00075151615980937
  40    -0.0020068225965289
  41    -0.00039409975990366
  42    1.2219711360564e-05
  43    -0.00011797639985253
  44    5.6784817644097e-05
  45    -1.6837557387475e-05
  46    -7.3476306549386e-05
  47     1.71605212091e-05
  48    0.00029751713554062
  49    -4.768325336865e-05
  50    -0.0002049687001146
  51    -0.0038021729309781
  52    -0.00024497295022682
  53    0.0002259345645655
  54    0.0002675164956702
  55    0.0021647130569812
  56    -0.0026707455418669
  57    -0.0021361595137588
  58    4.3700605015919e-05
  59    -2.7419476953371e-05
  60    -0.00019908556909223
  61    -4.0117411689864e-05
  62    0.00012475767383866
  63    -0.00032444769243232
  64    -8.5536220738958e-05
  65    2.1013879632055e-07
  66    3.1182155636217e-07
  67    4.2373470750753e-08
  68    6.0736795625393e-07
  69    -2.9301922632026e-06
  70    -2.21807301927e-07
  71    3.4233068381814e-07
  72    -1.6768048538065e-07
  73    -2.6631571923807e-07
  74    -1.7816294510008e-06
  75    1.8058870926519e-09
  76    6.5423977902392e-08
  77    1.316734215623e-07
  78    -4.6354861000409e-08
  79    -6.8888386559389e-08
  80    1.1768278015523e-07
  81    -1.0511903370688e-07
  82    -2.1947139406995e-07
  83    -1.4673345457561e-08
  84    3.0206345122877e-07
  85    1.5293866759855e-05
  86    -7.4999032108418e-07
  87    -2.2479726021555e-08
  88    -9.8200541061897e-07
  89    -3.5409436022532e-06
  90    4.9220734056505e-06
  91    -3.9327071412413e-06
  92    -1.9110289740733e-07
  93    2.9571356244113e-07
  94    -3.836313081213e-07
  95    -6.651602241253e-08
  96    1.7951974858871e-07
  97    -7.2887017417899e-07
  98    -8.7800179193347e-07
  99    -1.4507950457849e-08
 100    1.1064558215904e-06
 101    4.0371608221555e-08
 102    7.1992375143456e-07
 103    -1.1749898524506e-05
 104    -2.8855679774899e-07
 105    1.0999609330639e-06
 106    7.1377030013573e-07
 107    2.0545698317104e-05
 108    -1.9214224223489e-05
 109    -3.5826458549889e-05
 110    6.5741636028656e-07
 111    6.3525719448009e-07
 112    -2.6693235243116e-07
 113    -2.9217020794616e-07
 114    5.4193670160565e-07
 115    5.2591982335746e-07
 116    4.7845145840802e-06
 117    -3.9856025163347e-05
 118    7.3508949155013e-07
 119    -1.0296905607077e-06
 120    -9.4357972689786e-07
 121    9.7167057043243e-06
 122    -2.0085120720702e-06
 123    -3.5596591718171e-06
 124    1.1417311377839e-07
 125    2.9805633235725e-07
 126    9.465833732295e-08
 127    -1.7093400714567e-07
 128    4.2558878099498e-07
 129    1.0809274489209e-06
 130    9.4621405544585e-06
 131    -5.9352289743751e-05
 132    -1.0036826239097e-07
 133    7.7843760679387e-08
 134    -3.6381911125854e-06
 135    2.4060586663664e-05
 136    1.4465485615485e-06
 137    9.2672101161391e-05
 138    -2.7659006991554e-06
 139    -1.8099662373146e-06
 140    -2.0903308287739e-07
 141    -4.7148412677048e-07
 142    -3.8165542484675e-09
 143    5.1087985322084e-07
 144    4.7980142980917e-06
 145    -2.5409593602462e-05
 146    -1.7272970112828e-07
 147    -4.4622740622798e-07
 148    -4.3999726217925e-07
 149    -1.4738913179589e-05
 150    6.7683234570668e-06
 151    4.081449786238e-06
 152    1.0523495979817e-06
 153    4.479530100637e-07
 154    1.1734546694963e-07
 155    -7.9686150341234e-07
 156    8.7472116132065e-07
 157    -1.1639984320507e-07
 158    -9.0251951827903e-07
 159    -1.3167642269575e-07
 160    -7.3171207367031e-07
 161    5.8026793878059e-08
 162    1.3612243626525e-07
 163    7.1262761486708e-06
 164    -4.3136966209257e-07
 165    -9.0069980020698e-07
 166    -5.3297453469564e-07
 167    2.4347652937237e-07
 168    -2.8428085228399e-08
 169    1.2544120398478e-07
 170    -3.5134883947043e-07
 171    -2.5525109323409e-08
 172    4.7055941240045e-07
 173    1.2591472662888e-06
 174    6.5687999456283e-07
 175    1.8762737423409e-07
 176    -7.9164431749232e-07
 177    5.2902971337019e-07
 178    -2.0216220033833e-06
 179    1.7392048971101e-06
 180    -1.442357124818e-07
 181    -2.194128940569e-07
 182    -6.5544858136551e-08
 183    4.270731143416e-07
 184    -1.8765967969511e-07
 185    3.1475878411225e-07
 186    3.2054466843975e-06
 187    -1.4631634375392e-06
 188    2.1351375069255e-07
 189    -1.4712425141589e-07
 190    -1.2858795529982e-06
 191    -2.3284922890276e-06
 192    -7.8163417249603e-07
 193    5.5660330865711e-06
 194    -2.8971443789611e-07
 195    5.1863295993173e-08
 196    -2.2201165026088e-07
 197    -1.1911534329167e-07
 198    1.0910828346488e-07
 199    7.4396436942975e-07
 200    1.2017685646738e-06
 201    -3.9589382493414e-08
 202    -3.5629713877265e-06
 203    1.7532441610232e-06
 204    1.6866031943128e-06
 205    3.5409695727086e-07
 206    2.5671443426902e-06
 207    -9.7738319622387e-07
 208    1.1209831333186e-05
 209    -1.2250291060014e-06
 210    4.7948823676007e-06
 211    -5.785375902362e-07
 212    -3.098168011286e-06
 213    2.6532961638453e-07
 214    2.2955510653682e-06
 215    4.6660360610036e-07
 216    -5.5595159427055e-07
 217    -2.541034632847e-07
 218    -7.4384541073628e-07
 219    -3.1956856046852e-07
 220    -1.2580920181541e-06
 221    6.7151754749223e-07
 222     8.33690781641e-06
 223    1.6935776257789e-05
 224    -4.9993714875662e-07
 225    1.1858970462363e-06
 226    -4.3934748671029e-06
 227    -8.1888193295484e-06
 228    -2.9717710648439e-05
 229    0.00010428619121967
 230    1.3050035328951e-06
 231    4.5105249221528e-06
 232    1.9620201939362e-06
 233    -1.9854277086066e-06
 234    -2.9454058989678e-06
 235    9.5036718330105e-07
 236    1.0157545542859e-05
 237    -2.7100126671415e-05
 238    6.4214207618205e-07
 239    -3.67211982303e-06
 240    -3.2493383457102e-06
 241    2.6403195376494e-05
 242    7.9635905046851e-06
 243    8.9468653320429e-05
 244    -1.3775995629841e-06
 245    -7.1617649281144e-06
 246    -1.6015356725786e-06
 247    -2.9040081150845e-06
 248    -1.150054531329e-06
 249    4.8744062140945e-06
 250    -1.1380604422192e-05
 251    1.9898155953202e-06
 252    3.2169360663453e-05
 253    -0.00029932685783955
 254    -3.5002416699257e-06
 255    8.7644696360926e-06
 256    -7.4663908265525e-06
 257    -0.0001244476661005
 258    -9.872746827257e-05
 259    0.00027314009307202
 260    -3.1685354983465e-06
 261    1.3518117584929e-05
 262    5.2780346317716e-06
 263    -9.0378120404828e-06
 264    -4.9664454027401e-06
 265    3.7879145229972e-06
 266    -3.0411016247423e-05
 267    8.6907382538926e-06
 268    -3.8721185914071e-05
 269    1.3326946577278e-05
 270    6.2866189602163e-05
 271    -0.0033337308026722
 272    -1.9082353962704e-05
 273    0.00020380696848415
 274    -4.3885909201472e-05
 275    -0.0023002217119527
 276    -0.00063572001702131
 277     0.003465576269131
 278    -0.00019399239810496
 279    0.0002450769450523