[Molden Format]
made by pyscf v[2.0.1]
[Atoms] (AU)
C   1   6     0.69100024069495     0.64692934212497    -3.48223131168734
H   2   1     2.68052439835215     1.13355088667581    -3.25784032595959
C   3   6    -0.36286361514353     0.85440132525350    -5.97030179416329
H   4   1    -2.35448549056350     0.36322488588432    -6.17995817799568
C   5   6     0.93697958950647     1.61209284601065    -8.05828437675987
H   6   1     2.92721069186250     2.10853558287052    -7.87534295441726
C   7   6    -0.17413039189613     1.80008207487984   -10.52534301739428
H   8   1    -2.16943049770440     1.29533627648343   -10.67939296478009
H   9   1     1.55630230933264    -1.92953025311848    12.99630010417381
C   10   6     0.75233899783373    -2.21270439606859    11.10705728099195
H   11   1    -0.43433408176896    -3.90944857543337    11.22216085348160
C   12   6     2.86362581169447    -2.63237380608325     9.17926416459635
H   13   1     4.39038949906562    -1.24955421532309     9.49899813488174
H   14   1     3.74629220184371    -4.48798724298246     9.47414880962803
C   15   6     2.02478325622942    -2.42177285713224     6.44560829586187
C   16   6     3.88048732732831    -3.58795445236593     4.61402886975252
C   17   6    -0.18412382264649    -1.30464291231236     5.76021113881606
C   18   6    -2.10044360460382    -0.26837831862807     7.71610340970501
C   19   6    -3.08956938678556     2.35282328352614     6.88693925042618
C   20   6    -4.37372924094212    -2.09766595985142     7.93610724215954
C   21   6    -0.83850430593104     0.06372213486551    10.33002307643668
H   22   1     0.38411922142983     1.74281358590180    10.27380136539346
H   23   1    -2.30980003011276     0.45460143923765    11.73986301804329
H   24   1     4.58527064636731    -5.38706904479673     5.36778158023404
H   25   1     5.54944938091628    -2.37631462201630     4.35398898404058
H   26   1     3.06633019144754    -3.94118377051822     2.75255466032570
H   27   1    -4.17727778763546     2.26573369145191     5.12914900957504
H   28   1    -1.52662344935358     3.68001877441469     6.59540397151878
H   29   1    -4.32916174393862     3.13643051473529     8.35225460094913
H   30   1    -5.32329548507875    -2.36691813603695     6.11583672741581
H   31   1    -5.77989366598289    -1.33896741838552     9.25748940451935
H   32   1    -3.79310905209871    -3.96389819308585     8.61386170106276
C   33   6    -1.01100794815762    -1.06331657313199     3.11929490450892
C   34   6     0.37686231029920    -0.33275864510088     1.09165013596992
H   35   1    -3.01671213911428    -1.40297922289257     2.77827895090755
C   36   6    -0.64382707979748    -0.11591880174763    -1.42063131255788
H   37   1     2.35569259790262     0.17174499287298     1.33641070253857
H   38   1    -2.63317482972383    -0.60229203504227    -1.66119700396716
C   39   6     1.04406642127022     2.54697835791677   -12.65486785204246
C   40   6    -0.25769856063703     2.67711278008941   -15.08293200861523
H   41   1     3.03094671002655     3.07573165426063   -12.63261900496242
O   42   8     0.71886931482866     3.33224024015006   -17.06735820381613
H   43   1    -2.28855418566595     2.11893682007881   -15.01778643592878
[GTO]
1 0
 s    6 1.00
             3047.5249  0.0018347001629433
             457.36951    0.01403730124668
             103.94869   0.068842606114048
             29.210155    0.23218442062076
              9.286663    0.46794134155879
              3.163927    0.36231203217765
 s    3 1.00
             7.8682724   -0.11933240861517
             1.8812885   -0.16085421161283
             0.5442493     1.1434564825515
 s    1 1.00
             0.1687144                   1
 p    3 1.00
             7.8682724   0.068999095584993
             1.8812885    0.31642397975315
             0.5442493    0.74430825237435
 p    1 1.00
             0.1687144                   1
 d    1 1.00
                   0.8                   1

2 0
 s    3 1.00
             18.731137    0.03349459952309
             2.8253937    0.23472694665786
             0.6401217    0.81375731841339
 s    1 1.00
             0.1612778                   1

3 0
 s    6 1.00
             3047.5249  0.0018347001629433
             457.36951    0.01403730124668
             103.94869   0.068842606114048
             29.210155    0.23218442062076
              9.286663    0.46794134155879
              3.163927    0.36231203217765
 s    3 1.00
             7.8682724   -0.11933240861517
             1.8812885   -0.16085421161283
             0.5442493     1.1434564825515
 s    1 1.00
             0.1687144                   1
 p    3 1.00
             7.8682724   0.068999095584993
             1.8812885    0.31642397975315
             0.5442493    0.74430825237435
 p    1 1.00
             0.1687144                   1
 d    1 1.00
                   0.8                   1

4 0
 s    3 1.00
             18.731137    0.03349459952309
             2.8253937    0.23472694665786
             0.6401217    0.81375731841339
 s    1 1.00
             0.1612778                   1

5 0
 s    6 1.00
             3047.5249  0.0018347001629433
             457.36951    0.01403730124668
             103.94869   0.068842606114048
             29.210155    0.23218442062076
              9.286663    0.46794134155879
              3.163927    0.36231203217765
 s    3 1.00
             7.8682724   -0.11933240861517
             1.8812885   -0.16085421161283
             0.5442493     1.1434564825515
 s    1 1.00
             0.1687144                   1
 p    3 1.00
             7.8682724   0.068999095584993
             1.8812885    0.31642397975315
             0.5442493    0.74430825237435
 p    1 1.00
             0.1687144                   1
 d    1 1.00
                   0.8                   1

6 0
 s    3 1.00
             18.731137    0.03349459952309
             2.8253937    0.23472694665786
             0.6401217    0.81375731841339
 s    1 1.00
             0.1612778                   1

7 0
 s    6 1.00
             3047.5249  0.0018347001629433
             457.36951    0.01403730124668
             103.94869   0.068842606114048
             29.210155    0.23218442062076
              9.286663    0.46794134155879
              3.163927    0.36231203217765
 s    3 1.00
             7.8682724   -0.11933240861517
             1.8812885   -0.16085421161283
             0.5442493     1.1434564825515
 s    1 1.00
             0.1687144                   1
 p    3 1.00
             7.8682724   0.068999095584993
             1.8812885    0.31642397975315
             0.5442493    0.74430825237435
 p    1 1.00
             0.1687144                   1
 d    1 1.00
                   0.8                   1

8 0
 s    3 1.00
             18.731137    0.03349459952309
             2.8253937    0.23472694665786
             0.6401217    0.81375731841339
 s    1 1.00
             0.1612778                   1

9 0
 s    3 1.00
             18.731137    0.03349459952309
             2.8253937    0.23472694665786
             0.6401217    0.81375731841339
 s    1 1.00
             0.1612778                   1

10 0
 s    6 1.00
             3047.5249  0.0018347001629433
             457.36951    0.01403730124668
             103.94869   0.068842606114048
             29.210155    0.23218442062076
              9.286663    0.46794134155879
              3.163927    0.36231203217765
 s    3 1.00
             7.8682724   -0.11933240861517
             1.8812885   -0.16085421161283
             0.5442493     1.1434564825515
 s    1 1.00
             0.1687144                   1
 p    3 1.00
             7.8682724   0.068999095584993
             1.8812885    0.31642397975315
             0.5442493    0.74430825237435
 p    1 1.00
             0.1687144                   1
 d    1 1.00
                   0.8                   1

11 0
 s    3 1.00
             18.731137    0.03349459952309
             2.8253937    0.23472694665786
             0.6401217    0.81375731841339
 s    1 1.00
             0.1612778                   1

12 0
 s    6 1.00
             3047.5249  0.0018347001629433
             457.36951    0.01403730124668
             103.94869   0.068842606114048
             29.210155    0.23218442062076
              9.286663    0.46794134155879
              3.163927    0.36231203217765
 s    3 1.00
             7.8682724   -0.11933240861517
             1.8812885   -0.16085421161283
             0.5442493     1.1434564825515
 s    1 1.00
             0.1687144                   1
 p    3 1.00
             7.8682724   0.068999095584993
             1.8812885    0.31642397975315
             0.5442493    0.74430825237435
 p    1 1.00
             0.1687144                   1
 d    1 1.00
                   0.8                   1

13 0
 s    3 1.00
             18.731137    0.03349459952309
             2.8253937    0.23472694665786
             0.6401217    0.81375731841339
 s    1 1.00
             0.1612778                   1

14 0
 s    3 1.00
             18.731137    0.03349459952309
             2.8253937    0.23472694665786
             0.6401217    0.81375731841339
 s    1 1.00
             0.1612778                   1

15 0
 s    6 1.00
             3047.5249  0.0018347001629433
             457.36951    0.01403730124668
             103.94869   0.068842606114048
             29.210155    0.23218442062076
              9.286663    0.46794134155879
              3.163927    0.36231203217765
 s    3 1.00
             7.8682724   -0.11933240861517
             1.8812885   -0.16085421161283
             0.5442493     1.1434564825515
 s    1 1.00
             0.1687144                   1
 p    3 1.00
             7.8682724   0.068999095584993
             1.8812885    0.31642397975315
             0.5442493    0.74430825237435
 p    1 1.00
             0.1687144                   1
 d    1 1.00
                   0.8                   1

16 0
 s    6 1.00
             3047.5249  0.0018347001629433
             457.36951    0.01403730124668
             103.94869   0.068842606114048
             29.210155    0.23218442062076
              9.286663    0.46794134155879
              3.163927    0.36231203217765
 s    3 1.00
             7.8682724   -0.11933240861517
             1.8812885   -0.16085421161283
             0.5442493     1.1434564825515
 s    1 1.00
             0.1687144                   1
 p    3 1.00
             7.8682724   0.068999095584993
             1.8812885    0.31642397975315
             0.5442493    0.74430825237435
 p    1 1.00
             0.1687144                   1
 d    1 1.00
                   0.8                   1

17 0
 s    6 1.00
             3047.5249  0.0018347001629433
             457.36951    0.01403730124668
             103.94869   0.068842606114048
             29.210155    0.23218442062076
              9.286663    0.46794134155879
              3.163927    0.36231203217765
 s    3 1.00
             7.8682724   -0.11933240861517
             1.8812885   -0.16085421161283
             0.5442493     1.1434564825515
 s    1 1.00
             0.1687144                   1
 p    3 1.00
             7.8682724   0.068999095584993
             1.8812885    0.31642397975315
             0.5442493    0.74430825237435
 p    1 1.00
             0.1687144                   1
 d    1 1.00
                   0.8                   1

18 0
 s    6 1.00
             3047.5249  0.0018347001629433
             457.36951    0.01403730124668
             103.94869   0.068842606114048
             29.210155    0.23218442062076
              9.286663    0.46794134155879
              3.163927    0.36231203217765
 s    3 1.00
             7.8682724   -0.11933240861517
             1.8812885   -0.16085421161283
             0.5442493     1.1434564825515
 s    1 1.00
             0.1687144                   1
 p    3 1.00
             7.8682724   0.068999095584993
             1.8812885    0.31642397975315
             0.5442493    0.74430825237435
 p    1 1.00
             0.1687144                   1
 d    1 1.00
                   0.8                   1

19 0
 s    6 1.00
             3047.5249  0.0018347001629433
             457.36951    0.01403730124668
             103.94869   0.068842606114048
             29.210155    0.23218442062076
              9.286663    0.46794134155879
              3.163927    0.36231203217765
 s    3 1.00
             7.8682724   -0.11933240861517
             1.8812885   -0.16085421161283
             0.5442493     1.1434564825515
 s    1 1.00
             0.1687144                   1
 p    3 1.00
             7.8682724   0.068999095584993
             1.8812885    0.31642397975315
             0.5442493    0.74430825237435
 p    1 1.00
             0.1687144                   1
 d    1 1.00
                   0.8                   1

20 0
 s    6 1.00
             3047.5249  0.0018347001629433
             457.36951    0.01403730124668
             103.94869   0.068842606114048
             29.210155    0.23218442062076
              9.286663    0.46794134155879
              3.163927    0.36231203217765
 s    3 1.00
             7.8682724   -0.11933240861517
             1.8812885   -0.16085421161283
             0.5442493     1.1434564825515
 s    1 1.00
             0.1687144                   1
 p    3 1.00
             7.8682724   0.068999095584993
             1.8812885    0.31642397975315
             0.5442493    0.74430825237435
 p    1 1.00
             0.1687144                   1
 d    1 1.00
                   0.8                   1

21 0
 s    6 1.00
             3047.5249  0.0018347001629433
             457.36951    0.01403730124668
             103.94869   0.068842606114048
             29.210155    0.23218442062076
              9.286663    0.46794134155879
              3.163927    0.36231203217765
 s    3 1.00
             7.8682724   -0.11933240861517
             1.8812885   -0.16085421161283
             0.5442493     1.1434564825515
 s    1 1.00
             0.1687144                   1
 p    3 1.00
             7.8682724   0.068999095584993
             1.8812885    0.31642397975315
             0.5442493    0.74430825237435
 p    1 1.00
             0.1687144                   1
 d    1 1.00
                   0.8                   1

22 0
 s    3 1.00
             18.731137    0.03349459952309
             2.8253937    0.23472694665786
             0.6401217    0.81375731841339
 s    1 1.00
             0.1612778                   1

23 0
 s    3 1.00
             18.731137    0.03349459952309
             2.8253937    0.23472694665786
             0.6401217    0.81375731841339
 s    1 1.00
             0.1612778                   1

24 0
 s    3 1.00
             18.731137    0.03349459952309
             2.8253937    0.23472694665786
             0.6401217    0.81375731841339
 s    1 1.00
             0.1612778                   1

25 0
 s    3 1.00
             18.731137    0.03349459952309
             2.8253937    0.23472694665786
             0.6401217    0.81375731841339
 s    1 1.00
             0.1612778                   1

26 0
 s    3 1.00
             18.731137    0.03349459952309
             2.8253937    0.23472694665786
             0.6401217    0.81375731841339
 s    1 1.00
             0.1612778                   1

27 0
 s    3 1.00
             18.731137    0.03349459952309
             2.8253937    0.23472694665786
             0.6401217    0.81375731841339
 s    1 1.00
             0.1612778                   1

28 0
 s    3 1.00
             18.731137    0.03349459952309
             2.8253937    0.23472694665786
             0.6401217    0.81375731841339
 s    1 1.00
             0.1612778                   1

29 0
 s    3 1.00
             18.731137    0.03349459952309
             2.8253937    0.23472694665786
             0.6401217    0.81375731841339
 s    1 1.00
             0.1612778                   1

30 0
 s    3 1.00
             18.731137    0.03349459952309
             2.8253937    0.23472694665786
             0.6401217    0.81375731841339
 s    1 1.00
             0.1612778                   1

31 0
 s    3 1.00
             18.731137    0.03349459952309
             2.8253937    0.23472694665786
             0.6401217    0.81375731841339
 s    1 1.00
             0.1612778                   1

32 0
 s    3 1.00
             18.731137    0.03349459952309
             2.8253937    0.23472694665786
             0.6401217    0.81375731841339
 s    1 1.00
             0.1612778                   1

33 0
 s    6 1.00
             3047.5249  0.0018347001629433
             457.36951    0.01403730124668
             103.94869   0.068842606114048
             29.210155    0.23218442062076
              9.286663    0.46794134155879
              3.163927    0.36231203217765
 s    3 1.00
             7.8682724   -0.11933240861517
             1.8812885   -0.16085421161283
             0.5442493     1.1434564825515
 s    1 1.00
             0.1687144                   1
 p    3 1.00
             7.8682724   0.068999095584993
             1.8812885    0.31642397975315
             0.5442493    0.74430825237435
 p    1 1.00
             0.1687144                   1
 d    1 1.00
                   0.8                   1

34 0
 s    6 1.00
             3047.5249  0.0018347001629433
             457.36951    0.01403730124668
             103.94869   0.068842606114048
             29.210155    0.23218442062076
              9.286663    0.46794134155879
              3.163927    0.36231203217765
 s    3 1.00
             7.8682724   -0.11933240861517
             1.8812885   -0.16085421161283
             0.5442493     1.1434564825515
 s    1 1.00
             0.1687144                   1
 p    3 1.00
             7.8682724   0.068999095584993
             1.8812885    0.31642397975315
             0.5442493    0.74430825237435
 p    1 1.00
             0.1687144                   1
 d    1 1.00
                   0.8                   1

35 0
 s    3 1.00
             18.731137    0.03349459952309
             2.8253937    0.23472694665786
             0.6401217    0.81375731841339
 s    1 1.00
             0.1612778                   1

36 0
 s    6 1.00
             3047.5249  0.0018347001629433
             457.36951    0.01403730124668
             103.94869   0.068842606114048
             29.210155    0.23218442062076
              9.286663    0.46794134155879
              3.163927    0.36231203217765
 s    3 1.00
             7.8682724   -0.11933240861517
             1.8812885   -0.16085421161283
             0.5442493     1.1434564825515
 s    1 1.00
             0.1687144                   1
 p    3 1.00
             7.8682724   0.068999095584993
             1.8812885    0.31642397975315
             0.5442493    0.74430825237435
 p    1 1.00
             0.1687144                   1
 d    1 1.00
                   0.8                   1

37 0
 s    3 1.00
             18.731137    0.03349459952309
             2.8253937    0.23472694665786
             0.6401217    0.81375731841339
 s    1 1.00
             0.1612778                   1

38 0
 s    3 1.00
             18.731137    0.03349459952309
             2.8253937    0.23472694665786
             0.6401217    0.81375731841339
 s    1 1.00
             0.1612778                   1

39 0
 s    6 1.00
             3047.5249  0.0018347001629433
             457.36951    0.01403730124668
             103.94869   0.068842606114048
             29.210155    0.23218442062076
              9.286663    0.46794134155879
              3.163927    0.36231203217765
 s    3 1.00
             7.8682724   -0.11933240861517
             1.8812885   -0.16085421161283
             0.5442493     1.1434564825515
 s    1 1.00
             0.1687144                   1
 p    3 1.00
             7.8682724   0.068999095584993
             1.8812885    0.31642397975315
             0.5442493    0.74430825237435
 p    1 1.00
             0.1687144                   1
 d    1 1.00
                   0.8                   1

40 0
 s    6 1.00
             3047.5249  0.0018347001629433
             457.36951    0.01403730124668
             103.94869   0.068842606114048
             29.210155    0.23218442062076
              9.286663    0.46794134155879
              3.163927    0.36231203217765
 s    3 1.00
             7.8682724   -0.11933240861517
             1.8812885   -0.16085421161283
             0.5442493     1.1434564825515
 s    1 1.00
             0.1687144                   1
 p    3 1.00
             7.8682724   0.068999095584993
             1.8812885    0.31642397975315
             0.5442493    0.74430825237435
 p    1 1.00
             0.1687144                   1
 d    1 1.00
                   0.8                   1

41 0
 s    3 1.00
             18.731137    0.03349459952309
             2.8253937    0.23472694665786
             0.6401217    0.81375731841339
 s    1 1.00
             0.1612778                   1

42 0
 s    6 1.00
             5484.6717   0.001831099805527
             825.23495   0.013950098518422
             188.04696    0.06844509273075
               52.9645    0.23271427528445
              16.89757    0.47019295006289
             5.7996353    0.35852086192309
 s    3 1.00
             15.539616   -0.11077750382508
             3.5999336   -0.14802630511126
             1.0137618     1.1307670390447
 s    1 1.00
             0.2700058                   1
 p    3 1.00
             15.539616   0.070874299543311
             3.5999336    0.33975279781076
             1.0137618    0.72715859531445
 p    1 1.00
             0.2700058                   1
 d    1 1.00
                   0.8                   1

43 0
 s    3 1.00
             18.731137    0.03349459952309
             2.8253937    0.23472694665786
             0.6401217    0.81375731841339
 s    1 1.00
             0.1612778                   1

[5d]
[7f]
[9g]

[MO]
 Sym= A
 Ene=               0
 Spin= Alpha
 Occup=    1.00000
   1    -5.6779132432513e-06
   2    -7.3964302003205e-05
   3    -7.0756832640413e-05
   4    -2.2125538660512e-05
   5    -1.5938394550956e-05
   6    5.1079896621313e-05
   7    0.00030405610092273
   8    0.00030640358079362
   9    -0.0011475665670431
  10    2.6220765978183e-05
  11    4.248264581073e-05
  12    8.6369462772175e-07
  13    8.9782747190201e-06
  14    -3.7970266069209e-06
  15    -6.34812569258e-05
  16    -3.2304065241377e-05
  17    1.9536452868366e-05
  18    0.00012357309019033
  19    -0.0024365879674178
  20    -1.0408833808947e-06
  21    -1.1182337105729e-05
  22    5.5477199427456e-05
  23    -0.00046507659828976
  24    -0.00026894704652678
  25    0.00073681085632751
  26    -7.0394246490846e-05
  27    9.9461032031693e-06
  28    2.6436828482726e-05
  29    6.1321276432594e-06
  30    -3.4552840908149e-08
  31    6.2900849899869e-06
  32    0.00015264363696591
  33    -5.6006018299513e-05
  34    -0.0004517491282278
  35    0.0060113133037671
  36    4.998435272713e-05
  37    2.8002871786502e-05
  38    -7.4269970513463e-05
  39    -0.0022735027742314
  40    -0.00031206158555292
  41    -0.0015050417676119
  42    0.00017334808411567
  43    7.4555330940085e-05
  44    -5.12617606938e-05
  45    4.8212159150055e-05
  46    1.4814007574327e-05
  47    4.9121993411382e-05
  48    0.00034699815050383
  49    -2.3878472595846e-05
  50    4.1728191157142e-06
  51    -0.0044566311539687
  52    0.00017522472781372
  53    -1.095392185093e-05
  54    0.00029463232392548
  55    -0.0020916067745377
  56    0.0002567502204123
  57    -0.0041505397487913
  58    -0.00012376096298012
  59    -0.00022073386799219
  60    -3.734468949778e-05
  61    7.0826931465555e-05
  62    8.994949799871e-05
  63    -0.0002612294540857
  64    -0.00012275635446582
  65    -1.6606298279499e-07
  66    2.3340087666791e-06
  67    -1.8147683925658e-07
  68    -1.8747168586002e-06
  69    1.0630425322867e-06
  70    1.0916158697702e-06
  71    -1.1451238967994e-06
  72    4.835839082818e-07
  73    2.1469372386472e-06
  74    7.6015345138414e-07
  75    -3.4160114250204e-06
  76    2.958142679298e-07
  77    4.9671074985978e-08
  78    1.9533931964724e-07
  79    1.7216734905481e-07
  80    7.6552154086874e-08
  81    4.3970698763111e-08
  82    5.6953234471857e-07
  83    3.3050706053676e-07
  84    2.6371805628619e-06
  85    -1.3114158203303e-05
  86    3.8830447229576e-07
  87    1.423993987092e-07
  88    8.4947319803482e-07
  89    7.078589797871e-06
  90    -1.1025805767602e-05
  91    2.5644166836334e-07
  92    -1.6143106912161e-07
  93    -6.2996535408959e-07
  94    1.1510263262624e-06
  95    -4.1174062466003e-07
  96    -3.3635814701769e-09
  97    1.6665240861695e-06
  98    8.4488555875163e-07
  99    -4.713116477435e-07
 100    -2.0033532878281e-06
 101    -8.7545013547226e-07
 102    -4.0873595770974e-06
 103    0.00011111378482094
 104    -1.242828191444e-06
 105    2.4459885370493e-07
 106    -2.8317248078564e-06
 107    -4.3856344405277e-05
 108    4.3415451449202e-05
 109    -7.7216187091525e-06
 110    9.4208321156978e-07
 111    1.3321122646281e-06
 112    -5.8851007873287e-07
 113    -2.653110239015e-07
 114    -2.0467849226095e-06
 115    3.0786201735548e-07
 116    4.4083248850898e-06
 117    -3.2749772159548e-06
 118    -7.3122787274021e-07
 119    2.9266845705024e-06
 120    -2.1995317124443e-06
 121    5.332955216137e-06
 122    -1.7796870333765e-05
 123    1.7600159489959e-05
 124    7.0082811969908e-07
 125    -5.1455983824295e-07
 126    -9.7784710348407e-07
 127    -3.7630174155065e-07
 128    -1.6198404948829e-07
 129     5.93587424239e-08
 130    2.2480844419058e-06
 131    5.8543083775017e-05
 132    6.7448183841668e-06
 133    1.2509011762319e-06
 134    -4.6261391188295e-06
 135    -0.00014404188668925
 136    1.8618215523552e-05
 137    -4.4371158583984e-05
 138    1.6820029750308e-06
 139    1.0522265634553e-06
 140    3.2555631392785e-06
 141    -4.3257082529251e-07
 142    2.1355508509979e-06
 143    1.7079656255216e-07
 144    -1.1171249993749e-06
 145    -5.0254522297903e-05
 146    -5.0580611090024e-07
 147    -1.068869171065e-06
 148    5.929562165871e-06
 149    -1.5202289704071e-05
 150    3.966610547285e-05
 151    -1.4255531499244e-05
 152    -1.4134693210666e-06
 153    4.0209514259047e-07
 154    -2.38313023471e-06
 155    -4.9776756882784e-08
 156    -1.0785168720171e-06
 157    7.3501213550615e-07
 158    5.9407111541985e-06
 159    -3.2476335386645e-05
 160    6.5409802899206e-07
 161    7.7190627065772e-07
 162    -9.9683489352207e-07
 163    -1.233487149993e-05
 164    1.241779478613e-05
 165    1.5126954349719e-06
 166    1.1244528746263e-06
 167    -1.8027074251914e-07
 168    2.6238661462031e-07
 169    4.3982661526389e-07
 170    9.0901646160451e-07
 171    4.7945939656561e-08
 172    5.124411045782e-07
 173    3.559077397329e-06
 174    -1.9861557309748e-07
 175    -2.1465854041866e-07
 176    1.599597372656e-06
 177    1.3273174888061e-05
 178    4.6980897076158e-06
 179    5.0900082146371e-06
 180    -3.0176544486259e-07
 181    1.6114317532966e-06
 182    -1.2660465251834e-07
 183    7.7009359025182e-07
 184    1.2459430055337e-06
 185    -8.9414224059817e-07
 186    -7.3362205530987e-06
 187    3.2887915195976e-05
 188    -1.4907307182581e-06
 189    -9.1018866042326e-08
 190    -1.7033145581684e-07
 191    9.5577218240776e-07
 192    -1.027887153777e-05
 193    -1.7196105106034e-05
 194    8.4161297318874e-07
 195    8.8796032564353e-07
 196    1.6545677313538e-06
 197    -5.9798070606981e-07
 198    4.1169683969267e-07
 199    -2.3044498472547e-06
 200    9.3180401967442e-07
 201    -4.1008297018592e-07
 202    2.5346828216216e-06
 203    -1.9518151150685e-06
 204    -1.0623621970281e-05
 205    3.6870635747152e-06
 206    1.1041045083879e-06
 207    1.2768633753131e-06
 208    1.0781258278591e-05
 209    2.721360654465e-06
 210    -9.3636465508395e-07
 211    1.9570064645083e-06
 212    4.6327610912321e-06
 213    6.0883899051546e-07
 214    -4.1891376887087e-06
 215    -3.1826237812755e-06
 216    1.951665616207e-05
 217    8.9846622111808e-07
 218    3.1985750014765e-08
 219    8.8022446912232e-07
 220    -2.2623562962331e-06
 221    -4.3765973112678e-06
 222    -2.7068267718675e-05
 223    0.00028983801038646
 224    7.4462691895059e-06
 225    1.7582525662985e-06
 226    4.087950782527e-07
 227    5.6748672028807e-05
 228    6.4362568475765e-05
 229    -0.00032166479839879
 230    6.702739508347e-06
 231    -1.0480687156486e-05
 232    -8.1065720067518e-06
 233    3.5239242728752e-06
 234    3.4490521566916e-06
 235    1.0922084891286e-05
 236    5.2556246666294e-05
 237    -0.00082218430732955
 238    -1.2014858723483e-05
 239    -5.6825763789184e-06
 240    1.2992924357565e-05
 241    0.00026255048454837
 242    5.1096380160241e-05
 243    9.1367487209443e-05
 244    -2.091232331024e-05
 245    5.0448487084296e-06
 246    8.8677163806504e-06
 247    -1.5895168944181e-06
 248    -2.2099543388408e-06
 249    -1.3289579709335e-05
 250    -2.1081351120646e-05
 251    1.2667636744992e-05
 252    -5.0929462415178e-05
 253    0.0012341259862206
 254    -1.0891539211612e-05
 255    2.1846075414827e-06
 256    -2.7277796187415e-05
 257    0.00053529380858755
 258    0.00012589867769829
 259    9.6447917308889e-05
 260    2.0935371888659e-05
 261    -6.3813325102589e-06
 262    -1.0788085596396e-05
 263    6.4730584747795e-06
 264    5.8492405347702e-06
 265    -1.3676024329343e-05
 266    -6.108126320194e-06
 267    3.2382237861365e-05
 268    8.217461532546e-05
 269    -0.0002597016011798
 270    -8.9295250066986e-05
 271    -0.0034805580596405
 272    0.00033112629703705
 273    4.556474206093e-06
 274    0.00042645635823717
 275    -0.0013893536585988
 276    -0.0011703408935637
 277    0.0040349106178032
 278    -0.00037941225661455
 279    1.9111961631479e-05
 280    0.00010488059277979
 281    0.00015286663774115