[Molden Format]
made by pyscf v[2.0.1]
[Atoms] (AU)
C   1   6     0.69100024066471     0.64692934207205    -3.48223131169301
H   2   1     2.68052439830868     1.13355088658700    -3.25784032593313
C   3   6    -0.36286361513219     0.85440132524594    -5.97030179418974
H   4   1    -2.35448549047279     0.36322488579172    -6.17995817793143
C   5   6     0.93697958957450     1.61209284601821    -8.05828437677121
H   6   1    -0.06960811584452     2.58702669474359    -9.56733307637730
C   7   6     3.59571274713804     1.19684402678434    -8.39738626626495
H   8   1     4.57899779978681     0.21871567749258    -6.86894337963000
H   9   1     1.55630230933075    -1.92953025305990    12.99630010416247
C   10   6     0.75233899775814    -2.21270439606481    11.10705728102219
H   11   1    -0.43433408177274    -3.90944857546550    11.22216085340412
C   12   6     2.86362581178706    -2.63237380607947     9.17926416456045
H   13   1     4.39038949912609    -1.24955421540245     9.49899813497433
H   14   1     3.74629220191363    -4.48798724300892     9.47414880959024
C   15   6     2.02478325613682    -2.42177285709634     6.44560829588644
C   16   6     3.88048732735477    -3.58795445234514     4.61402886975252
C   17   6    -0.18412382258602    -1.30464291234259     5.76021113872346
C   18   6    -2.10044360464350    -0.26837831858460     7.71610340967100
C   19   6    -3.08956938670431     2.35282328359417     6.88693925039594
C   20   6    -4.37372924086464    -2.09766595989678     7.93610724222001
C   21   6    -0.83850430601230     0.06372213486173    10.33002307638377
H   22   1     0.38411922151109     1.74281358582432    10.27380136542181
H   23   1    -2.30980003007874     0.45460143924521    11.73986301809809
H   24   1     4.58527064644668    -5.38706904487420     5.36778158031719
H   25   1     5.54944938085014    -2.37631462192748     4.35398898413318
H   26   1     3.06633019150423    -3.94118377050688     2.75255466040884
H   27   1    -4.17727778763735     2.26573369139522     5.12914900961283
H   28   1    -1.52662344944051     3.68001877445626     6.59540397144508
H   29   1    -4.32916174397830     3.13643051467482     8.35225460090378
H   30   1    -5.32329548508442    -2.36691813602939     6.11583672749896
H   31   1    -5.77989366602257    -1.33896741843465     9.25748940450990
H   32   1    -3.79310905208926    -3.96389819310853     8.61386170102686
C   33   6    -1.01100794811226    -1.06331657314144     3.11929490449947
C   34   6     0.37686231036534    -0.33275864505552     1.09165013605873
H   35   1    -3.01671213906703    -1.40297922279997     2.77827895090944
C   36   6    -0.64382707979370    -0.11591880174385    -1.42063131251064
H   37   1     2.35569259782137     0.17174499283897     1.33641070251401
H   38   1    -2.63317482980319    -0.60229203511219    -1.66119700387645
C   39   6     4.96665860975130     1.91437223239220   -10.44247655051683
C   40   6     7.67160233174465     1.40206885234173   -10.60935163126053
H   41   1     4.10375913642339     2.89528826049847   -12.03023490303406
O   42   8     9.01623610133373     1.99111078946158   -12.38862500825095
H   43   1     8.47573431044455     0.39495244048141    -8.94223819440966
[GTO]
1 0
 s    6 1.00
             3047.5249  0.0018347001629433
             457.36951    0.01403730124668
             103.94869   0.068842606114048
             29.210155    0.23218442062076
              9.286663    0.46794134155879
              3.163927    0.36231203217765
 s    3 1.00
             7.8682724   -0.11933240861517
             1.8812885   -0.16085421161283
             0.5442493     1.1434564825515
 s    1 1.00
             0.1687144                   1
 p    3 1.00
             7.8682724   0.068999095584993
             1.8812885    0.31642397975315
             0.5442493    0.74430825237435
 p    1 1.00
             0.1687144                   1
 d    1 1.00
                   0.8                   1

2 0
 s    3 1.00
             18.731137    0.03349459952309
             2.8253937    0.23472694665786
             0.6401217    0.81375731841339
 s    1 1.00
             0.1612778                   1

3 0
 s    6 1.00
             3047.5249  0.0018347001629433
             457.36951    0.01403730124668
             103.94869   0.068842606114048
             29.210155    0.23218442062076
              9.286663    0.46794134155879
              3.163927    0.36231203217765
 s    3 1.00
             7.8682724   -0.11933240861517
             1.8812885   -0.16085421161283
             0.5442493     1.1434564825515
 s    1 1.00
             0.1687144                   1
 p    3 1.00
             7.8682724   0.068999095584993
             1.8812885    0.31642397975315
             0.5442493    0.74430825237435
 p    1 1.00
             0.1687144                   1
 d    1 1.00
                   0.8                   1

4 0
 s    3 1.00
             18.731137    0.03349459952309
             2.8253937    0.23472694665786
             0.6401217    0.81375731841339
 s    1 1.00
             0.1612778                   1

5 0
 s    6 1.00
             3047.5249  0.0018347001629433
             457.36951    0.01403730124668
             103.94869   0.068842606114048
             29.210155    0.23218442062076
              9.286663    0.46794134155879
              3.163927    0.36231203217765
 s    3 1.00
             7.8682724   -0.11933240861517
             1.8812885   -0.16085421161283
             0.5442493     1.1434564825515
 s    1 1.00
             0.1687144                   1
 p    3 1.00
             7.8682724   0.068999095584993
             1.8812885    0.31642397975315
             0.5442493    0.74430825237435
 p    1 1.00
             0.1687144                   1
 d    1 1.00
                   0.8                   1

6 0
 s    3 1.00
             18.731137    0.03349459952309
             2.8253937    0.23472694665786
             0.6401217    0.81375731841339
 s    1 1.00
             0.1612778                   1

7 0
 s    6 1.00
             3047.5249  0.0018347001629433
             457.36951    0.01403730124668
             103.94869   0.068842606114048
             29.210155    0.23218442062076
              9.286663    0.46794134155879
              3.163927    0.36231203217765
 s    3 1.00
             7.8682724   -0.11933240861517
             1.8812885   -0.16085421161283
             0.5442493     1.1434564825515
 s    1 1.00
             0.1687144                   1
 p    3 1.00
             7.8682724   0.068999095584993
             1.8812885    0.31642397975315
             0.5442493    0.74430825237435
 p    1 1.00
             0.1687144                   1
 d    1 1.00
                   0.8                   1

8 0
 s    3 1.00
             18.731137    0.03349459952309
             2.8253937    0.23472694665786
             0.6401217    0.81375731841339
 s    1 1.00
             0.1612778                   1

9 0
 s    3 1.00
             18.731137    0.03349459952309
             2.8253937    0.23472694665786
             0.6401217    0.81375731841339
 s    1 1.00
             0.1612778                   1

10 0
 s    6 1.00
             3047.5249  0.0018347001629433
             457.36951    0.01403730124668
             103.94869   0.068842606114048
             29.210155    0.23218442062076
              9.286663    0.46794134155879
              3.163927    0.36231203217765
 s    3 1.00
             7.8682724   -0.11933240861517
             1.8812885   -0.16085421161283
             0.5442493     1.1434564825515
 s    1 1.00
             0.1687144                   1
 p    3 1.00
             7.8682724   0.068999095584993
             1.8812885    0.31642397975315
             0.5442493    0.74430825237435
 p    1 1.00
             0.1687144                   1
 d    1 1.00
                   0.8                   1

11 0
 s    3 1.00
             18.731137    0.03349459952309
             2.8253937    0.23472694665786
             0.6401217    0.81375731841339
 s    1 1.00
             0.1612778                   1

12 0
 s    6 1.00
             3047.5249  0.0018347001629433
             457.36951    0.01403730124668
             103.94869   0.068842606114048
             29.210155    0.23218442062076
              9.286663    0.46794134155879
              3.163927    0.36231203217765
 s    3 1.00
             7.8682724   -0.11933240861517
             1.8812885   -0.16085421161283
             0.5442493     1.1434564825515
 s    1 1.00
             0.1687144                   1
 p    3 1.00
             7.8682724   0.068999095584993
             1.8812885    0.31642397975315
             0.5442493    0.74430825237435
 p    1 1.00
             0.1687144                   1
 d    1 1.00
                   0.8                   1

13 0
 s    3 1.00
             18.731137    0.03349459952309
             2.8253937    0.23472694665786
             0.6401217    0.81375731841339
 s    1 1.00
             0.1612778                   1

14 0
 s    3 1.00
             18.731137    0.03349459952309
             2.8253937    0.23472694665786
             0.6401217    0.81375731841339
 s    1 1.00
             0.1612778                   1

15 0
 s    6 1.00
             3047.5249  0.0018347001629433
             457.36951    0.01403730124668
             103.94869   0.068842606114048
             29.210155    0.23218442062076
              9.286663    0.46794134155879
              3.163927    0.36231203217765
 s    3 1.00
             7.8682724   -0.11933240861517
             1.8812885   -0.16085421161283
             0.5442493     1.1434564825515
 s    1 1.00
             0.1687144                   1
 p    3 1.00
             7.8682724   0.068999095584993
             1.8812885    0.31642397975315
             0.5442493    0.74430825237435
 p    1 1.00
             0.1687144                   1
 d    1 1.00
                   0.8                   1

16 0
 s    6 1.00
             3047.5249  0.0018347001629433
             457.36951    0.01403730124668
             103.94869   0.068842606114048
             29.210155    0.23218442062076
              9.286663    0.46794134155879
              3.163927    0.36231203217765
 s    3 1.00
             7.8682724   -0.11933240861517
             1.8812885   -0.16085421161283
             0.5442493     1.1434564825515
 s    1 1.00
             0.1687144                   1
 p    3 1.00
             7.8682724   0.068999095584993
             1.8812885    0.31642397975315
             0.5442493    0.74430825237435
 p    1 1.00
             0.1687144                   1
 d    1 1.00
                   0.8                   1

17 0
 s    6 1.00
             3047.5249  0.0018347001629433
             457.36951    0.01403730124668
             103.94869   0.068842606114048
             29.210155    0.23218442062076
              9.286663    0.46794134155879
              3.163927    0.36231203217765
 s    3 1.00
             7.8682724   -0.11933240861517
             1.8812885   -0.16085421161283
             0.5442493     1.1434564825515
 s    1 1.00
             0.1687144                   1
 p    3 1.00
             7.8682724   0.068999095584993
             1.8812885    0.31642397975315
             0.5442493    0.74430825237435
 p    1 1.00
             0.1687144                   1
 d    1 1.00
                   0.8                   1

18 0
 s    6 1.00
             3047.5249  0.0018347001629433
             457.36951    0.01403730124668
             103.94869   0.068842606114048
             29.210155    0.23218442062076
              9.286663    0.46794134155879
              3.163927    0.36231203217765
 s    3 1.00
             7.8682724   -0.11933240861517
             1.8812885   -0.16085421161283
             0.5442493     1.1434564825515
 s    1 1.00
             0.1687144                   1
 p    3 1.00
             7.8682724   0.068999095584993
             1.8812885    0.31642397975315
             0.5442493    0.74430825237435
 p    1 1.00
             0.1687144                   1
 d    1 1.00
                   0.8                   1

19 0
 s    6 1.00
             3047.5249  0.0018347001629433
             457.36951    0.01403730124668
             103.94869   0.068842606114048
             29.210155    0.23218442062076
              9.286663    0.46794134155879
              3.163927    0.36231203217765
 s    3 1.00
             7.8682724   -0.11933240861517
             1.8812885   -0.16085421161283
             0.5442493     1.1434564825515
 s    1 1.00
             0.1687144                   1
 p    3 1.00
             7.8682724   0.068999095584993
             1.8812885    0.31642397975315
             0.5442493    0.74430825237435
 p    1 1.00
             0.1687144                   1
 d    1 1.00
                   0.8                   1

20 0
 s    6 1.00
             3047.5249  0.0018347001629433
             457.36951    0.01403730124668
             103.94869   0.068842606114048
             29.210155    0.23218442062076
              9.286663    0.46794134155879
              3.163927    0.36231203217765
 s    3 1.00
             7.8682724   -0.11933240861517
             1.8812885   -0.16085421161283
             0.5442493     1.1434564825515
 s    1 1.00
             0.1687144                   1
 p    3 1.00
             7.8682724   0.068999095584993
             1.8812885    0.31642397975315
             0.5442493    0.74430825237435
 p    1 1.00
             0.1687144                   1
 d    1 1.00
                   0.8                   1

21 0
 s    6 1.00
             3047.5249  0.0018347001629433
             457.36951    0.01403730124668
             103.94869   0.068842606114048
             29.210155    0.23218442062076
              9.286663    0.46794134155879
              3.163927    0.36231203217765
 s    3 1.00
             7.8682724   -0.11933240861517
             1.8812885   -0.16085421161283
             0.5442493     1.1434564825515
 s    1 1.00
             0.1687144                   1
 p    3 1.00
             7.8682724   0.068999095584993
             1.8812885    0.31642397975315
             0.5442493    0.74430825237435
 p    1 1.00
             0.1687144                   1
 d    1 1.00
                   0.8                   1

22 0
 s    3 1.00
             18.731137    0.03349459952309
             2.8253937    0.23472694665786
             0.6401217    0.81375731841339
 s    1 1.00
             0.1612778                   1

23 0
 s    3 1.00
             18.731137    0.03349459952309
             2.8253937    0.23472694665786
             0.6401217    0.81375731841339
 s    1 1.00
             0.1612778                   1

24 0
 s    3 1.00
             18.731137    0.03349459952309
             2.8253937    0.23472694665786
             0.6401217    0.81375731841339
 s    1 1.00
             0.1612778                   1

25 0
 s    3 1.00
             18.731137    0.03349459952309
             2.8253937    0.23472694665786
             0.6401217    0.81375731841339
 s    1 1.00
             0.1612778                   1

26 0
 s    3 1.00
             18.731137    0.03349459952309
             2.8253937    0.23472694665786
             0.6401217    0.81375731841339
 s    1 1.00
             0.1612778                   1

27 0
 s    3 1.00
             18.731137    0.03349459952309
             2.8253937    0.23472694665786
             0.6401217    0.81375731841339
 s    1 1.00
             0.1612778                   1

28 0
 s    3 1.00
             18.731137    0.03349459952309
             2.8253937    0.23472694665786
             0.6401217    0.81375731841339
 s    1 1.00
             0.1612778                   1

29 0
 s    3 1.00
             18.731137    0.03349459952309
             2.8253937    0.23472694665786
             0.6401217    0.81375731841339
 s    1 1.00
             0.1612778                   1

30 0
 s    3 1.00
             18.731137    0.03349459952309
             2.8253937    0.23472694665786
             0.6401217    0.81375731841339
 s    1 1.00
             0.1612778                   1

31 0
 s    3 1.00
             18.731137    0.03349459952309
             2.8253937    0.23472694665786
             0.6401217    0.81375731841339
 s    1 1.00
             0.1612778                   1

32 0
 s    3 1.00
             18.731137    0.03349459952309
             2.8253937    0.23472694665786
             0.6401217    0.81375731841339
 s    1 1.00
             0.1612778                   1

33 0
 s    6 1.00
             3047.5249  0.0018347001629433
             457.36951    0.01403730124668
             103.94869   0.068842606114048
             29.210155    0.23218442062076
              9.286663    0.46794134155879
              3.163927    0.36231203217765
 s    3 1.00
             7.8682724   -0.11933240861517
             1.8812885   -0.16085421161283
             0.5442493     1.1434564825515
 s    1 1.00
             0.1687144                   1
 p    3 1.00
             7.8682724   0.068999095584993
             1.8812885    0.31642397975315
             0.5442493    0.74430825237435
 p    1 1.00
             0.1687144                   1
 d    1 1.00
                   0.8                   1

34 0
 s    6 1.00
             3047.5249  0.0018347001629433
             457.36951    0.01403730124668
             103.94869   0.068842606114048
             29.210155    0.23218442062076
              9.286663    0.46794134155879
              3.163927    0.36231203217765
 s    3 1.00
             7.8682724   -0.11933240861517
             1.8812885   -0.16085421161283
             0.5442493     1.1434564825515
 s    1 1.00
             0.1687144                   1
 p    3 1.00
             7.8682724   0.068999095584993
             1.8812885    0.31642397975315
             0.5442493    0.74430825237435
 p    1 1.00
             0.1687144                   1
 d    1 1.00
                   0.8                   1

35 0
 s    3 1.00
             18.731137    0.03349459952309
             2.8253937    0.23472694665786
             0.6401217    0.81375731841339
 s    1 1.00
             0.1612778                   1

36 0
 s    6 1.00
             3047.5249  0.0018347001629433
             457.36951    0.01403730124668
             103.94869   0.068842606114048
             29.210155    0.23218442062076
              9.286663    0.46794134155879
              3.163927    0.36231203217765
 s    3 1.00
             7.8682724   -0.11933240861517
             1.8812885   -0.16085421161283
             0.5442493     1.1434564825515
 s    1 1.00
             0.1687144                   1
 p    3 1.00
             7.8682724   0.068999095584993
             1.8812885    0.31642397975315
             0.5442493    0.74430825237435
 p    1 1.00
             0.1687144                   1
 d    1 1.00
                   0.8                   1

37 0
 s    3 1.00
             18.731137    0.03349459952309
             2.8253937    0.23472694665786
             0.6401217    0.81375731841339
 s    1 1.00
             0.1612778                   1

38 0
 s    3 1.00
             18.731137    0.03349459952309
             2.8253937    0.23472694665786
             0.6401217    0.81375731841339
 s    1 1.00
             0.1612778                   1

39 0
 s    6 1.00
             3047.5249  0.0018347001629433
             457.36951    0.01403730124668
             103.94869   0.068842606114048
             29.210155    0.23218442062076
              9.286663    0.46794134155879
              3.163927    0.36231203217765
 s    3 1.00
             7.8682724   -0.11933240861517
             1.8812885   -0.16085421161283
             0.5442493     1.1434564825515
 s    1 1.00
             0.1687144                   1
 p    3 1.00
             7.8682724   0.068999095584993
             1.8812885    0.31642397975315
             0.5442493    0.74430825237435
 p    1 1.00
             0.1687144                   1
 d    1 1.00
                   0.8                   1

40 0
 s    6 1.00
             3047.5249  0.0018347001629433
             457.36951    0.01403730124668
             103.94869   0.068842606114048
             29.210155    0.23218442062076
              9.286663    0.46794134155879
              3.163927    0.36231203217765
 s    3 1.00
             7.8682724   -0.11933240861517
             1.8812885   -0.16085421161283
             0.5442493     1.1434564825515
 s    1 1.00
             0.1687144                   1
 p    3 1.00
             7.8682724   0.068999095584993
             1.8812885    0.31642397975315
             0.5442493    0.74430825237435
 p    1 1.00
             0.1687144                   1
 d    1 1.00
                   0.8                   1

41 0
 s    3 1.00
             18.731137    0.03349459952309
             2.8253937    0.23472694665786
             0.6401217    0.81375731841339
 s    1 1.00
             0.1612778                   1

42 0
 s    6 1.00
             5484.6717   0.001831099805527
             825.23495   0.013950098518422
             188.04696    0.06844509273075
               52.9645    0.23271427528445
              16.89757    0.47019295006289
             5.7996353    0.35852086192309
 s    3 1.00
             15.539616   -0.11077750382508
             3.5999336   -0.14802630511126
             1.0137618     1.1307670390447
 s    1 1.00
             0.2700058                   1
 p    3 1.00
             15.539616   0.070874299543311
             3.5999336    0.33975279781076
             1.0137618    0.72715859531445
 p    1 1.00
             0.2700058                   1
 d    1 1.00
                   0.8                   1

43 0
 s    3 1.00
             18.731137    0.03349459952309
             2.8253937    0.23472694665786
             0.6401217    0.81375731841339
 s    1 1.00
             0.1612778                   1

[5d]
[7f]
[9g]

[MO]
 Sym= A
 Ene=               0
 Spin= Alpha
 Occup=    1.00000
   1    -9.6816597349163e-06
   2    -8.9647197281372e-05
   3    0.0011550406638394
   4    -3.4671693576949e-05
   5    2.6233440630973e-05
   6    -8.2054564239037e-07
   7    -6.0044194472954e-05
   8    -5.3430216317314e-06
   9    -0.00091956933195923
  10    3.4497992844786e-05
  11    2.7917439552694e-05
  12    6.7509885537593e-06
  13    5.6249174832802e-07
  14    7.3511368211091e-07
  15    -3.2728527775909e-05
  16    -3.3584034209797e-05
  17    1.6083390433682e-05
  18    0.00010208661793564
  19    -0.0021817845483335
  20    -2.2925177950924e-05
  21    -9.9466880666825e-06
  22    6.5682623989942e-05
  23    -0.0014188471973991
  24    -4.7476438400435e-05
  25    -0.0002959820312751
  26    -4.1600034619532e-05
  27    3.0090887333917e-05
  28    -7.9273683749603e-06
  29    -2.9983504055537e-05
  30    -2.9127382310361e-05
  31    -5.6684452201775e-05
  32    -0.00031986921255198
  33    -5.0612290435305e-05
  34    -0.00042076750513699
  35    0.0053963009935538
  36    7.8185925579619e-05
  37    1.9792809684428e-05
  38    -8.2101546279303e-05
  39    0.0024375202777476
  40    -0.00097006142824331
  41     0.001098476996336
  42    -2.4883811991025e-05
  43    -6.9030737812003e-05
  44    -3.8655404069402e-05
  45    0.00014492432738886
  46    -4.550696263969e-05
  47    4.3644730641735e-05
  48    0.00047693716159703
  49    -3.0504746868061e-05
  50    -4.1142350299451e-05
  51    -0.0041887582965447
  52    -0.00033351102937891
  53    8.3898697865084e-05
  54    1.2062073932235e-05
  55     0.004436307464461
  56    -0.00085200690316065
  57    -0.00038544405852293
  58    0.00019778971093516
  59    -9.4754086847792e-06
  60    -0.00013557056046058
  61    -0.00012016547002967
  62    5.1377501093316e-05
  63    -0.00025649043837882
  64    -0.00018277644633877
  65    -1.9009305683264e-07
  66    1.3707042804837e-06
  67    -5.9665965398435e-08
  68    -6.0885115696048e-07
  69    -1.2277878237136e-06
  70    2.4629561129972e-07
  71    -5.6319120725529e-07
  72    9.262250082816e-08
  73    1.8823340349217e-06
  74    1.8353112458248e-06
  75    -6.3964930717238e-07
  76    2.8516046763996e-07
  77    2.1353372400344e-07
  78    4.7401119613328e-08
  79    1.3176425150586e-07
  80    2.1760547594244e-07
  81    2.4064430702317e-07
  82    1.5889168710008e-06
  83    2.354940359278e-07
  84    2.2777344292164e-06
  85    8.2758375964411e-06
  86    -5.2158058478431e-08
  87    1.0498143230957e-06
  88    -3.2065887310825e-07
  89    1.5465040890855e-06
  90    -7.8604750162103e-06
  91    -5.5074776823383e-06
  92    -1.9312676415866e-07
  93    -7.660677806398e-08
  94    5.4736674157094e-07
  95    -3.9781718939512e-07
  96    1.9448541445974e-07
  97    1.3751406008801e-06
  98    2.3380644673293e-06
  99    -1.1347333036343e-06
 100    -2.5819731904086e-06
 101    -8.2013908025192e-07
 102    -2.6924885138491e-06
 103    7.1580742347619e-05
 104    -3.5204184162147e-06
 105    -1.3773262011351e-06
 106    -8.8666432607559e-07
 107    -1.2641247611929e-05
 108    1.3660321427725e-05
 109    -4.6084761893757e-05
 110    6.7219922461849e-07
 111    1.5820938770337e-06
 112    -6.3248068713202e-07
 113    1.2330907942245e-07
 114    -7.026002851595e-07
 115    2.4306667759741e-07
 116    3.5853233305675e-06
 117    -2.3721858722068e-05
 118    1.6601252492511e-07
 119    1.2484416365848e-06
 120    -2.5084862469257e-06
 121    1.2435645725331e-05
 122    -1.6300319659195e-05
 123    2.7345978128187e-07
 124    6.9881952972759e-07
 125    2.0156521067187e-08
 126    -9.6458935159606e-07
 127    -5.1343781505199e-07
 128    3.8494494730918e-07
 129    8.5486470520925e-07
 130    7.3485655108991e-06
 131    -4.9052080670273e-05
 132    3.1001675995488e-06
 133    -3.4524964578844e-06
 134    -4.2344462818821e-06
 135    -7.919993573808e-05
 136    1.7908736132421e-05
 137    7.9267794291541e-05
 138    -2.6897462360099e-06
 139    -6.9375704581162e-07
 140    2.0036600014666e-06
 141    -3.5979795270792e-07
 142    2.1299301134258e-06
 143    9.7189791483185e-07
 144    4.3696012120399e-06
 145    -7.0366354065732e-05
 146    -2.1382179370916e-07
 147    6.7001252000392e-07
 148    5.1932873822295e-06
 149    -3.5331342902976e-05
 150    2.9423484019161e-05
 151    -1.0987406471405e-05
 152    -4.7160757783092e-08
 153    3.3914732219681e-07
 154    -1.4052974475482e-06
 155    -8.1322754963299e-07
 156    3.4726199135516e-07
 157    5.386786142788e-07
 158    4.3168483523104e-06
 159    -2.3831045434408e-05
 160    6.4018022305949e-07
 161    1.5540678707609e-07
 162    -5.0502209664998e-08
 163    -1.8892389863727e-06
 164    9.1832065254765e-06
 165    3.1228448174243e-06
 166    3.1046221411239e-07
 167    2.2327574708148e-07
 168    -7.2572734230415e-08
 169    6.6614347738717e-07
 170     2.53201918533e-08
 171    2.4683639293871e-08
 172    -5.5119371245408e-07
 173    -3.4694287308299e-07
 174    -8.8550104851991e-07
 175    -1.7549761051468e-08
 176    1.3299365284092e-06
 177    1.2361082548772e-05
 178    -1.7548247851192e-06
 179    2.2024174944353e-06
 180    -1.4195510870136e-07
 181    1.2088385129994e-06
 182    -2.0089370814551e-07
 183    9.5867142995485e-07
 184    8.0697157185131e-07
 185    -5.6405513904603e-07
 186    -2.6208469595509e-06
 187    3.0478006825831e-05
 188    -1.0106572054806e-06
 189    -4.0354125079322e-07
 190    -2.3718826428931e-06
 191    -3.8094226435835e-06
 192    -6.4545404286613e-06
 193    -1.2499085357258e-05
 194    6.2302166681907e-07
 195    8.8369969529174e-07
 196    7.4278684206448e-07
 197    -5.8537972931835e-07
 198    5.0538015237325e-07
 199    -1.1598657444861e-06
 200    1.0736923642648e-06
 201    -9.2465772971408e-07
 202    -2.5563877731292e-06
 203    -1.1784503936439e-06
 204    -6.8620290240879e-06
 205    2.8897447541106e-06
 206    6.4530301420873e-07
 207    3.0248113870588e-06
 208    -1.3288783579672e-06
 209    1.1430297699507e-06
 210    4.818282075353e-06
 211    8.9192927415997e-07
 212    1.2934529976351e-06
 213    7.526424619489e-07
 214    -2.5403437714127e-06
 215    -2.5592523973921e-06
 216    1.3999438459894e-05
 217    8.7773273636581e-07
 218    2.5187076372451e-06
 219    -1.2241730235789e-07
 220    -3.6228210926322e-06
 221    -3.059448977657e-06
 222    -2.3885287840464e-05
 223    0.00034905398878131
 224    -1.2816399293324e-06
 225    1.0053938406296e-05
 226    -4.5787214617946e-06
 227    0.00010624190009955
 228    3.488545835004e-05
 229    -0.00012048461448507
 230    7.252230245783e-06
 231    -4.2620742502294e-06
 232    -6.1620879124263e-06
 233    1.9389792840172e-06
 234    2.0398454439455e-06
 235    1.0023338907796e-05
 236    4.5445695485229e-05
 237    -0.00048544294452631
 238    -1.1779818542405e-05
 239    7.0268694151482e-06
 240    -5.8029078623059e-06
 241    0.00020630602453409
 242    7.0646377431947e-05
 243    -6.2111916956377e-05
 244    -8.1501263376355e-06
 245    4.7479543785594e-06
 246    6.4701940307454e-06
 247    -7.4833543620792e-07
 248    3.2280100263905e-07
 249    -7.8621605398878e-07
 250    -9.7973577004111e-06
 251    1.4342523767328e-05
 252    7.1114791219073e-06
 253    0.00030753064787992
 254    1.1233796099272e-05
 255    6.4779194275462e-06
 256    8.9240175687864e-06
 257    0.00020670297365211
 258    6.5798042191902e-05
 259    0.00028659736214534
 260    2.3126582663848e-06
 261    6.5669796895523e-06
 262    -4.2100654748607e-06
 263    -4.1405254397933e-06
 264    7.0857112694341e-06
 265    -1.0638636079899e-05
 266    -1.0894445893486e-05
 267    7.2209026777871e-06
 268    5.5124270949943e-05
 269    -0.00025903678126017
 270    -8.4106030038706e-05
 271    -0.0035181432055358
 272    -0.00051927732738875
 273    0.00014818051354474
 274    -5.1162463578369e-05
 275    -0.0029236338215298
 276    -0.00087772424973798
 277    0.0031183658919463
 278    0.00010692529776053
 279    0.00034201228629618