[Molden Format]
made by pyscf v[2.0.1]
[Atoms] (AU)
C   1   6     0.69100024066471     0.64692934207205    -3.48223131169301
H   2   1     2.68052439830868     1.13355088658700    -3.25784032593313
C   3   6    -0.36286361513219     0.85440132524594    -5.97030179418974
H   4   1    -2.35448549047279     0.36322488579172    -6.17995817793143
C   5   6     0.93697958957450     1.61209284601821    -8.05828437677121
H   6   1     1.25179717896080     3.62344259528190    -8.36861463213972
C   7   6     1.93299030663405    -0.10622024085708    -9.90534865945394
H   8   1     1.60367989661651    -2.11561190296467    -9.56827000221191
H   9   1     1.55630230933075    -1.92953025305990    12.99630010416247
C   10   6     0.75233899775814    -2.21270439606481    11.10705728102219
H   11   1    -0.43433408177274    -3.90944857546550    11.22216085340412
C   12   6     2.86362581178706    -2.63237380607947     9.17926416456045
H   13   1     4.39038949912609    -1.24955421540245     9.49899813497433
H   14   1     3.74629220191363    -4.48798724300892     9.47414880959024
C   15   6     2.02478325613682    -2.42177285709634     6.44560829588644
C   16   6     3.88048732735477    -3.58795445234514     4.61402886975252
C   17   6    -0.18412382258602    -1.30464291234259     5.76021113872346
C   18   6    -2.10044360464350    -0.26837831858460     7.71610340967100
C   19   6    -3.08956938670431     2.35282328359417     6.88693925039594
C   20   6    -4.37372924086464    -2.09766595989678     7.93610724222001
C   21   6    -0.83850430601230     0.06372213486173    10.33002307638377
H   22   1     0.38411922151109     1.74281358582432    10.27380136542181
H   23   1    -2.30980003007874     0.45460143924521    11.73986301809809
H   24   1     4.58527064644668    -5.38706904487420     5.36778158031719
H   25   1     5.54944938085014    -2.37631462192748     4.35398898413318
H   26   1     3.06633019150423    -3.94118377050688     2.75255466040884
H   27   1    -4.17727778763735     2.26573369139522     5.12914900961283
H   28   1    -1.52662344944051     3.68001877445626     6.59540397144508
H   29   1    -4.32916174397830     3.13643051467482     8.35225460090378
H   30   1    -5.32329548508442    -2.36691813602939     6.11583672749896
H   31   1    -5.77989366602257    -1.33896741843465     9.25748940450990
H   32   1    -3.79310905208926    -3.96389819310853     8.61386170102686
C   33   6    -1.01100794811226    -1.06331657314144     3.11929490449947
C   34   6     0.37686231036534    -0.33275864505552     1.09165013605873
H   35   1    -3.01671213906703    -1.40297922279997     2.77827895090944
C   36   6    -0.64382707979370    -0.11591880174385    -1.42063131251064
H   37   1     2.35569259782137     0.17174499283897     1.33641070251401
H   38   1    -2.63317482980319    -0.60229203511219    -1.66119700387645
C   39   6     3.23483881481583     0.56109494848388   -12.01167590238676
C   40   6     4.17213386166354    -1.33546547775814   -13.78129708499957
H   41   1     3.62751071831436     2.52907164005278   -12.45960989181140
O   42   8     5.35190984410731    -0.86987395658954   -15.70799822813352
H   43   1     3.72751838268070    -3.32497850208065   -13.24806737881206
[GTO]
1 0
 s    6 1.00
             3047.5249  0.0018347001629433
             457.36951    0.01403730124668
             103.94869   0.068842606114048
             29.210155    0.23218442062076
              9.286663    0.46794134155879
              3.163927    0.36231203217765
 s    3 1.00
             7.8682724   -0.11933240861517
             1.8812885   -0.16085421161283
             0.5442493     1.1434564825515
 s    1 1.00
             0.1687144                   1
 p    3 1.00
             7.8682724   0.068999095584993
             1.8812885    0.31642397975315
             0.5442493    0.74430825237435
 p    1 1.00
             0.1687144                   1
 d    1 1.00
                   0.8                   1

2 0
 s    3 1.00
             18.731137    0.03349459952309
             2.8253937    0.23472694665786
             0.6401217    0.81375731841339
 s    1 1.00
             0.1612778                   1

3 0
 s    6 1.00
             3047.5249  0.0018347001629433
             457.36951    0.01403730124668
             103.94869   0.068842606114048
             29.210155    0.23218442062076
              9.286663    0.46794134155879
              3.163927    0.36231203217765
 s    3 1.00
             7.8682724   -0.11933240861517
             1.8812885   -0.16085421161283
             0.5442493     1.1434564825515
 s    1 1.00
             0.1687144                   1
 p    3 1.00
             7.8682724   0.068999095584993
             1.8812885    0.31642397975315
             0.5442493    0.74430825237435
 p    1 1.00
             0.1687144                   1
 d    1 1.00
                   0.8                   1

4 0
 s    3 1.00
             18.731137    0.03349459952309
             2.8253937    0.23472694665786
             0.6401217    0.81375731841339
 s    1 1.00
             0.1612778                   1

5 0
 s    6 1.00
             3047.5249  0.0018347001629433
             457.36951    0.01403730124668
             103.94869   0.068842606114048
             29.210155    0.23218442062076
              9.286663    0.46794134155879
              3.163927    0.36231203217765
 s    3 1.00
             7.8682724   -0.11933240861517
             1.8812885   -0.16085421161283
             0.5442493     1.1434564825515
 s    1 1.00
             0.1687144                   1
 p    3 1.00
             7.8682724   0.068999095584993
             1.8812885    0.31642397975315
             0.5442493    0.74430825237435
 p    1 1.00
             0.1687144                   1
 d    1 1.00
                   0.8                   1

6 0
 s    3 1.00
             18.731137    0.03349459952309
             2.8253937    0.23472694665786
             0.6401217    0.81375731841339
 s    1 1.00
             0.1612778                   1

7 0
 s    6 1.00
             3047.5249  0.0018347001629433
             457.36951    0.01403730124668
             103.94869   0.068842606114048
             29.210155    0.23218442062076
              9.286663    0.46794134155879
              3.163927    0.36231203217765
 s    3 1.00
             7.8682724   -0.11933240861517
             1.8812885   -0.16085421161283
             0.5442493     1.1434564825515
 s    1 1.00
             0.1687144                   1
 p    3 1.00
             7.8682724   0.068999095584993
             1.8812885    0.31642397975315
             0.5442493    0.74430825237435
 p    1 1.00
             0.1687144                   1
 d    1 1.00
                   0.8                   1

8 0
 s    3 1.00
             18.731137    0.03349459952309
             2.8253937    0.23472694665786
             0.6401217    0.81375731841339
 s    1 1.00
             0.1612778                   1

9 0
 s    3 1.00
             18.731137    0.03349459952309
             2.8253937    0.23472694665786
             0.6401217    0.81375731841339
 s    1 1.00
             0.1612778                   1

10 0
 s    6 1.00
             3047.5249  0.0018347001629433
             457.36951    0.01403730124668
             103.94869   0.068842606114048
             29.210155    0.23218442062076
              9.286663    0.46794134155879
              3.163927    0.36231203217765
 s    3 1.00
             7.8682724   -0.11933240861517
             1.8812885   -0.16085421161283
             0.5442493     1.1434564825515
 s    1 1.00
             0.1687144                   1
 p    3 1.00
             7.8682724   0.068999095584993
             1.8812885    0.31642397975315
             0.5442493    0.74430825237435
 p    1 1.00
             0.1687144                   1
 d    1 1.00
                   0.8                   1

11 0
 s    3 1.00
             18.731137    0.03349459952309
             2.8253937    0.23472694665786
             0.6401217    0.81375731841339
 s    1 1.00
             0.1612778                   1

12 0
 s    6 1.00
             3047.5249  0.0018347001629433
             457.36951    0.01403730124668
             103.94869   0.068842606114048
             29.210155    0.23218442062076
              9.286663    0.46794134155879
              3.163927    0.36231203217765
 s    3 1.00
             7.8682724   -0.11933240861517
             1.8812885   -0.16085421161283
             0.5442493     1.1434564825515
 s    1 1.00
             0.1687144                   1
 p    3 1.00
             7.8682724   0.068999095584993
             1.8812885    0.31642397975315
             0.5442493    0.74430825237435
 p    1 1.00
             0.1687144                   1
 d    1 1.00
                   0.8                   1

13 0
 s    3 1.00
             18.731137    0.03349459952309
             2.8253937    0.23472694665786
             0.6401217    0.81375731841339
 s    1 1.00
             0.1612778                   1

14 0
 s    3 1.00
             18.731137    0.03349459952309
             2.8253937    0.23472694665786
             0.6401217    0.81375731841339
 s    1 1.00
             0.1612778                   1

15 0
 s    6 1.00
             3047.5249  0.0018347001629433
             457.36951    0.01403730124668
             103.94869   0.068842606114048
             29.210155    0.23218442062076
              9.286663    0.46794134155879
              3.163927    0.36231203217765
 s    3 1.00
             7.8682724   -0.11933240861517
             1.8812885   -0.16085421161283
             0.5442493     1.1434564825515
 s    1 1.00
             0.1687144                   1
 p    3 1.00
             7.8682724   0.068999095584993
             1.8812885    0.31642397975315
             0.5442493    0.74430825237435
 p    1 1.00
             0.1687144                   1
 d    1 1.00
                   0.8                   1

16 0
 s    6 1.00
             3047.5249  0.0018347001629433
             457.36951    0.01403730124668
             103.94869   0.068842606114048
             29.210155    0.23218442062076
              9.286663    0.46794134155879
              3.163927    0.36231203217765
 s    3 1.00
             7.8682724   -0.11933240861517
             1.8812885   -0.16085421161283
             0.5442493     1.1434564825515
 s    1 1.00
             0.1687144                   1
 p    3 1.00
             7.8682724   0.068999095584993
             1.8812885    0.31642397975315
             0.5442493    0.74430825237435
 p    1 1.00
             0.1687144                   1
 d    1 1.00
                   0.8                   1

17 0
 s    6 1.00
             3047.5249  0.0018347001629433
             457.36951    0.01403730124668
             103.94869   0.068842606114048
             29.210155    0.23218442062076
              9.286663    0.46794134155879
              3.163927    0.36231203217765
 s    3 1.00
             7.8682724   -0.11933240861517
             1.8812885   -0.16085421161283
             0.5442493     1.1434564825515
 s    1 1.00
             0.1687144                   1
 p    3 1.00
             7.8682724   0.068999095584993
             1.8812885    0.31642397975315
             0.5442493    0.74430825237435
 p    1 1.00
             0.1687144                   1
 d    1 1.00
                   0.8                   1

18 0
 s    6 1.00
             3047.5249  0.0018347001629433
             457.36951    0.01403730124668
             103.94869   0.068842606114048
             29.210155    0.23218442062076
              9.286663    0.46794134155879
              3.163927    0.36231203217765
 s    3 1.00
             7.8682724   -0.11933240861517
             1.8812885   -0.16085421161283
             0.5442493     1.1434564825515
 s    1 1.00
             0.1687144                   1
 p    3 1.00
             7.8682724   0.068999095584993
             1.8812885    0.31642397975315
             0.5442493    0.74430825237435
 p    1 1.00
             0.1687144                   1
 d    1 1.00
                   0.8                   1

19 0
 s    6 1.00
             3047.5249  0.0018347001629433
             457.36951    0.01403730124668
             103.94869   0.068842606114048
             29.210155    0.23218442062076
              9.286663    0.46794134155879
              3.163927    0.36231203217765
 s    3 1.00
             7.8682724   -0.11933240861517
             1.8812885   -0.16085421161283
             0.5442493     1.1434564825515
 s    1 1.00
             0.1687144                   1
 p    3 1.00
             7.8682724   0.068999095584993
             1.8812885    0.31642397975315
             0.5442493    0.74430825237435
 p    1 1.00
             0.1687144                   1
 d    1 1.00
                   0.8                   1

20 0
 s    6 1.00
             3047.5249  0.0018347001629433
             457.36951    0.01403730124668
             103.94869   0.068842606114048
             29.210155    0.23218442062076
              9.286663    0.46794134155879
              3.163927    0.36231203217765
 s    3 1.00
             7.8682724   -0.11933240861517
             1.8812885   -0.16085421161283
             0.5442493     1.1434564825515
 s    1 1.00
             0.1687144                   1
 p    3 1.00
             7.8682724   0.068999095584993
             1.8812885    0.31642397975315
             0.5442493    0.74430825237435
 p    1 1.00
             0.1687144                   1
 d    1 1.00
                   0.8                   1

21 0
 s    6 1.00
             3047.5249  0.0018347001629433
             457.36951    0.01403730124668
             103.94869   0.068842606114048
             29.210155    0.23218442062076
              9.286663    0.46794134155879
              3.163927    0.36231203217765
 s    3 1.00
             7.8682724   -0.11933240861517
             1.8812885   -0.16085421161283
             0.5442493     1.1434564825515
 s    1 1.00
             0.1687144                   1
 p    3 1.00
             7.8682724   0.068999095584993
             1.8812885    0.31642397975315
             0.5442493    0.74430825237435
 p    1 1.00
             0.1687144                   1
 d    1 1.00
                   0.8                   1

22 0
 s    3 1.00
             18.731137    0.03349459952309
             2.8253937    0.23472694665786
             0.6401217    0.81375731841339
 s    1 1.00
             0.1612778                   1

23 0
 s    3 1.00
             18.731137    0.03349459952309
             2.8253937    0.23472694665786
             0.6401217    0.81375731841339
 s    1 1.00
             0.1612778                   1

24 0
 s    3 1.00
             18.731137    0.03349459952309
             2.8253937    0.23472694665786
             0.6401217    0.81375731841339
 s    1 1.00
             0.1612778                   1

25 0
 s    3 1.00
             18.731137    0.03349459952309
             2.8253937    0.23472694665786
             0.6401217    0.81375731841339
 s    1 1.00
             0.1612778                   1

26 0
 s    3 1.00
             18.731137    0.03349459952309
             2.8253937    0.23472694665786
             0.6401217    0.81375731841339
 s    1 1.00
             0.1612778                   1

27 0
 s    3 1.00
             18.731137    0.03349459952309
             2.8253937    0.23472694665786
             0.6401217    0.81375731841339
 s    1 1.00
             0.1612778                   1

28 0
 s    3 1.00
             18.731137    0.03349459952309
             2.8253937    0.23472694665786
             0.6401217    0.81375731841339
 s    1 1.00
             0.1612778                   1

29 0
 s    3 1.00
             18.731137    0.03349459952309
             2.8253937    0.23472694665786
             0.6401217    0.81375731841339
 s    1 1.00
             0.1612778                   1

30 0
 s    3 1.00
             18.731137    0.03349459952309
             2.8253937    0.23472694665786
             0.6401217    0.81375731841339
 s    1 1.00
             0.1612778                   1

31 0
 s    3 1.00
             18.731137    0.03349459952309
             2.8253937    0.23472694665786
             0.6401217    0.81375731841339
 s    1 1.00
             0.1612778                   1

32 0
 s    3 1.00
             18.731137    0.03349459952309
             2.8253937    0.23472694665786
             0.6401217    0.81375731841339
 s    1 1.00
             0.1612778                   1

33 0
 s    6 1.00
             3047.5249  0.0018347001629433
             457.36951    0.01403730124668
             103.94869   0.068842606114048
             29.210155    0.23218442062076
              9.286663    0.46794134155879
              3.163927    0.36231203217765
 s    3 1.00
             7.8682724   -0.11933240861517
             1.8812885   -0.16085421161283
             0.5442493     1.1434564825515
 s    1 1.00
             0.1687144                   1
 p    3 1.00
             7.8682724   0.068999095584993
             1.8812885    0.31642397975315
             0.5442493    0.74430825237435
 p    1 1.00
             0.1687144                   1
 d    1 1.00
                   0.8                   1

34 0
 s    6 1.00
             3047.5249  0.0018347001629433
             457.36951    0.01403730124668
             103.94869   0.068842606114048
             29.210155    0.23218442062076
              9.286663    0.46794134155879
              3.163927    0.36231203217765
 s    3 1.00
             7.8682724   -0.11933240861517
             1.8812885   -0.16085421161283
             0.5442493     1.1434564825515
 s    1 1.00
             0.1687144                   1
 p    3 1.00
             7.8682724   0.068999095584993
             1.8812885    0.31642397975315
             0.5442493    0.74430825237435
 p    1 1.00
             0.1687144                   1
 d    1 1.00
                   0.8                   1

35 0
 s    3 1.00
             18.731137    0.03349459952309
             2.8253937    0.23472694665786
             0.6401217    0.81375731841339
 s    1 1.00
             0.1612778                   1

36 0
 s    6 1.00
             3047.5249  0.0018347001629433
             457.36951    0.01403730124668
             103.94869   0.068842606114048
             29.210155    0.23218442062076
              9.286663    0.46794134155879
              3.163927    0.36231203217765
 s    3 1.00
             7.8682724   -0.11933240861517
             1.8812885   -0.16085421161283
             0.5442493     1.1434564825515
 s    1 1.00
             0.1687144                   1
 p    3 1.00
             7.8682724   0.068999095584993
             1.8812885    0.31642397975315
             0.5442493    0.74430825237435
 p    1 1.00
             0.1687144                   1
 d    1 1.00
                   0.8                   1

37 0
 s    3 1.00
             18.731137    0.03349459952309
             2.8253937    0.23472694665786
             0.6401217    0.81375731841339
 s    1 1.00
             0.1612778                   1

38 0
 s    3 1.00
             18.731137    0.03349459952309
             2.8253937    0.23472694665786
             0.6401217    0.81375731841339
 s    1 1.00
             0.1612778                   1

39 0
 s    6 1.00
             3047.5249  0.0018347001629433
             457.36951    0.01403730124668
             103.94869   0.068842606114048
             29.210155    0.23218442062076
              9.286663    0.46794134155879
              3.163927    0.36231203217765
 s    3 1.00
             7.8682724   -0.11933240861517
             1.8812885   -0.16085421161283
             0.5442493     1.1434564825515
 s    1 1.00
             0.1687144                   1
 p    3 1.00
             7.8682724   0.068999095584993
             1.8812885    0.31642397975315
             0.5442493    0.74430825237435
 p    1 1.00
             0.1687144                   1
 d    1 1.00
                   0.8                   1

40 0
 s    6 1.00
             3047.5249  0.0018347001629433
             457.36951    0.01403730124668
             103.94869   0.068842606114048
             29.210155    0.23218442062076
              9.286663    0.46794134155879
              3.163927    0.36231203217765
 s    3 1.00
             7.8682724   -0.11933240861517
             1.8812885   -0.16085421161283
             0.5442493     1.1434564825515
 s    1 1.00
             0.1687144                   1
 p    3 1.00
             7.8682724   0.068999095584993
             1.8812885    0.31642397975315
             0.5442493    0.74430825237435
 p    1 1.00
             0.1687144                   1
 d    1 1.00
                   0.8                   1

41 0
 s    3 1.00
             18.731137    0.03349459952309
             2.8253937    0.23472694665786
             0.6401217    0.81375731841339
 s    1 1.00
             0.1612778                   1

42 0
 s    6 1.00
             5484.6717   0.001831099805527
             825.23495   0.013950098518422
             188.04696    0.06844509273075
               52.9645    0.23271427528445
              16.89757    0.47019295006289
             5.7996353    0.35852086192309
 s    3 1.00
             15.539616   -0.11077750382508
             3.5999336   -0.14802630511126
             1.0137618     1.1307670390447
 s    1 1.00
             0.2700058                   1
 p    3 1.00
             15.539616   0.070874299543311
             3.5999336    0.33975279781076
             1.0137618    0.72715859531445
 p    1 1.00
             0.2700058                   1
 d    1 1.00
                   0.8                   1

43 0
 s    3 1.00
             18.731137    0.03349459952309
             2.8253937    0.23472694665786
             0.6401217    0.81375731841339
 s    1 1.00
             0.1612778                   1

[5d]
[7f]
[9g]

[MO]
 Sym= A
 Ene=               0
 Spin= Alpha
 Occup=    1.00000
   1    -2.4044219718546e-06
   2    -2.1989106539835e-05
   3    7.8167586251031e-05
   4    -9.7167677615292e-06
   5    1.5077918336424e-05
   6    7.6695862523513e-06
   7    -5.6896344054959e-06
   8    6.3779465677476e-05
   9    -0.00036243395642957
  10    -3.5627141860638e-07
  11    1.2177049700349e-05
  12    3.8993554747393e-06
  13    1.4507110053657e-05
  14    -7.9118911737166e-06
  15    -1.3574067180746e-05
  16    2.4758870920646e-05
  17    1.001906626501e-05
  18    0.0001583840570284
  19    0.0004472951079858
  20    4.964557444558e-05
  21    -2.4613334475704e-05
  22    -6.329800149953e-05
  23    0.00014903015142458
  24    -8.6344219304409e-05
  25    -0.00067737405674428
  26    2.5480005798926e-05
  27    -2.441948405977e-05
  28    7.2452456383757e-06
  29     4.55502760359e-05
  30    -1.088774905741e-05
  31    -1.1239440444548e-05
  32    2.125860923235e-05
  33    4.3051302991842e-05
  34    0.00038812957900873
  35    -0.0045767283389486
  36    -8.0203215075774e-05
  37    4.200316236656e-06
  38    0.00012456464016139
  39    -0.00025943786630564
  40    0.0019899535242067
  41    0.00068246438026834
  42    -4.5317613279725e-05
  43    0.00010832040739061
  44    -8.5376998518134e-05
  45    3.8337148752917e-05
  46    3.8313781611088e-05
  47    -9.9444481928585e-06
  48    -0.00028476760128071
  49    3.4583214387265e-05
  50    6.4425944588088e-05
  51    0.0036522041516751
  52    0.00011414943869117
  53    -0.00024632299169656
  54    -0.00021650321908822
  55    -0.0013961800482264
  56     0.002722121594168
  57    0.0026285928892116
  58    6.6194824596869e-07
  59    4.6966543557749e-05
  60    0.00021075649164566
  61    2.1372409173663e-05
  62    -0.00013278321522934
  63    0.00027606171911275
  64    5.7780683991036e-05
  65    -1.2538731457034e-07
  66    -1.0783841599018e-08
  67    -1.7101617382337e-09
  68    -7.3561054563506e-07
  69    3.2757502908694e-06
  70    -1.9258052201317e-07
  71    -1.3858434126635e-07
  72    4.1444368763723e-07
  73    -1.5752224256279e-07
  74    2.2429871793586e-06
  75    3.4283354869928e-09
  76    -4.8462528261596e-08
  77    -1.0006117542307e-07
  78    3.542952268604e-08
  79    9.0819792918759e-08
  80    -7.2729568225786e-08
  81    1.7286040686648e-07
  82    5.5357527816073e-07
  83    6.3342135114256e-08
  84    -1.6735529419317e-07
  85    -1.3140396147007e-05
  86    1.1939172848153e-06
  87    6.1749701171829e-07
  88    8.1396884644995e-07
  89    3.7935622842441e-06
  90    -4.9845471089504e-06
  91    3.076750762312e-06
  92    1.2277572447329e-07
  93    -1.8142371766691e-07
  94    4.4467223028191e-07
  95    7.3999108746135e-08
  96    -5.2391740208343e-08
  97    1.5430919868322e-06
  98    2.3398580313139e-06
  99    -4.9330753262563e-07
 100    -1.9630026454329e-06
 101    -2.3160093293847e-07
 102    -8.9287473682379e-07
 103    1.7044201993184e-05
 104    -2.1435414205839e-06
 105    -3.8154046989246e-06
 106    -4.6885667349189e-07
 107    -2.0100875493287e-05
 108    1.4619143710799e-05
 109    2.792430642297e-05
 110    -5.8983089089847e-07
 111    -4.8994756263482e-07
 112    2.4797797446501e-07
 113    5.5911547767578e-07
 114    -3.8298238902693e-07
 115    -4.5717423523081e-07
 116    -4.7987040627591e-06
 117    3.6010402372902e-05
 118    -5.3014135509312e-07
 119    1.2613162339637e-06
 120    4.3867531080053e-07
 121    -7.6121043868084e-06
 122    5.2868792678152e-09
 123    5.3456997138346e-07
 124    -5.4583078028059e-08
 125    -2.1562145265133e-07
 126    -2.4328684808767e-07
 127    1.3023276573824e-07
 128    -2.2969521084897e-07
 129    -9.8182771088273e-07
 130    -8.6604274548128e-06
 131    4.5877227886233e-05
 132    -9.2150699316837e-07
 133    -3.27370523047e-06
 134    3.4012813084105e-06
 135    -2.5475181968904e-05
 136    1.7683546152539e-06
 137    -7.4691036742685e-05
 138    2.2131451927731e-06
 139    1.525338172018e-06
 140    9.8018885133776e-08
 141    3.0889369253378e-07
 142    -1.3744878620207e-08
 143    -1.6382001586801e-07
 144    -3.4202859417452e-06
 145    1.4097531239326e-05
 146    -3.4250907023811e-08
 147    1.3712215630812e-06
 148    1.1199541569957e-06
 149    9.0607611568588e-06
 150    -7.8111751268737e-06
 151    -7.7240396674268e-07
 152    -9.7607631767815e-07
 153    -2.7769599294683e-07
 154    -1.9543972699172e-08
 155    6.2949740915877e-07
 156    -6.7688199915367e-07
 157    8.335272620724e-08
 158    6.9982686340945e-07
 159    2.095388113946e-06
 160    1.0605534318238e-06
 161    -5.0155946064816e-07
 162    4.9577762723202e-07
 163    -4.9012370626941e-06
 164    -8.367518683261e-07
 165    1.0219218038092e-06
 166    3.9151079838278e-07
 167    -8.5426853909993e-08
 168    -1.4690158910443e-08
 169    -1.3292359776326e-07
 170    2.355552814572e-07
 171    1.7529991590241e-07
 172    -6.6875667280059e-07
 173    -3.24080979744e-06
 174    -1.1675970655751e-06
 175    -2.7643290998786e-07
 176    9.1509201397149e-07
 177    -8.2748330390689e-07
 178    1.0839904741621e-06
 179    -2.086833331367e-06
 180    1.7939935154143e-07
 181    1.8430977028728e-07
 182    1.1973512990694e-09
 183    -3.940504348152e-07
 184    1.383480660938e-07
 185    -3.6377320928356e-07
 186    -2.6902487395395e-06
 187    2.547719972861e-06
 188    -2.5931180958178e-07
 189    7.5381878070378e-08
 190    4.1550594789519e-07
 191    1.9520935449544e-06
 192    1.5553153795248e-06
 193    -6.2373007353342e-06
 194    3.4826602923472e-07
 195    9.3340533344325e-09
 196    6.3420161523743e-08
 197    5.1047571653504e-08
 198    -7.8238648660513e-08
 199    -6.6101955943579e-07
 200    -1.3977929151414e-06
 201    -3.2688485569266e-07
 202    2.4035448348236e-06
 203    -2.2086561639021e-06
 204    -2.7972596598119e-06
 205    1.6101855173377e-07
 206    -1.1842145963894e-06
 207    1.6035191432885e-06
 208    -1.5098767544789e-05
 209    7.8027585115069e-07
 210    -3.6861016075533e-06
 211    3.0757409076696e-07
 212    2.6871227477319e-06
 213    -2.1331616029057e-07
 214    -1.9777864960168e-06
 215    -4.3647527514584e-07
 216    5.6775194237921e-07
 217    4.4012025227671e-07
 218    1.1551575459619e-06
 219    1.8557338709664e-07
 220    1.4136977207209e-06
 221    2.8647504267465e-07
 222    -1.0216207565406e-05
 223    -5.7055916373748e-06
 224    -3.060651425723e-06
 225    2.7539327838608e-06
 226    5.9257547805978e-06
 227    1.5030207829929e-05
 228    2.7319866967083e-05
 229    -8.3483025071618e-05
 230    -1.1372325548409e-06
 231    -3.8262192548343e-06
 232    -2.2961764108402e-06
 233    1.6848441659494e-06
 234    2.9404113407838e-06
 235    1.2809852062547e-06
 236    3.9202034988709e-07
 237    5.9607804132808e-05
 238    5.0203046276715e-06
 239    1.169145593959e-05
 240    -4.4363606464286e-06
 241    -2.1557987000452e-05
 242    -6.8972957896472e-06
 243    -0.00010663314131254
 244    2.5107796829548e-06
 245    7.2902631354451e-06
 246    2.4464954028498e-06
 247    3.1822033678351e-06
 248    2.3201493867252e-06
 249    -2.9477940047252e-06
 250    1.2560201769345e-05
 251    -1.2931724954757e-05
 252    -2.810141323053e-05
 253    0.00018464688897009
 254    5.1948674498816e-06
 255    -7.5706520120465e-06
 256    2.1313899136096e-05
 257    8.3583348782192e-05
 258    0.00011326212646722
 259    -0.00022534356109916
 260    1.0884783574683e-06
 261    -1.0812621383998e-05
 262    -6.3717381188434e-06
 263    6.3948613529096e-06
 264    7.3467057601751e-06
 265    4.5439782946244e-06
 266    3.3177658994403e-05
 267    -1.1582504699436e-05
 268    3.5507300642679e-05
 269    0.00025821396977229
 270    8.6137228486407e-05
 271    0.0034292948965822
 272    0.00015536337407063
 273    -0.00043371297205301
 274    -0.00027691996698891
 275    0.0022226877970218
 276    0.0005605104077007
 277    -0.003650237908824
 278    0.00025765993162388
 279    -0.00020712041091062
 280    0.00016288136461148