[Molden Format]
made by pyscf v[2.0.1]
[Atoms] (AU)
C   1   6     0.69100024066471     0.64692934207205    -3.48223131169301
H   2   1     2.68052439830868     1.13355088658700    -3.25784032593313
C   3   6    -0.36286361513219     0.85440132524594    -5.97030179418974
H   4   1    -2.35448549047279     0.36322488579172    -6.17995817793143
C   5   6     0.93697958957450     1.61209284601821    -8.05828437677121
H   6   1     2.04771873455416     3.34419409619576    -7.97445952172335
C   7   6     0.93181860145248     0.24539724069794   -10.40101785795171
H   8   1    -0.18866463604211    -1.48700602985521   -10.45595821195799
H   9   1     1.55630230933075    -1.92953025305990    12.99630010416247
C   10   6     0.75233899775814    -2.21270439606481    11.10705728102219
H   11   1    -0.43433408177274    -3.90944857546550    11.22216085340412
C   12   6     2.86362581178706    -2.63237380607947     9.17926416456045
H   13   1     4.39038949912609    -1.24955421540245     9.49899813497433
H   14   1     3.74629220191363    -4.48798724300892     9.47414880959024
C   15   6     2.02478325613682    -2.42177285709634     6.44560829588644
C   16   6     3.88048732735477    -3.58795445234514     4.61402886975252
C   17   6    -0.18412382258602    -1.30464291234259     5.76021113872346
C   18   6    -2.10044360464350    -0.26837831858460     7.71610340967100
C   19   6    -3.08956938670431     2.35282328359417     6.88693925039594
C   20   6    -4.37372924086464    -2.09766595989678     7.93610724222001
C   21   6    -0.83850430601230     0.06372213486173    10.33002307638377
H   22   1     0.38411922151109     1.74281358582432    10.27380136542181
H   23   1    -2.30980003007874     0.45460143924521    11.73986301809809
H   24   1     4.58527064644668    -5.38706904487420     5.36778158031719
H   25   1     5.54944938085014    -2.37631462192748     4.35398898413318
H   26   1     3.06633019150423    -3.94118377050688     2.75255466040884
H   27   1    -4.17727778763735     2.26573369139522     5.12914900961283
H   28   1    -1.52662344944051     3.68001877445626     6.59540397144508
H   29   1    -4.32916174397830     3.13643051467482     8.35225460090378
H   30   1    -5.32329548508442    -2.36691813602939     6.11583672749896
H   31   1    -5.77989366602257    -1.33896741843465     9.25748940450990
H   32   1    -3.79310905208926    -3.96389819310853     8.61386170102686
C   33   6    -1.01100794811226    -1.06331657314144     3.11929490449947
C   34   6     0.37686231036534    -0.33275864505552     1.09165013605873
H   35   1    -3.01671213906703    -1.40297922279997     2.77827895090944
C   36   6    -0.64382707979370    -0.11591880174385    -1.42063131251064
H   37   1     2.35569259782137     0.17174499283897     1.33641070251401
H   38   1    -2.63317482980319    -0.60229203511219    -1.66119700387645
C   39   6     2.19331151370285     0.92821726401642   -12.52684146370420
C   40   6     2.06658501336205    -0.59430170292716   -14.82312084011087
H   41   1     3.34297492540252     2.63137484242591   -12.59961951178576
O   42   8     3.14891962090165    -0.09254461622574   -16.79735885819125
H   43   1     0.86886987612456    -2.32059369084518   -14.66320417409860
[GTO]
1 0
 s    6 1.00
             3047.5249  0.0018347001629433
             457.36951    0.01403730124668
             103.94869   0.068842606114048
             29.210155    0.23218442062076
              9.286663    0.46794134155879
              3.163927    0.36231203217765
 s    3 1.00
             7.8682724   -0.11933240861517
             1.8812885   -0.16085421161283
             0.5442493     1.1434564825515
 s    1 1.00
             0.1687144                   1
 p    3 1.00
             7.8682724   0.068999095584993
             1.8812885    0.31642397975315
             0.5442493    0.74430825237435
 p    1 1.00
             0.1687144                   1
 d    1 1.00
                   0.8                   1

2 0
 s    3 1.00
             18.731137    0.03349459952309
             2.8253937    0.23472694665786
             0.6401217    0.81375731841339
 s    1 1.00
             0.1612778                   1

3 0
 s    6 1.00
             3047.5249  0.0018347001629433
             457.36951    0.01403730124668
             103.94869   0.068842606114048
             29.210155    0.23218442062076
              9.286663    0.46794134155879
              3.163927    0.36231203217765
 s    3 1.00
             7.8682724   -0.11933240861517
             1.8812885   -0.16085421161283
             0.5442493     1.1434564825515
 s    1 1.00
             0.1687144                   1
 p    3 1.00
             7.8682724   0.068999095584993
             1.8812885    0.31642397975315
             0.5442493    0.74430825237435
 p    1 1.00
             0.1687144                   1
 d    1 1.00
                   0.8                   1

4 0
 s    3 1.00
             18.731137    0.03349459952309
             2.8253937    0.23472694665786
             0.6401217    0.81375731841339
 s    1 1.00
             0.1612778                   1

5 0
 s    6 1.00
             3047.5249  0.0018347001629433
             457.36951    0.01403730124668
             103.94869   0.068842606114048
             29.210155    0.23218442062076
              9.286663    0.46794134155879
              3.163927    0.36231203217765
 s    3 1.00
             7.8682724   -0.11933240861517
             1.8812885   -0.16085421161283
             0.5442493     1.1434564825515
 s    1 1.00
             0.1687144                   1
 p    3 1.00
             7.8682724   0.068999095584993
             1.8812885    0.31642397975315
             0.5442493    0.74430825237435
 p    1 1.00
             0.1687144                   1
 d    1 1.00
                   0.8                   1

6 0
 s    3 1.00
             18.731137    0.03349459952309
             2.8253937    0.23472694665786
             0.6401217    0.81375731841339
 s    1 1.00
             0.1612778                   1

7 0
 s    6 1.00
             3047.5249  0.0018347001629433
             457.36951    0.01403730124668
             103.94869   0.068842606114048
             29.210155    0.23218442062076
              9.286663    0.46794134155879
              3.163927    0.36231203217765
 s    3 1.00
             7.8682724   -0.11933240861517
             1.8812885   -0.16085421161283
             0.5442493     1.1434564825515
 s    1 1.00
             0.1687144                   1
 p    3 1.00
             7.8682724   0.068999095584993
             1.8812885    0.31642397975315
             0.5442493    0.74430825237435
 p    1 1.00
             0.1687144                   1
 d    1 1.00
                   0.8                   1

8 0
 s    3 1.00
             18.731137    0.03349459952309
             2.8253937    0.23472694665786
             0.6401217    0.81375731841339
 s    1 1.00
             0.1612778                   1

9 0
 s    3 1.00
             18.731137    0.03349459952309
             2.8253937    0.23472694665786
             0.6401217    0.81375731841339
 s    1 1.00
             0.1612778                   1

10 0
 s    6 1.00
             3047.5249  0.0018347001629433
             457.36951    0.01403730124668
             103.94869   0.068842606114048
             29.210155    0.23218442062076
              9.286663    0.46794134155879
              3.163927    0.36231203217765
 s    3 1.00
             7.8682724   -0.11933240861517
             1.8812885   -0.16085421161283
             0.5442493     1.1434564825515
 s    1 1.00
             0.1687144                   1
 p    3 1.00
             7.8682724   0.068999095584993
             1.8812885    0.31642397975315
             0.5442493    0.74430825237435
 p    1 1.00
             0.1687144                   1
 d    1 1.00
                   0.8                   1

11 0
 s    3 1.00
             18.731137    0.03349459952309
             2.8253937    0.23472694665786
             0.6401217    0.81375731841339
 s    1 1.00
             0.1612778                   1

12 0
 s    6 1.00
             3047.5249  0.0018347001629433
             457.36951    0.01403730124668
             103.94869   0.068842606114048
             29.210155    0.23218442062076
              9.286663    0.46794134155879
              3.163927    0.36231203217765
 s    3 1.00
             7.8682724   -0.11933240861517
             1.8812885   -0.16085421161283
             0.5442493     1.1434564825515
 s    1 1.00
             0.1687144                   1
 p    3 1.00
             7.8682724   0.068999095584993
             1.8812885    0.31642397975315
             0.5442493    0.74430825237435
 p    1 1.00
             0.1687144                   1
 d    1 1.00
                   0.8                   1

13 0
 s    3 1.00
             18.731137    0.03349459952309
             2.8253937    0.23472694665786
             0.6401217    0.81375731841339
 s    1 1.00
             0.1612778                   1

14 0
 s    3 1.00
             18.731137    0.03349459952309
             2.8253937    0.23472694665786
             0.6401217    0.81375731841339
 s    1 1.00
             0.1612778                   1

15 0
 s    6 1.00
             3047.5249  0.0018347001629433
             457.36951    0.01403730124668
             103.94869   0.068842606114048
             29.210155    0.23218442062076
              9.286663    0.46794134155879
              3.163927    0.36231203217765
 s    3 1.00
             7.8682724   -0.11933240861517
             1.8812885   -0.16085421161283
             0.5442493     1.1434564825515
 s    1 1.00
             0.1687144                   1
 p    3 1.00
             7.8682724   0.068999095584993
             1.8812885    0.31642397975315
             0.5442493    0.74430825237435
 p    1 1.00
             0.1687144                   1
 d    1 1.00
                   0.8                   1

16 0
 s    6 1.00
             3047.5249  0.0018347001629433
             457.36951    0.01403730124668
             103.94869   0.068842606114048
             29.210155    0.23218442062076
              9.286663    0.46794134155879
              3.163927    0.36231203217765
 s    3 1.00
             7.8682724   -0.11933240861517
             1.8812885   -0.16085421161283
             0.5442493     1.1434564825515
 s    1 1.00
             0.1687144                   1
 p    3 1.00
             7.8682724   0.068999095584993
             1.8812885    0.31642397975315
             0.5442493    0.74430825237435
 p    1 1.00
             0.1687144                   1
 d    1 1.00
                   0.8                   1

17 0
 s    6 1.00
             3047.5249  0.0018347001629433
             457.36951    0.01403730124668
             103.94869   0.068842606114048
             29.210155    0.23218442062076
              9.286663    0.46794134155879
              3.163927    0.36231203217765
 s    3 1.00
             7.8682724   -0.11933240861517
             1.8812885   -0.16085421161283
             0.5442493     1.1434564825515
 s    1 1.00
             0.1687144                   1
 p    3 1.00
             7.8682724   0.068999095584993
             1.8812885    0.31642397975315
             0.5442493    0.74430825237435
 p    1 1.00
             0.1687144                   1
 d    1 1.00
                   0.8                   1

18 0
 s    6 1.00
             3047.5249  0.0018347001629433
             457.36951    0.01403730124668
             103.94869   0.068842606114048
             29.210155    0.23218442062076
              9.286663    0.46794134155879
              3.163927    0.36231203217765
 s    3 1.00
             7.8682724   -0.11933240861517
             1.8812885   -0.16085421161283
             0.5442493     1.1434564825515
 s    1 1.00
             0.1687144                   1
 p    3 1.00
             7.8682724   0.068999095584993
             1.8812885    0.31642397975315
             0.5442493    0.74430825237435
 p    1 1.00
             0.1687144                   1
 d    1 1.00
                   0.8                   1

19 0
 s    6 1.00
             3047.5249  0.0018347001629433
             457.36951    0.01403730124668
             103.94869   0.068842606114048
             29.210155    0.23218442062076
              9.286663    0.46794134155879
              3.163927    0.36231203217765
 s    3 1.00
             7.8682724   -0.11933240861517
             1.8812885   -0.16085421161283
             0.5442493     1.1434564825515
 s    1 1.00
             0.1687144                   1
 p    3 1.00
             7.8682724   0.068999095584993
             1.8812885    0.31642397975315
             0.5442493    0.74430825237435
 p    1 1.00
             0.1687144                   1
 d    1 1.00
                   0.8                   1

20 0
 s    6 1.00
             3047.5249  0.0018347001629433
             457.36951    0.01403730124668
             103.94869   0.068842606114048
             29.210155    0.23218442062076
              9.286663    0.46794134155879
              3.163927    0.36231203217765
 s    3 1.00
             7.8682724   -0.11933240861517
             1.8812885   -0.16085421161283
             0.5442493     1.1434564825515
 s    1 1.00
             0.1687144                   1
 p    3 1.00
             7.8682724   0.068999095584993
             1.8812885    0.31642397975315
             0.5442493    0.74430825237435
 p    1 1.00
             0.1687144                   1
 d    1 1.00
                   0.8                   1

21 0
 s    6 1.00
             3047.5249  0.0018347001629433
             457.36951    0.01403730124668
             103.94869   0.068842606114048
             29.210155    0.23218442062076
              9.286663    0.46794134155879
              3.163927    0.36231203217765
 s    3 1.00
             7.8682724   -0.11933240861517
             1.8812885   -0.16085421161283
             0.5442493     1.1434564825515
 s    1 1.00
             0.1687144                   1
 p    3 1.00
             7.8682724   0.068999095584993
             1.8812885    0.31642397975315
             0.5442493    0.74430825237435
 p    1 1.00
             0.1687144                   1
 d    1 1.00
                   0.8                   1

22 0
 s    3 1.00
             18.731137    0.03349459952309
             2.8253937    0.23472694665786
             0.6401217    0.81375731841339
 s    1 1.00
             0.1612778                   1

23 0
 s    3 1.00
             18.731137    0.03349459952309
             2.8253937    0.23472694665786
             0.6401217    0.81375731841339
 s    1 1.00
             0.1612778                   1

24 0
 s    3 1.00
             18.731137    0.03349459952309
             2.8253937    0.23472694665786
             0.6401217    0.81375731841339
 s    1 1.00
             0.1612778                   1

25 0
 s    3 1.00
             18.731137    0.03349459952309
             2.8253937    0.23472694665786
             0.6401217    0.81375731841339
 s    1 1.00
             0.1612778                   1

26 0
 s    3 1.00
             18.731137    0.03349459952309
             2.8253937    0.23472694665786
             0.6401217    0.81375731841339
 s    1 1.00
             0.1612778                   1

27 0
 s    3 1.00
             18.731137    0.03349459952309
             2.8253937    0.23472694665786
             0.6401217    0.81375731841339
 s    1 1.00
             0.1612778                   1

28 0
 s    3 1.00
             18.731137    0.03349459952309
             2.8253937    0.23472694665786
             0.6401217    0.81375731841339
 s    1 1.00
             0.1612778                   1

29 0
 s    3 1.00
             18.731137    0.03349459952309
             2.8253937    0.23472694665786
             0.6401217    0.81375731841339
 s    1 1.00
             0.1612778                   1

30 0
 s    3 1.00
             18.731137    0.03349459952309
             2.8253937    0.23472694665786
             0.6401217    0.81375731841339
 s    1 1.00
             0.1612778                   1

31 0
 s    3 1.00
             18.731137    0.03349459952309
             2.8253937    0.23472694665786
             0.6401217    0.81375731841339
 s    1 1.00
             0.1612778                   1

32 0
 s    3 1.00
             18.731137    0.03349459952309
             2.8253937    0.23472694665786
             0.6401217    0.81375731841339
 s    1 1.00
             0.1612778                   1

33 0
 s    6 1.00
             3047.5249  0.0018347001629433
             457.36951    0.01403730124668
             103.94869   0.068842606114048
             29.210155    0.23218442062076
              9.286663    0.46794134155879
              3.163927    0.36231203217765
 s    3 1.00
             7.8682724   -0.11933240861517
             1.8812885   -0.16085421161283
             0.5442493     1.1434564825515
 s    1 1.00
             0.1687144                   1
 p    3 1.00
             7.8682724   0.068999095584993
             1.8812885    0.31642397975315
             0.5442493    0.74430825237435
 p    1 1.00
             0.1687144                   1
 d    1 1.00
                   0.8                   1

34 0
 s    6 1.00
             3047.5249  0.0018347001629433
             457.36951    0.01403730124668
             103.94869   0.068842606114048
             29.210155    0.23218442062076
              9.286663    0.46794134155879
              3.163927    0.36231203217765
 s    3 1.00
             7.8682724   -0.11933240861517
             1.8812885   -0.16085421161283
             0.5442493     1.1434564825515
 s    1 1.00
             0.1687144                   1
 p    3 1.00
             7.8682724   0.068999095584993
             1.8812885    0.31642397975315
             0.5442493    0.74430825237435
 p    1 1.00
             0.1687144                   1
 d    1 1.00
                   0.8                   1

35 0
 s    3 1.00
             18.731137    0.03349459952309
             2.8253937    0.23472694665786
             0.6401217    0.81375731841339
 s    1 1.00
             0.1612778                   1

36 0
 s    6 1.00
             3047.5249  0.0018347001629433
             457.36951    0.01403730124668
             103.94869   0.068842606114048
             29.210155    0.23218442062076
              9.286663    0.46794134155879
              3.163927    0.36231203217765
 s    3 1.00
             7.8682724   -0.11933240861517
             1.8812885   -0.16085421161283
             0.5442493     1.1434564825515
 s    1 1.00
             0.1687144                   1
 p    3 1.00
             7.8682724   0.068999095584993
             1.8812885    0.31642397975315
             0.5442493    0.74430825237435
 p    1 1.00
             0.1687144                   1
 d    1 1.00
                   0.8                   1

37 0
 s    3 1.00
             18.731137    0.03349459952309
             2.8253937    0.23472694665786
             0.6401217    0.81375731841339
 s    1 1.00
             0.1612778                   1

38 0
 s    3 1.00
             18.731137    0.03349459952309
             2.8253937    0.23472694665786
             0.6401217    0.81375731841339
 s    1 1.00
             0.1612778                   1

39 0
 s    6 1.00
             3047.5249  0.0018347001629433
             457.36951    0.01403730124668
             103.94869   0.068842606114048
             29.210155    0.23218442062076
              9.286663    0.46794134155879
              3.163927    0.36231203217765
 s    3 1.00
             7.8682724   -0.11933240861517
             1.8812885   -0.16085421161283
             0.5442493     1.1434564825515
 s    1 1.00
             0.1687144                   1
 p    3 1.00
             7.8682724   0.068999095584993
             1.8812885    0.31642397975315
             0.5442493    0.74430825237435
 p    1 1.00
             0.1687144                   1
 d    1 1.00
                   0.8                   1

40 0
 s    6 1.00
             3047.5249  0.0018347001629433
             457.36951    0.01403730124668
             103.94869   0.068842606114048
             29.210155    0.23218442062076
              9.286663    0.46794134155879
              3.163927    0.36231203217765
 s    3 1.00
             7.8682724   -0.11933240861517
             1.8812885   -0.16085421161283
             0.5442493     1.1434564825515
 s    1 1.00
             0.1687144                   1
 p    3 1.00
             7.8682724   0.068999095584993
             1.8812885    0.31642397975315
             0.5442493    0.74430825237435
 p    1 1.00
             0.1687144                   1
 d    1 1.00
                   0.8                   1

41 0
 s    3 1.00
             18.731137    0.03349459952309
             2.8253937    0.23472694665786
             0.6401217    0.81375731841339
 s    1 1.00
             0.1612778                   1

42 0
 s    6 1.00
             5484.6717   0.001831099805527
             825.23495   0.013950098518422
             188.04696    0.06844509273075
               52.9645    0.23271427528445
              16.89757    0.47019295006289
             5.7996353    0.35852086192309
 s    3 1.00
             15.539616   -0.11077750382508
             3.5999336   -0.14802630511126
             1.0137618     1.1307670390447
 s    1 1.00
             0.2700058                   1
 p    3 1.00
             15.539616   0.070874299543311
             3.5999336    0.33975279781076
             1.0137618    0.72715859531445
 p    1 1.00
             0.2700058                   1
 d    1 1.00
                   0.8                   1

43 0
 s    3 1.00
             18.731137    0.03349459952309
             2.8253937    0.23472694665786
             0.6401217    0.81375731841339
 s    1 1.00
             0.1612778                   1

[5d]
[7f]
[9g]

[MO]
 Sym= A
 Ene=               0
 Spin= Alpha
 Occup=    1.00000
   1    -8.6004177421095e-07
   2    -1.2683773688601e-06
   3    0.00017584275139044
   4    -3.8963766204247e-06
   5    3.6905198436793e-05
   6    -5.6961310692933e-06
   7    -0.00014013747257358
   8    -0.00014354450557276
   9    0.00013995143825352
  10    -8.8686425803014e-06
  11    -2.9958656428414e-06
  12    2.9434245035907e-06
  13    6.865631599945e-06
  14    -4.1645702658116e-06
  15    1.2341670999324e-05
  16    3.536841015142e-05
  17    1.759483612639e-07
  18    5.6595314037634e-05
  19    0.0010565703423762
  20    2.6462205247347e-05
  21    -2.4497728880028e-05
  22    -5.9413877145117e-05
  23    0.00024214702419354
  24    3.6541414800613e-05
  25    -0.00074255426863178
  26    3.8398063986196e-05
  27    -2.1964106788571e-05
  28    -1.2476824214062e-05
  29    3.6423025486608e-05
  30    -3.1584173399591e-05
  31    -6.4953203265418e-06
  32    -2.5447518269238e-05
  33    4.3045044151741e-05
  34    0.00036554726427908
  35    -0.0048154611334703
  36    -6.1239648132152e-05
  37    2.5539190568611e-06
  38    0.00011135706621979
  39    0.00076117836442052
  40     0.001717207341118
  41    0.0011280421267181
  42    -0.00011589981381197
  43    4.4487761562219e-05
  44    -9.7567815851555e-05
  45    3.037981836964e-05
  46    -3.1339650311156e-05
  47    -1.7253274922978e-05
  48    -0.00030769293958166
  49    3.3208221318903e-05
  50    5.9438695952367e-05
  51    0.0037858642419176
  52    -2.1965263571168e-05
  53    -0.00020026290836701
  54    -0.00027686943638111
  55    0.00015428328053282
  56    0.0022342884735219
  57     0.003380752110892
  58     7.54303128658e-05
  59    0.00010465479548255
  60    0.00018300281203286
  61    -2.3262089300444e-05
  62    -0.00012274270014952
  63    0.0002782937636786
  64    6.4267499649816e-05
  65    -2.7220265490978e-08
  66    -5.7975296311895e-07
  67    6.2114395868073e-08
  68    -2.1997190304075e-08
  69    2.3729987943937e-06
  70    -5.2082878406275e-07
  71    3.291189838547e-07
  72    1.5141324618476e-07
  73    -1.1362883420349e-06
  74    1.2759245204899e-06
  75    9.6699843528211e-07
  76    -1.0906408223927e-07
  77    -7.6160157096354e-08
  78    -3.3119912176493e-08
  79    2.8841735211923e-08
  80    -5.4448284232624e-08
  81    4.7209611850406e-08
  82    1.6379819013896e-07
  83    -1.3475835883991e-08
  84    -6.7580796239689e-07
  85    -2.4887998437112e-06
  86    6.8958051789617e-07
  87    5.7305358820146e-07
  88    2.5180905332157e-07
  89    4.8201003490191e-07
  90    9.0930828612747e-09
  91    1.1148631720569e-06
  92    6.9684313683364e-08
  93    1.2596661143378e-07
  94    -6.0087793991886e-08
  95    1.4807860947049e-07
  96    2.6425933122114e-08
  97    7.1079735508839e-07
  98    1.7580260908656e-06
  99    -3.687497425176e-07
 100    -8.6507011921308e-07
 101    -6.477527305135e-08
 102    1.485158202597e-07
 103    -1.440639058759e-05
 104    -2.0851549199162e-06
 105    -3.2652679185948e-06
 106    6.1083372609808e-07
 107    9.7335687094324e-07
 108    -6.1292190817133e-06
 109    1.1750118272421e-05
 110    -5.3189596982182e-07
 111    -6.3321976528928e-07
 112    3.1409096725025e-07
 113    7.3573915455902e-07
 114    4.3490446952605e-07
 115    -4.1406161394276e-07
 116    -4.1833615184453e-06
 117    2.1565345733606e-05
 118    -1.6837659695742e-07
 119    3.7778166243201e-07
 120    4.3884923030052e-07
 121    -4.0624494853408e-06
 122    1.6393461440397e-06
 123    -7.949644106613e-06
 124    -1.8000389580339e-07
 125    1.9598425258381e-07
 126    -1.5319668335863e-08
 127    2.0467395863421e-08
 128    5.3799225056671e-08
 129    -5.0550550804493e-07
 130    -6.074936883031e-06
 131    -5.8022078040898e-07
 132    -2.5677576411945e-06
 133    -4.0162633494821e-06
 134    3.7340219809234e-06
 135    2.350893187733e-05
 136    9.9750452257646e-07
 137    -1.8107794428738e-05
 138    5.9247847543634e-07
 139    2.716845507461e-07
 140    -9.1897887587697e-07
 141    2.1516560235645e-07
 142    -5.9892615386991e-07
 143    1.3585082589057e-07
 144    8.010191795113e-08
 145    1.1816113162307e-05
 146    1.9171912562515e-08
 147    1.6140104292877e-06
 148    -9.0272748748857e-07
 149    5.1857512243485e-06
 150    -1.8605386595878e-05
 151    8.7137320040859e-06
 152    -2.2747302637303e-07
 153    -8.7027023619865e-08
 154    7.5802163841794e-07
 155      3.2011535244e-07
 156    1.3934959450239e-07
 157    -1.8688923077609e-07
 158    -1.5889204352359e-06
 159    1.4044546430424e-05
 160    6.4189664729398e-07
 161    -8.0583515993219e-07
 162    1.1063112390539e-06
 163    2.2715741294403e-06
 164    -5.7399621205694e-06
 165    -9.1117224927272e-08
 166    -2.804637726813e-07
 167    1.9036049306372e-07
 168    -1.0144933747093e-07
 169    -2.5255329321026e-07
 170    -2.3701522754292e-07
 171    1.299797270873e-07
 172    -5.1556378567002e-07
 173    -4.2908851804513e-06
 174    -7.1609778684992e-07
 175    -4.0817224669845e-08
 176    1.8919586058311e-08
 177    -4.8428414451109e-06
 178    -1.4540660580982e-06
 179    -3.6461085125121e-06
 180    2.4855942726362e-07
 181    -4.113516835462e-07
 182    -8.4347013531609e-08
 183    -4.6201833965913e-07
 184    -3.116739756507e-07
 185    3.3784676023275e-08
 186    7.7533958401663e-07
 187    -7.8828621445602e-06
 188    2.5584215476027e-07
 189    5.6106352512367e-08
 190    -6.9188501392795e-08
 191    1.4073877631257e-06
 192    5.0140675394899e-06
 193     7.31071212085e-07
 194    6.6031941660877e-08
 195    -2.5446567317427e-07
 196    -6.054303893235e-07
 197    1.3676033987618e-07
 198    -1.4546674460877e-07
 199    2.6057422182067e-07
 200    -1.5870215328902e-06
 201    -1.5173357388493e-07
 202    3.7692958223929e-07
 203    -1.2237762161027e-06
 204    -3.2948160993648e-07
 205    -6.8462066627973e-07
 206    -3.2742785669232e-07
 207    1.706682672334e-06
 208    -1.8593792532184e-05
 209    -6.9049137104436e-07
 210    -1.6794229049485e-06
 211    -7.1597174590746e-07
 212    2.2793837594998e-07
 213    -2.0172431994944e-07
 214    2.8551595389677e-07
 215    6.9517143391342e-07
 216    -6.0017088464809e-06
 217    6.6272473855224e-08
 218    8.9138753605793e-07
 219    -2.6225786348147e-07
 220    1.6570231844372e-06
 221    1.4375982260623e-06
 222    1.3345925848419e-06
 223    -7.862596427838e-05
 224    -5.7164206914487e-06
 225    5.1018264510949e-06
 226    3.3234965170672e-06
 227    1.2180338084733e-06
 228    -3.5782250704035e-06
 229    6.0739864870147e-05
 230    -2.8178644833399e-06
 231    1.5507560056994e-06
 232    5.9386810347796e-07
 233    -4.0076157304137e-07
 234    1.0255746814655e-06
 235    -3.2905798362378e-06
 236    -1.9430550684933e-05
 237    0.00030569717462547
 238    6.2098225875067e-06
 239    1.3489183907171e-05
 240    -4.6039017567982e-06
 241    -9.0853877389025e-05
 242    -2.6026129653135e-05
 243    -0.00011085926449394
 244    9.474905541008e-06
 245    2.8653222267569e-06
 246    4.1520268392924e-07
 247    2.1134840892735e-06
 248    3.685813664788e-06
 249    3.7286817208931e-06
 250    1.6028023938257e-05
 251    -1.4410695677525e-05
 252    9.8229698104875e-07
 253    -0.00035440936211345
 254    8.5389077254605e-06
 255    -9.7705996805876e-06
 256    2.021116167618e-05
 257    -0.00015016166304267
 258    6.2335583228967e-05
 259    -0.00013702475374491
 260    -8.0446753811074e-06
 261    -3.0256316525998e-06
 262    -2.8211202022486e-06
 263    -8.5829074347831e-07
 264    6.2542780665515e-06
 265    6.0495623669141e-06
 266    2.296064921538e-05
 267    -1.7882686499619e-05
 268    -4.4803835222844e-06
 269    0.0002599399450904
 270    9.3117925752673e-05
 271    0.0033606505331124
 272    -7.4885030689117e-05
 273    -0.00035911518472871
 274    -0.00039431428508254
 275    0.0019263825149276
 276    0.00066820530726281
 277    -0.003865577472112
 278    0.0003582518179235
 279    -0.00013012997063382
 280    7.7364570464075e-05