[Molden Format]
made by pyscf v[2.0.1]
[Atoms] (AU)
C   1   6     0.69100024066471     0.64692934207205    -3.48223131169301
H   2   1     2.68052439830868     1.13355088658700    -3.25784032593313
C   3   6    -0.36286361513219     0.85440132524594    -5.97030179418974
H   4   1    -2.35448549047279     0.36322488579172    -6.17995817793143
C   5   6     0.93697958957450     1.61209284601821    -8.05828437677121
H   6   1     1.25179717896080     3.62344259528190    -8.36861463213972
C   7   6     1.93299030663405    -0.10622024085708    -9.90534865945394
H   8   1     1.60367989661651    -2.11561190296467    -9.56827000221191
H   9   1     1.55630230933075    -1.92953025305990    12.99630010416247
C   10   6     0.75233899775814    -2.21270439606481    11.10705728102219
H   11   1    -0.43433408177274    -3.90944857546550    11.22216085340412
C   12   6     2.86362581178706    -2.63237380607947     9.17926416456045
H   13   1     4.39038949912609    -1.24955421540245     9.49899813497433
H   14   1     3.74629220191363    -4.48798724300892     9.47414880959024
C   15   6     2.02478325613682    -2.42177285709634     6.44560829588644
C   16   6     3.88048732735477    -3.58795445234514     4.61402886975252
C   17   6    -0.18412382258602    -1.30464291234259     5.76021113872346
C   18   6    -2.10044360464350    -0.26837831858460     7.71610340967100
C   19   6    -3.08956938670431     2.35282328359417     6.88693925039594
C   20   6    -4.37372924086464    -2.09766595989678     7.93610724222001
C   21   6    -0.83850430601230     0.06372213486173    10.33002307638377
H   22   1     0.38411922151109     1.74281358582432    10.27380136542181
H   23   1    -2.30980003007874     0.45460143924521    11.73986301809809
H   24   1     4.58527064644668    -5.38706904487420     5.36778158031719
H   25   1     5.54944938085014    -2.37631462192748     4.35398898413318
H   26   1     3.06633019150423    -3.94118377050688     2.75255466040884
H   27   1    -4.17727778763735     2.26573369139522     5.12914900961283
H   28   1    -1.52662344944051     3.68001877445626     6.59540397144508
H   29   1    -4.32916174397830     3.13643051467482     8.35225460090378
H   30   1    -5.32329548508442    -2.36691813602939     6.11583672749896
H   31   1    -5.77989366602257    -1.33896741843465     9.25748940450990
H   32   1    -3.79310905208926    -3.96389819310853     8.61386170102686
C   33   6    -1.01100794811226    -1.06331657314144     3.11929490449947
C   34   6     0.37686231036534    -0.33275864505552     1.09165013605873
H   35   1    -3.01671213906703    -1.40297922279997     2.77827895090944
C   36   6    -0.64382707979370    -0.11591880174385    -1.42063131251064
H   37   1     2.35569259782137     0.17174499283897     1.33641070251401
H   38   1    -2.63317482980319    -0.60229203511219    -1.66119700387645
C   39   6     3.23483881481583     0.56109494848388   -12.01167590238676
C   40   6     4.17213386166354    -1.33546547775814   -13.78129708499957
H   41   1     3.62751071831436     2.52907164005278   -12.45960989181140
O   42   8     5.35190984410731    -0.86987395658954   -15.70799822813352
H   43   1     3.72751838268070    -3.32497850208065   -13.24806737881206
[GTO]
1 0
 s    6 1.00
             3047.5249  0.0018347001629433
             457.36951    0.01403730124668
             103.94869   0.068842606114048
             29.210155    0.23218442062076
              9.286663    0.46794134155879
              3.163927    0.36231203217765
 s    3 1.00
             7.8682724   -0.11933240861517
             1.8812885   -0.16085421161283
             0.5442493     1.1434564825515
 s    1 1.00
             0.1687144                   1
 p    3 1.00
             7.8682724   0.068999095584993
             1.8812885    0.31642397975315
             0.5442493    0.74430825237435
 p    1 1.00
             0.1687144                   1
 d    1 1.00
                   0.8                   1

2 0
 s    3 1.00
             18.731137    0.03349459952309
             2.8253937    0.23472694665786
             0.6401217    0.81375731841339
 s    1 1.00
             0.1612778                   1

3 0
 s    6 1.00
             3047.5249  0.0018347001629433
             457.36951    0.01403730124668
             103.94869   0.068842606114048
             29.210155    0.23218442062076
              9.286663    0.46794134155879
              3.163927    0.36231203217765
 s    3 1.00
             7.8682724   -0.11933240861517
             1.8812885   -0.16085421161283
             0.5442493     1.1434564825515
 s    1 1.00
             0.1687144                   1
 p    3 1.00
             7.8682724   0.068999095584993
             1.8812885    0.31642397975315
             0.5442493    0.74430825237435
 p    1 1.00
             0.1687144                   1
 d    1 1.00
                   0.8                   1

4 0
 s    3 1.00
             18.731137    0.03349459952309
             2.8253937    0.23472694665786
             0.6401217    0.81375731841339
 s    1 1.00
             0.1612778                   1

5 0
 s    6 1.00
             3047.5249  0.0018347001629433
             457.36951    0.01403730124668
             103.94869   0.068842606114048
             29.210155    0.23218442062076
              9.286663    0.46794134155879
              3.163927    0.36231203217765
 s    3 1.00
             7.8682724   -0.11933240861517
             1.8812885   -0.16085421161283
             0.5442493     1.1434564825515
 s    1 1.00
             0.1687144                   1
 p    3 1.00
             7.8682724   0.068999095584993
             1.8812885    0.31642397975315
             0.5442493    0.74430825237435
 p    1 1.00
             0.1687144                   1
 d    1 1.00
                   0.8                   1

6 0
 s    3 1.00
             18.731137    0.03349459952309
             2.8253937    0.23472694665786
             0.6401217    0.81375731841339
 s    1 1.00
             0.1612778                   1

7 0
 s    6 1.00
             3047.5249  0.0018347001629433
             457.36951    0.01403730124668
             103.94869   0.068842606114048
             29.210155    0.23218442062076
              9.286663    0.46794134155879
              3.163927    0.36231203217765
 s    3 1.00
             7.8682724   -0.11933240861517
             1.8812885   -0.16085421161283
             0.5442493     1.1434564825515
 s    1 1.00
             0.1687144                   1
 p    3 1.00
             7.8682724   0.068999095584993
             1.8812885    0.31642397975315
             0.5442493    0.74430825237435
 p    1 1.00
             0.1687144                   1
 d    1 1.00
                   0.8                   1

8 0
 s    3 1.00
             18.731137    0.03349459952309
             2.8253937    0.23472694665786
             0.6401217    0.81375731841339
 s    1 1.00
             0.1612778                   1

9 0
 s    3 1.00
             18.731137    0.03349459952309
             2.8253937    0.23472694665786
             0.6401217    0.81375731841339
 s    1 1.00
             0.1612778                   1

10 0
 s    6 1.00
             3047.5249  0.0018347001629433
             457.36951    0.01403730124668
             103.94869   0.068842606114048
             29.210155    0.23218442062076
              9.286663    0.46794134155879
              3.163927    0.36231203217765
 s    3 1.00
             7.8682724   -0.11933240861517
             1.8812885   -0.16085421161283
             0.5442493     1.1434564825515
 s    1 1.00
             0.1687144                   1
 p    3 1.00
             7.8682724   0.068999095584993
             1.8812885    0.31642397975315
             0.5442493    0.74430825237435
 p    1 1.00
             0.1687144                   1
 d    1 1.00
                   0.8                   1

11 0
 s    3 1.00
             18.731137    0.03349459952309
             2.8253937    0.23472694665786
             0.6401217    0.81375731841339
 s    1 1.00
             0.1612778                   1

12 0
 s    6 1.00
             3047.5249  0.0018347001629433
             457.36951    0.01403730124668
             103.94869   0.068842606114048
             29.210155    0.23218442062076
              9.286663    0.46794134155879
              3.163927    0.36231203217765
 s    3 1.00
             7.8682724   -0.11933240861517
             1.8812885   -0.16085421161283
             0.5442493     1.1434564825515
 s    1 1.00
             0.1687144                   1
 p    3 1.00
             7.8682724   0.068999095584993
             1.8812885    0.31642397975315
             0.5442493    0.74430825237435
 p    1 1.00
             0.1687144                   1
 d    1 1.00
                   0.8                   1

13 0
 s    3 1.00
             18.731137    0.03349459952309
             2.8253937    0.23472694665786
             0.6401217    0.81375731841339
 s    1 1.00
             0.1612778                   1

14 0
 s    3 1.00
             18.731137    0.03349459952309
             2.8253937    0.23472694665786
             0.6401217    0.81375731841339
 s    1 1.00
             0.1612778                   1

15 0
 s    6 1.00
             3047.5249  0.0018347001629433
             457.36951    0.01403730124668
             103.94869   0.068842606114048
             29.210155    0.23218442062076
              9.286663    0.46794134155879
              3.163927    0.36231203217765
 s    3 1.00
             7.8682724   -0.11933240861517
             1.8812885   -0.16085421161283
             0.5442493     1.1434564825515
 s    1 1.00
             0.1687144                   1
 p    3 1.00
             7.8682724   0.068999095584993
             1.8812885    0.31642397975315
             0.5442493    0.74430825237435
 p    1 1.00
             0.1687144                   1
 d    1 1.00
                   0.8                   1

16 0
 s    6 1.00
             3047.5249  0.0018347001629433
             457.36951    0.01403730124668
             103.94869   0.068842606114048
             29.210155    0.23218442062076
              9.286663    0.46794134155879
              3.163927    0.36231203217765
 s    3 1.00
             7.8682724   -0.11933240861517
             1.8812885   -0.16085421161283
             0.5442493     1.1434564825515
 s    1 1.00
             0.1687144                   1
 p    3 1.00
             7.8682724   0.068999095584993
             1.8812885    0.31642397975315
             0.5442493    0.74430825237435
 p    1 1.00
             0.1687144                   1
 d    1 1.00
                   0.8                   1

17 0
 s    6 1.00
             3047.5249  0.0018347001629433
             457.36951    0.01403730124668
             103.94869   0.068842606114048
             29.210155    0.23218442062076
              9.286663    0.46794134155879
              3.163927    0.36231203217765
 s    3 1.00
             7.8682724   -0.11933240861517
             1.8812885   -0.16085421161283
             0.5442493     1.1434564825515
 s    1 1.00
             0.1687144                   1
 p    3 1.00
             7.8682724   0.068999095584993
             1.8812885    0.31642397975315
             0.5442493    0.74430825237435
 p    1 1.00
             0.1687144                   1
 d    1 1.00
                   0.8                   1

18 0
 s    6 1.00
             3047.5249  0.0018347001629433
             457.36951    0.01403730124668
             103.94869   0.068842606114048
             29.210155    0.23218442062076
              9.286663    0.46794134155879
              3.163927    0.36231203217765
 s    3 1.00
             7.8682724   -0.11933240861517
             1.8812885   -0.16085421161283
             0.5442493     1.1434564825515
 s    1 1.00
             0.1687144                   1
 p    3 1.00
             7.8682724   0.068999095584993
             1.8812885    0.31642397975315
             0.5442493    0.74430825237435
 p    1 1.00
             0.1687144                   1
 d    1 1.00
                   0.8                   1

19 0
 s    6 1.00
             3047.5249  0.0018347001629433
             457.36951    0.01403730124668
             103.94869   0.068842606114048
             29.210155    0.23218442062076
              9.286663    0.46794134155879
              3.163927    0.36231203217765
 s    3 1.00
             7.8682724   -0.11933240861517
             1.8812885   -0.16085421161283
             0.5442493     1.1434564825515
 s    1 1.00
             0.1687144                   1
 p    3 1.00
             7.8682724   0.068999095584993
             1.8812885    0.31642397975315
             0.5442493    0.74430825237435
 p    1 1.00
             0.1687144                   1
 d    1 1.00
                   0.8                   1

20 0
 s    6 1.00
             3047.5249  0.0018347001629433
             457.36951    0.01403730124668
             103.94869   0.068842606114048
             29.210155    0.23218442062076
              9.286663    0.46794134155879
              3.163927    0.36231203217765
 s    3 1.00
             7.8682724   -0.11933240861517
             1.8812885   -0.16085421161283
             0.5442493     1.1434564825515
 s    1 1.00
             0.1687144                   1
 p    3 1.00
             7.8682724   0.068999095584993
             1.8812885    0.31642397975315
             0.5442493    0.74430825237435
 p    1 1.00
             0.1687144                   1
 d    1 1.00
                   0.8                   1

21 0
 s    6 1.00
             3047.5249  0.0018347001629433
             457.36951    0.01403730124668
             103.94869   0.068842606114048
             29.210155    0.23218442062076
              9.286663    0.46794134155879
              3.163927    0.36231203217765
 s    3 1.00
             7.8682724   -0.11933240861517
             1.8812885   -0.16085421161283
             0.5442493     1.1434564825515
 s    1 1.00
             0.1687144                   1
 p    3 1.00
             7.8682724   0.068999095584993
             1.8812885    0.31642397975315
             0.5442493    0.74430825237435
 p    1 1.00
             0.1687144                   1
 d    1 1.00
                   0.8                   1

22 0
 s    3 1.00
             18.731137    0.03349459952309
             2.8253937    0.23472694665786
             0.6401217    0.81375731841339
 s    1 1.00
             0.1612778                   1

23 0
 s    3 1.00
             18.731137    0.03349459952309
             2.8253937    0.23472694665786
             0.6401217    0.81375731841339
 s    1 1.00
             0.1612778                   1

24 0
 s    3 1.00
             18.731137    0.03349459952309
             2.8253937    0.23472694665786
             0.6401217    0.81375731841339
 s    1 1.00
             0.1612778                   1

25 0
 s    3 1.00
             18.731137    0.03349459952309
             2.8253937    0.23472694665786
             0.6401217    0.81375731841339
 s    1 1.00
             0.1612778                   1

26 0
 s    3 1.00
             18.731137    0.03349459952309
             2.8253937    0.23472694665786
             0.6401217    0.81375731841339
 s    1 1.00
             0.1612778                   1

27 0
 s    3 1.00
             18.731137    0.03349459952309
             2.8253937    0.23472694665786
             0.6401217    0.81375731841339
 s    1 1.00
             0.1612778                   1

28 0
 s    3 1.00
             18.731137    0.03349459952309
             2.8253937    0.23472694665786
             0.6401217    0.81375731841339
 s    1 1.00
             0.1612778                   1

29 0
 s    3 1.00
             18.731137    0.03349459952309
             2.8253937    0.23472694665786
             0.6401217    0.81375731841339
 s    1 1.00
             0.1612778                   1

30 0
 s    3 1.00
             18.731137    0.03349459952309
             2.8253937    0.23472694665786
             0.6401217    0.81375731841339
 s    1 1.00
             0.1612778                   1

31 0
 s    3 1.00
             18.731137    0.03349459952309
             2.8253937    0.23472694665786
             0.6401217    0.81375731841339
 s    1 1.00
             0.1612778                   1

32 0
 s    3 1.00
             18.731137    0.03349459952309
             2.8253937    0.23472694665786
             0.6401217    0.81375731841339
 s    1 1.00
             0.1612778                   1

33 0
 s    6 1.00
             3047.5249  0.0018347001629433
             457.36951    0.01403730124668
             103.94869   0.068842606114048
             29.210155    0.23218442062076
              9.286663    0.46794134155879
              3.163927    0.36231203217765
 s    3 1.00
             7.8682724   -0.11933240861517
             1.8812885   -0.16085421161283
             0.5442493     1.1434564825515
 s    1 1.00
             0.1687144                   1
 p    3 1.00
             7.8682724   0.068999095584993
             1.8812885    0.31642397975315
             0.5442493    0.74430825237435
 p    1 1.00
             0.1687144                   1
 d    1 1.00
                   0.8                   1

34 0
 s    6 1.00
             3047.5249  0.0018347001629433
             457.36951    0.01403730124668
             103.94869   0.068842606114048
             29.210155    0.23218442062076
              9.286663    0.46794134155879
              3.163927    0.36231203217765
 s    3 1.00
             7.8682724   -0.11933240861517
             1.8812885   -0.16085421161283
             0.5442493     1.1434564825515
 s    1 1.00
             0.1687144                   1
 p    3 1.00
             7.8682724   0.068999095584993
             1.8812885    0.31642397975315
             0.5442493    0.74430825237435
 p    1 1.00
             0.1687144                   1
 d    1 1.00
                   0.8                   1

35 0
 s    3 1.00
             18.731137    0.03349459952309
             2.8253937    0.23472694665786
             0.6401217    0.81375731841339
 s    1 1.00
             0.1612778                   1

36 0
 s    6 1.00
             3047.5249  0.0018347001629433
             457.36951    0.01403730124668
             103.94869   0.068842606114048
             29.210155    0.23218442062076
              9.286663    0.46794134155879
              3.163927    0.36231203217765
 s    3 1.00
             7.8682724   -0.11933240861517
             1.8812885   -0.16085421161283
             0.5442493     1.1434564825515
 s    1 1.00
             0.1687144                   1
 p    3 1.00
             7.8682724   0.068999095584993
             1.8812885    0.31642397975315
             0.5442493    0.74430825237435
 p    1 1.00
             0.1687144                   1
 d    1 1.00
                   0.8                   1

37 0
 s    3 1.00
             18.731137    0.03349459952309
             2.8253937    0.23472694665786
             0.6401217    0.81375731841339
 s    1 1.00
             0.1612778                   1

38 0
 s    3 1.00
             18.731137    0.03349459952309
             2.8253937    0.23472694665786
             0.6401217    0.81375731841339
 s    1 1.00
             0.1612778                   1

39 0
 s    6 1.00
             3047.5249  0.0018347001629433
             457.36951    0.01403730124668
             103.94869   0.068842606114048
             29.210155    0.23218442062076
              9.286663    0.46794134155879
              3.163927    0.36231203217765
 s    3 1.00
             7.8682724   -0.11933240861517
             1.8812885   -0.16085421161283
             0.5442493     1.1434564825515
 s    1 1.00
             0.1687144                   1
 p    3 1.00
             7.8682724   0.068999095584993
             1.8812885    0.31642397975315
             0.5442493    0.74430825237435
 p    1 1.00
             0.1687144                   1
 d    1 1.00
                   0.8                   1

40 0
 s    6 1.00
             3047.5249  0.0018347001629433
             457.36951    0.01403730124668
             103.94869   0.068842606114048
             29.210155    0.23218442062076
              9.286663    0.46794134155879
              3.163927    0.36231203217765
 s    3 1.00
             7.8682724   -0.11933240861517
             1.8812885   -0.16085421161283
             0.5442493     1.1434564825515
 s    1 1.00
             0.1687144                   1
 p    3 1.00
             7.8682724   0.068999095584993
             1.8812885    0.31642397975315
             0.5442493    0.74430825237435
 p    1 1.00
             0.1687144                   1
 d    1 1.00
                   0.8                   1

41 0
 s    3 1.00
             18.731137    0.03349459952309
             2.8253937    0.23472694665786
             0.6401217    0.81375731841339
 s    1 1.00
             0.1612778                   1

42 0
 s    6 1.00
             5484.6717   0.001831099805527
             825.23495   0.013950098518422
             188.04696    0.06844509273075
               52.9645    0.23271427528445
              16.89757    0.47019295006289
             5.7996353    0.35852086192309
 s    3 1.00
             15.539616   -0.11077750382508
             3.5999336   -0.14802630511126
             1.0137618     1.1307670390447
 s    1 1.00
             0.2700058                   1
 p    3 1.00
             15.539616   0.070874299543311
             3.5999336    0.33975279781076
             1.0137618    0.72715859531445
 p    1 1.00
             0.2700058                   1
 d    1 1.00
                   0.8                   1

43 0
 s    3 1.00
             18.731137    0.03349459952309
             2.8253937    0.23472694665786
             0.6401217    0.81375731841339
 s    1 1.00
             0.1612778                   1

[5d]
[7f]
[9g]

[MO]
 Sym= A
 Ene=               0
 Spin= Alpha
 Occup=    1.00000
   1    1.0232456652218e-06
   2    2.1071447225883e-05
   3    -7.2017804690211e-05
   4    6.6002873231862e-06
   5    -6.8648043129084e-06
   6    -1.6067084360079e-05
   7    1.8647802526731e-06
   8    -5.7648076019029e-05
   9    0.00036276478136953
  10    4.565863165665e-07
  11    -1.1864604497542e-05
  12    -3.3554084487173e-06
  13    -1.4381131286708e-05
  14    7.7539025931886e-06
  15    1.2938078820143e-05
  16    -2.5075239422662e-05
  17    -8.2410364097932e-06
  18    -0.00016520409748244
  19    -0.00048954838976427
  20    -5.3625973979466e-05
  21    1.1599581079557e-05
  22    7.4581872562761e-05
  23    -0.00016073775670155
  24    7.5454312131156e-05
  25    0.00069753540375312
  26    -2.451398555697e-05
  27    2.4353044537632e-05
  28    -6.2981826484635e-06
  29    -4.5621576295397e-05
  30    1.0291689096395e-05
  31    1.0458695220876e-05
  32    -2.3667315685552e-05
  33    -5.7394813282119e-05
  34    -0.00037709855755349
  35    0.0046657535305537
  36    8.1476362451143e-05
  37    -1.8811410326793e-05
  38    -0.00014767502895037
  39    0.00024839378050285
  40    -0.0020287915204518
  41    -0.0006858948641933
  42    4.229879373425e-05
  43    -0.00010516036516617
  44    8.3924856674941e-05
  45    -3.9972323050003e-05
  46    -3.7397095237584e-05
  47    1.4781355575871e-05
  48    0.00029360873741887
  49    -4.7895225892344e-05
  50    -0.00020558994107469
  51    -0.0037849715798893
  52    -0.00017266623390431
  53    0.00023181840453408
  54    0.00031524738791979
  55    0.0013929843476632
  56    -0.0027261672135917
  57    -0.0026223623529868
  58    3.2750843362676e-06
  59    -4.8941942369749e-05
  60    -0.00020188802610955
  61    -1.6343288800293e-05
  62    0.00012655482100588
  63    -0.00032447770424642
  64    -8.467390599766e-05
  65    2.4124171152766e-07
  66    3.6799812841896e-07
  67    4.1715397559491e-08
  68    5.610368148252e-07
  69    -3.1232706860643e-06
  70    -2.3070636443032e-07
  71    3.2504062300917e-07
  72    -9.3317599105106e-08
  73    -1.8827683222245e-07
  74    -1.7378500001499e-06
  75    -2.1357863571498e-07
  76    5.5714401106778e-08
  77    1.2610171379592e-07
  78    -5.1407642813821e-08
  79    -8.1353003214873e-08
  80    1.0233517108706e-07
  81    -7.9422980787451e-08
  82    -1.9520316386115e-07
  83    -2.3144973425702e-08
  84    1.3232093821704e-07
  85    1.258964254351e-05
  86    -5.8458028601829e-07
  87    -1.2719508673358e-07
  88    -8.5368284558522e-07
  89    -3.4007115673945e-06
  90    4.8963740673232e-06
  91    -2.8670400924295e-06
  92    -1.7042624783305e-07
  93    2.7318402382487e-07
  94    -3.3416878483446e-07
  95    -2.9775024007326e-08
  96    1.4964784571414e-07
  97    -6.5487797911745e-07
  98    -9.4207849543232e-07
  99    7.9418807471385e-08
 100    1.1859369849338e-06
 101    9.6994071429646e-08
 102    1.1439503031638e-06
 103    -1.5988769167371e-05
 104    -7.9807763897407e-08
 105    9.8134923160166e-07
 106    5.1419810184068e-07
 107    1.9218740980362e-05
 108    -1.7012779012916e-05
 109    -2.7943813980465e-05
 110    5.8944099218285e-07
 111    5.1789500406991e-07
 112    -2.3249978631599e-07
 113    -4.7948957893596e-07
 114    4.8011532104976e-07
 115    5.0308735569683e-07
 116    4.706847560402e-06
 117    -3.6482296056461e-05
 118    6.4440444326578e-07
 119    -1.0733766846127e-06
 120    -8.3436555949173e-07
 121    7.7128737482968e-06
 122    -2.0239881063368e-07
 123    -1.3303664773657e-06
 124    5.4416118044595e-08
 125    1.5360872966708e-07
 126    1.7248269444488e-07
 127    -3.4498498712712e-08
 128    3.1209233245059e-07
 129    9.5075474179947e-07
 130    8.8172632413677e-06
 131    -4.5508020283354e-05
 132    -8.3247359154504e-08
 133    7.0333343397753e-07
 134    -3.6024113132296e-06
 135    2.459639893671e-05
 136    -3.4164960346115e-06
 137    7.5535540462563e-05
 138    -2.3627992155701e-06
 139    -1.4165342877777e-06
 140    -2.2817008033917e-07
 141    -4.0099052221427e-07
 142    -1.046181009838e-07
 143    3.2083544427511e-07
 144    3.1281907783097e-06
 145    -1.5520197331443e-05
 146    -2.9997691414017e-07
 147    -7.3108809902241e-07
 148    -3.1721000560354e-07
 149    -9.9621916596914e-06
 150    8.1798579964125e-06
 151    1.1712570046356e-06
 152    1.0262467913328e-06
 153    3.3021208152243e-07
 154    5.8639852315427e-08
 155    -7.0430417748009e-07
 156    6.2973713396215e-07
 157    -7.8132728449217e-08
 158    -6.8472525468151e-07
 159    -2.4013565541527e-06
 160    -7.6271603943581e-07
 161    1.9664469295593e-07
 162    -3.8722491037668e-08
 163    5.5132765533571e-06
 164    5.4950240093822e-07
 165    -7.4017309308612e-07
 166    -3.6446017901984e-07
 167    8.0356178305026e-08
 168    5.5482747268817e-09
 169    1.2599408811976e-07
 170    -2.2474468925125e-07
 171    -3.2404677425399e-08
 172    3.9086014241419e-07
 173    2.2946473651805e-06
 174    6.9009855962813e-07
 175    1.3636593857376e-07
 176    -7.5510950331809e-07
 177    6.5066363078878e-07
 178    -1.2171739931877e-06
 179    2.1804936553803e-06
 180    -1.7025924903551e-07
 181    -1.8529564683135e-07
 182    1.6441662047412e-08
 183    3.9464009499377e-07
 184    -1.5343474336203e-07
 185    2.9170533168381e-07
 186    2.8993713532315e-06
 187    -2.2346812528422e-06
 188    2.3593851387481e-07
 189    -1.2457477071833e-07
 190    -1.0531679163139e-06
 191    -2.4101108521032e-06
 192    -1.3510800360223e-06
 193    5.7991133327415e-06
 194    -3.6465749836481e-07
 195    4.8022169261846e-08
 196    -9.5291395589883e-08
 197    -6.4889997617045e-08
 198    8.8268869082755e-08
 199    7.5434936119686e-07
 200    1.4486860592202e-06
 201    -7.1456826181018e-08
 202    -3.2380589815809e-06
 203    1.752936408888e-06
 204    2.106689433068e-06
 205    3.6853260597806e-07
 206    2.3467158240873e-06
 207    -1.641055710469e-06
 208    1.4326354472838e-05
 209    -9.6679457320449e-07
 210    4.107274473296e-06
 211    -3.4472644308876e-07
 212    -2.719956558429e-06
 213    2.0951753743353e-07
 214    2.0627528538177e-06
 215    4.6699596468038e-07
 216    -2.2879932677393e-07
 217    -3.2022777735506e-07
 218    -9.4610986303409e-07
 219    -2.195138305144e-07
 220    -1.1691926316102e-06
 221    6.8621488057926e-07
 222    8.2904347021579e-06
 223    3.6017300224878e-06
 224     2.11121818929e-07
 225    5.0186233658397e-08
 226    -3.5093733715178e-06
 227    -1.6743417446929e-05
 228    -2.532028730511e-05
 229    8.5593279065269e-05
 230    1.1757840742844e-06
 231    3.7259202537844e-06
 232    2.0070299795453e-06
 233    -1.7138014737315e-06
 234    -2.8629387933612e-06
 235    1.3621272680769e-06
 236    1.2825172774867e-05
 237    -4.7594329282931e-05
 238    1.0766119833868e-06
 239    -3.4238158765855e-06
 240    -3.1227814584247e-06
 241    2.4349546397323e-05
 242    1.0834447435598e-05
 243    0.00010397491434068
 244    -2.8457484509205e-06
 245    -6.9801545066813e-06
 246    -2.4662382832313e-06
 247    -2.6184390286976e-06
 248    -2.2163531947515e-06
 249    3.3067548700844e-06
 250    -1.2199403969035e-05
 251    1.5255632327749e-06
 252    2.639197850059e-05
 253    -0.00019294880359651
 254    -4.4933692560501e-06
 255    1.262332919361e-05
 256    -8.2239856710115e-06
 257    -8.6096191052354e-05
 258    -0.00011158147867594
 259    0.00023303236467114
 260    -6.8389957146959e-07
 261    1.1654802627355e-05
 262    6.3851525987942e-06
 263    -6.6625632235473e-06
 264    -7.4252281405922e-06
 265    4.7650612155116e-06
 266    -2.8165853211909e-05
 267    8.6690498092192e-06
 268    -3.8804648432201e-05
 269    1.3312997325319e-05
 270    6.2248455557643e-05
 271    -0.0033308245805318
 272    2.2250144955032e-05
 273    0.00020754162761998
 274    -1.7243884068927e-05
 275    -0.0021608420889262
 276    -0.00062801361675164
 277    0.0035607753073962
 278    -0.00026172751363745
 279    0.00020779781052429