[Molden Format]
made by pyscf v[2.0.1]
[Atoms] (AU)
C   1   6     0.69100024066471     0.64692934207205    -3.48223131169301
H   2   1     2.68052439830868     1.13355088658700    -3.25784032593313
C   3   6    -0.36286361513219     0.85440132524594    -5.97030179418974
H   4   1    -2.35448549047279     0.36322488579172    -6.17995817793143
C   5   6     0.93697958957450     1.61209284601821    -8.05828437677121
H   6   1     2.68174994182533     2.67994959464420    -7.82079505522331
C   7   6     0.13444904340515     1.08121190669811   -10.59410649762000
H   8   1    -1.61655526267424     0.00863003830430   -10.80213119601662
H   9   1     1.55630230933075    -1.92953025305990    12.99630010416247
C   10   6     0.75233899775814    -2.21270439606481    11.10705728102219
H   11   1    -0.43433408177274    -3.90944857546550    11.22216085340412
C   12   6     2.86362581178706    -2.63237380607947     9.17926416456045
H   13   1     4.39038949912609    -1.24955421540245     9.49899813497433
H   14   1     3.74629220191363    -4.48798724300892     9.47414880959024
C   15   6     2.02478325613682    -2.42177285709634     6.44560829588644
C   16   6     3.88048732735477    -3.58795445234514     4.61402886975252
C   17   6    -0.18412382258602    -1.30464291234259     5.76021113872346
C   18   6    -2.10044360464350    -0.26837831858460     7.71610340967100
C   19   6    -3.08956938670431     2.35282328359417     6.88693925039594
C   20   6    -4.37372924086464    -2.09766595989678     7.93610724222001
C   21   6    -0.83850430601230     0.06372213486173    10.33002307638377
H   22   1     0.38411922151109     1.74281358582432    10.27380136542181
H   23   1    -2.30980003007874     0.45460143924521    11.73986301809809
H   24   1     4.58527064644668    -5.38706904487420     5.36778158031719
H   25   1     5.54944938085014    -2.37631462192748     4.35398898413318
H   26   1     3.06633019150423    -3.94118377050688     2.75255466040884
H   27   1    -4.17727778763735     2.26573369139522     5.12914900961283
H   28   1    -1.52662344944051     3.68001877445626     6.59540397144508
H   29   1    -4.32916174397830     3.13643051467482     8.35225460090378
H   30   1    -5.32329548508442    -2.36691813602939     6.11583672749896
H   31   1    -5.77989366602257    -1.33896741843465     9.25748940450990
H   32   1    -3.79310905208926    -3.96389819310853     8.61386170102686
C   33   6    -1.01100794811226    -1.06331657314144     3.11929490449947
C   34   6     0.37686231036534    -0.33275864505552     1.09165013605873
H   35   1    -3.01671213906703    -1.40297922279997     2.77827895090944
C   36   6    -0.64382707979370    -0.11591880174385    -1.42063131251064
H   37   1     2.35569259782137     0.17174499283897     1.33641070251401
H   38   1    -2.63317482980319    -0.60229203511219    -1.66119700387645
C   39   6     1.36441264344082     1.79875350819652   -12.72695837882209
C   40   6     0.39042169983249     1.16479015456541   -15.22824898409742
H   41   1     3.11744943935123     2.87075295695162   -12.65315109008398
O   42   8     1.39604269582139     1.74939992973347   -17.22017818748739
H   43   1    -1.40767336523230     0.06622817248511   -15.21429812709214
[GTO]
1 0
 s    6 1.00
             3047.5249  0.0018347001629433
             457.36951    0.01403730124668
             103.94869   0.068842606114048
             29.210155    0.23218442062076
              9.286663    0.46794134155879
              3.163927    0.36231203217765
 s    3 1.00
             7.8682724   -0.11933240861517
             1.8812885   -0.16085421161283
             0.5442493     1.1434564825515
 s    1 1.00
             0.1687144                   1
 p    3 1.00
             7.8682724   0.068999095584993
             1.8812885    0.31642397975315
             0.5442493    0.74430825237435
 p    1 1.00
             0.1687144                   1
 d    1 1.00
                   0.8                   1

2 0
 s    3 1.00
             18.731137    0.03349459952309
             2.8253937    0.23472694665786
             0.6401217    0.81375731841339
 s    1 1.00
             0.1612778                   1

3 0
 s    6 1.00
             3047.5249  0.0018347001629433
             457.36951    0.01403730124668
             103.94869   0.068842606114048
             29.210155    0.23218442062076
              9.286663    0.46794134155879
              3.163927    0.36231203217765
 s    3 1.00
             7.8682724   -0.11933240861517
             1.8812885   -0.16085421161283
             0.5442493     1.1434564825515
 s    1 1.00
             0.1687144                   1
 p    3 1.00
             7.8682724   0.068999095584993
             1.8812885    0.31642397975315
             0.5442493    0.74430825237435
 p    1 1.00
             0.1687144                   1
 d    1 1.00
                   0.8                   1

4 0
 s    3 1.00
             18.731137    0.03349459952309
             2.8253937    0.23472694665786
             0.6401217    0.81375731841339
 s    1 1.00
             0.1612778                   1

5 0
 s    6 1.00
             3047.5249  0.0018347001629433
             457.36951    0.01403730124668
             103.94869   0.068842606114048
             29.210155    0.23218442062076
              9.286663    0.46794134155879
              3.163927    0.36231203217765
 s    3 1.00
             7.8682724   -0.11933240861517
             1.8812885   -0.16085421161283
             0.5442493     1.1434564825515
 s    1 1.00
             0.1687144                   1
 p    3 1.00
             7.8682724   0.068999095584993
             1.8812885    0.31642397975315
             0.5442493    0.74430825237435
 p    1 1.00
             0.1687144                   1
 d    1 1.00
                   0.8                   1

6 0
 s    3 1.00
             18.731137    0.03349459952309
             2.8253937    0.23472694665786
             0.6401217    0.81375731841339
 s    1 1.00
             0.1612778                   1

7 0
 s    6 1.00
             3047.5249  0.0018347001629433
             457.36951    0.01403730124668
             103.94869   0.068842606114048
             29.210155    0.23218442062076
              9.286663    0.46794134155879
              3.163927    0.36231203217765
 s    3 1.00
             7.8682724   -0.11933240861517
             1.8812885   -0.16085421161283
             0.5442493     1.1434564825515
 s    1 1.00
             0.1687144                   1
 p    3 1.00
             7.8682724   0.068999095584993
             1.8812885    0.31642397975315
             0.5442493    0.74430825237435
 p    1 1.00
             0.1687144                   1
 d    1 1.00
                   0.8                   1

8 0
 s    3 1.00
             18.731137    0.03349459952309
             2.8253937    0.23472694665786
             0.6401217    0.81375731841339
 s    1 1.00
             0.1612778                   1

9 0
 s    3 1.00
             18.731137    0.03349459952309
             2.8253937    0.23472694665786
             0.6401217    0.81375731841339
 s    1 1.00
             0.1612778                   1

10 0
 s    6 1.00
             3047.5249  0.0018347001629433
             457.36951    0.01403730124668
             103.94869   0.068842606114048
             29.210155    0.23218442062076
              9.286663    0.46794134155879
              3.163927    0.36231203217765
 s    3 1.00
             7.8682724   -0.11933240861517
             1.8812885   -0.16085421161283
             0.5442493     1.1434564825515
 s    1 1.00
             0.1687144                   1
 p    3 1.00
             7.8682724   0.068999095584993
             1.8812885    0.31642397975315
             0.5442493    0.74430825237435
 p    1 1.00
             0.1687144                   1
 d    1 1.00
                   0.8                   1

11 0
 s    3 1.00
             18.731137    0.03349459952309
             2.8253937    0.23472694665786
             0.6401217    0.81375731841339
 s    1 1.00
             0.1612778                   1

12 0
 s    6 1.00
             3047.5249  0.0018347001629433
             457.36951    0.01403730124668
             103.94869   0.068842606114048
             29.210155    0.23218442062076
              9.286663    0.46794134155879
              3.163927    0.36231203217765
 s    3 1.00
             7.8682724   -0.11933240861517
             1.8812885   -0.16085421161283
             0.5442493     1.1434564825515
 s    1 1.00
             0.1687144                   1
 p    3 1.00
             7.8682724   0.068999095584993
             1.8812885    0.31642397975315
             0.5442493    0.74430825237435
 p    1 1.00
             0.1687144                   1
 d    1 1.00
                   0.8                   1

13 0
 s    3 1.00
             18.731137    0.03349459952309
             2.8253937    0.23472694665786
             0.6401217    0.81375731841339
 s    1 1.00
             0.1612778                   1

14 0
 s    3 1.00
             18.731137    0.03349459952309
             2.8253937    0.23472694665786
             0.6401217    0.81375731841339
 s    1 1.00
             0.1612778                   1

15 0
 s    6 1.00
             3047.5249  0.0018347001629433
             457.36951    0.01403730124668
             103.94869   0.068842606114048
             29.210155    0.23218442062076
              9.286663    0.46794134155879
              3.163927    0.36231203217765
 s    3 1.00
             7.8682724   -0.11933240861517
             1.8812885   -0.16085421161283
             0.5442493     1.1434564825515
 s    1 1.00
             0.1687144                   1
 p    3 1.00
             7.8682724   0.068999095584993
             1.8812885    0.31642397975315
             0.5442493    0.74430825237435
 p    1 1.00
             0.1687144                   1
 d    1 1.00
                   0.8                   1

16 0
 s    6 1.00
             3047.5249  0.0018347001629433
             457.36951    0.01403730124668
             103.94869   0.068842606114048
             29.210155    0.23218442062076
              9.286663    0.46794134155879
              3.163927    0.36231203217765
 s    3 1.00
             7.8682724   -0.11933240861517
             1.8812885   -0.16085421161283
             0.5442493     1.1434564825515
 s    1 1.00
             0.1687144                   1
 p    3 1.00
             7.8682724   0.068999095584993
             1.8812885    0.31642397975315
             0.5442493    0.74430825237435
 p    1 1.00
             0.1687144                   1
 d    1 1.00
                   0.8                   1

17 0
 s    6 1.00
             3047.5249  0.0018347001629433
             457.36951    0.01403730124668
             103.94869   0.068842606114048
             29.210155    0.23218442062076
              9.286663    0.46794134155879
              3.163927    0.36231203217765
 s    3 1.00
             7.8682724   -0.11933240861517
             1.8812885   -0.16085421161283
             0.5442493     1.1434564825515
 s    1 1.00
             0.1687144                   1
 p    3 1.00
             7.8682724   0.068999095584993
             1.8812885    0.31642397975315
             0.5442493    0.74430825237435
 p    1 1.00
             0.1687144                   1
 d    1 1.00
                   0.8                   1

18 0
 s    6 1.00
             3047.5249  0.0018347001629433
             457.36951    0.01403730124668
             103.94869   0.068842606114048
             29.210155    0.23218442062076
              9.286663    0.46794134155879
              3.163927    0.36231203217765
 s    3 1.00
             7.8682724   -0.11933240861517
             1.8812885   -0.16085421161283
             0.5442493     1.1434564825515
 s    1 1.00
             0.1687144                   1
 p    3 1.00
             7.8682724   0.068999095584993
             1.8812885    0.31642397975315
             0.5442493    0.74430825237435
 p    1 1.00
             0.1687144                   1
 d    1 1.00
                   0.8                   1

19 0
 s    6 1.00
             3047.5249  0.0018347001629433
             457.36951    0.01403730124668
             103.94869   0.068842606114048
             29.210155    0.23218442062076
              9.286663    0.46794134155879
              3.163927    0.36231203217765
 s    3 1.00
             7.8682724   -0.11933240861517
             1.8812885   -0.16085421161283
             0.5442493     1.1434564825515
 s    1 1.00
             0.1687144                   1
 p    3 1.00
             7.8682724   0.068999095584993
             1.8812885    0.31642397975315
             0.5442493    0.74430825237435
 p    1 1.00
             0.1687144                   1
 d    1 1.00
                   0.8                   1

20 0
 s    6 1.00
             3047.5249  0.0018347001629433
             457.36951    0.01403730124668
             103.94869   0.068842606114048
             29.210155    0.23218442062076
              9.286663    0.46794134155879
              3.163927    0.36231203217765
 s    3 1.00
             7.8682724   -0.11933240861517
             1.8812885   -0.16085421161283
             0.5442493     1.1434564825515
 s    1 1.00
             0.1687144                   1
 p    3 1.00
             7.8682724   0.068999095584993
             1.8812885    0.31642397975315
             0.5442493    0.74430825237435
 p    1 1.00
             0.1687144                   1
 d    1 1.00
                   0.8                   1

21 0
 s    6 1.00
             3047.5249  0.0018347001629433
             457.36951    0.01403730124668
             103.94869   0.068842606114048
             29.210155    0.23218442062076
              9.286663    0.46794134155879
              3.163927    0.36231203217765
 s    3 1.00
             7.8682724   -0.11933240861517
             1.8812885   -0.16085421161283
             0.5442493     1.1434564825515
 s    1 1.00
             0.1687144                   1
 p    3 1.00
             7.8682724   0.068999095584993
             1.8812885    0.31642397975315
             0.5442493    0.74430825237435
 p    1 1.00
             0.1687144                   1
 d    1 1.00
                   0.8                   1

22 0
 s    3 1.00
             18.731137    0.03349459952309
             2.8253937    0.23472694665786
             0.6401217    0.81375731841339
 s    1 1.00
             0.1612778                   1

23 0
 s    3 1.00
             18.731137    0.03349459952309
             2.8253937    0.23472694665786
             0.6401217    0.81375731841339
 s    1 1.00
             0.1612778                   1

24 0
 s    3 1.00
             18.731137    0.03349459952309
             2.8253937    0.23472694665786
             0.6401217    0.81375731841339
 s    1 1.00
             0.1612778                   1

25 0
 s    3 1.00
             18.731137    0.03349459952309
             2.8253937    0.23472694665786
             0.6401217    0.81375731841339
 s    1 1.00
             0.1612778                   1

26 0
 s    3 1.00
             18.731137    0.03349459952309
             2.8253937    0.23472694665786
             0.6401217    0.81375731841339
 s    1 1.00
             0.1612778                   1

27 0
 s    3 1.00
             18.731137    0.03349459952309
             2.8253937    0.23472694665786
             0.6401217    0.81375731841339
 s    1 1.00
             0.1612778                   1

28 0
 s    3 1.00
             18.731137    0.03349459952309
             2.8253937    0.23472694665786
             0.6401217    0.81375731841339
 s    1 1.00
             0.1612778                   1

29 0
 s    3 1.00
             18.731137    0.03349459952309
             2.8253937    0.23472694665786
             0.6401217    0.81375731841339
 s    1 1.00
             0.1612778                   1

30 0
 s    3 1.00
             18.731137    0.03349459952309
             2.8253937    0.23472694665786
             0.6401217    0.81375731841339
 s    1 1.00
             0.1612778                   1

31 0
 s    3 1.00
             18.731137    0.03349459952309
             2.8253937    0.23472694665786
             0.6401217    0.81375731841339
 s    1 1.00
             0.1612778                   1

32 0
 s    3 1.00
             18.731137    0.03349459952309
             2.8253937    0.23472694665786
             0.6401217    0.81375731841339
 s    1 1.00
             0.1612778                   1

33 0
 s    6 1.00
             3047.5249  0.0018347001629433
             457.36951    0.01403730124668
             103.94869   0.068842606114048
             29.210155    0.23218442062076
              9.286663    0.46794134155879
              3.163927    0.36231203217765
 s    3 1.00
             7.8682724   -0.11933240861517
             1.8812885   -0.16085421161283
             0.5442493     1.1434564825515
 s    1 1.00
             0.1687144                   1
 p    3 1.00
             7.8682724   0.068999095584993
             1.8812885    0.31642397975315
             0.5442493    0.74430825237435
 p    1 1.00
             0.1687144                   1
 d    1 1.00
                   0.8                   1

34 0
 s    6 1.00
             3047.5249  0.0018347001629433
             457.36951    0.01403730124668
             103.94869   0.068842606114048
             29.210155    0.23218442062076
              9.286663    0.46794134155879
              3.163927    0.36231203217765
 s    3 1.00
             7.8682724   -0.11933240861517
             1.8812885   -0.16085421161283
             0.5442493     1.1434564825515
 s    1 1.00
             0.1687144                   1
 p    3 1.00
             7.8682724   0.068999095584993
             1.8812885    0.31642397975315
             0.5442493    0.74430825237435
 p    1 1.00
             0.1687144                   1
 d    1 1.00
                   0.8                   1

35 0
 s    3 1.00
             18.731137    0.03349459952309
             2.8253937    0.23472694665786
             0.6401217    0.81375731841339
 s    1 1.00
             0.1612778                   1

36 0
 s    6 1.00
             3047.5249  0.0018347001629433
             457.36951    0.01403730124668
             103.94869   0.068842606114048
             29.210155    0.23218442062076
              9.286663    0.46794134155879
              3.163927    0.36231203217765
 s    3 1.00
             7.8682724   -0.11933240861517
             1.8812885   -0.16085421161283
             0.5442493     1.1434564825515
 s    1 1.00
             0.1687144                   1
 p    3 1.00
             7.8682724   0.068999095584993
             1.8812885    0.31642397975315
             0.5442493    0.74430825237435
 p    1 1.00
             0.1687144                   1
 d    1 1.00
                   0.8                   1

37 0
 s    3 1.00
             18.731137    0.03349459952309
             2.8253937    0.23472694665786
             0.6401217    0.81375731841339
 s    1 1.00
             0.1612778                   1

38 0
 s    3 1.00
             18.731137    0.03349459952309
             2.8253937    0.23472694665786
             0.6401217    0.81375731841339
 s    1 1.00
             0.1612778                   1

39 0
 s    6 1.00
             3047.5249  0.0018347001629433
             457.36951    0.01403730124668
             103.94869   0.068842606114048
             29.210155    0.23218442062076
              9.286663    0.46794134155879
              3.163927    0.36231203217765
 s    3 1.00
             7.8682724   -0.11933240861517
             1.8812885   -0.16085421161283
             0.5442493     1.1434564825515
 s    1 1.00
             0.1687144                   1
 p    3 1.00
             7.8682724   0.068999095584993
             1.8812885    0.31642397975315
             0.5442493    0.74430825237435
 p    1 1.00
             0.1687144                   1
 d    1 1.00
                   0.8                   1

40 0
 s    6 1.00
             3047.5249  0.0018347001629433
             457.36951    0.01403730124668
             103.94869   0.068842606114048
             29.210155    0.23218442062076
              9.286663    0.46794134155879
              3.163927    0.36231203217765
 s    3 1.00
             7.8682724   -0.11933240861517
             1.8812885   -0.16085421161283
             0.5442493     1.1434564825515
 s    1 1.00
             0.1687144                   1
 p    3 1.00
             7.8682724   0.068999095584993
             1.8812885    0.31642397975315
             0.5442493    0.74430825237435
 p    1 1.00
             0.1687144                   1
 d    1 1.00
                   0.8                   1

41 0
 s    3 1.00
             18.731137    0.03349459952309
             2.8253937    0.23472694665786
             0.6401217    0.81375731841339
 s    1 1.00
             0.1612778                   1

42 0
 s    6 1.00
             5484.6717   0.001831099805527
             825.23495   0.013950098518422
             188.04696    0.06844509273075
               52.9645    0.23271427528445
              16.89757    0.47019295006289
             5.7996353    0.35852086192309
 s    3 1.00
             15.539616   -0.11077750382508
             3.5999336   -0.14802630511126
             1.0137618     1.1307670390447
 s    1 1.00
             0.2700058                   1
 p    3 1.00
             15.539616   0.070874299543311
             3.5999336    0.33975279781076
             1.0137618    0.72715859531445
 p    1 1.00
             0.2700058                   1
 d    1 1.00
                   0.8                   1

43 0
 s    3 1.00
             18.731137    0.03349459952309
             2.8253937    0.23472694665786
             0.6401217    0.81375731841339
 s    1 1.00
             0.1612778                   1

[5d]
[7f]
[9g]

[MO]
 Sym= A
 Ene=               0
 Spin= Alpha
 Occup=    1.00000
   1    3.6787667948211e-06
   2    5.2732326228426e-05
   3    0.00011936943471009
   4    1.2132056621056e-05
   5    3.5261661486541e-05
   6    -3.6566323259327e-05
   7    -0.00026511295949773
   8    -0.00030476630843676
   9    0.00088618020956059
  10    -2.1599548758624e-05
  11    -3.2077913425622e-05
  12    -5.2854978978498e-07
  13    -4.3845028343158e-06
  14    8.6106479477708e-07
  15    5.1047974873873e-05
  16    3.5414296406026e-05
  17    -1.4463852145687e-05
  18    -7.9433424097181e-05
  19    0.0020696763249603
  20    8.8722778519339e-06
  21    -9.3761882978767e-06
  22    -5.7370446908755e-05
  23    0.00041768124057603
  24    0.00017816041738638
  25    -0.00075242643876159
  26    6.1326975328578e-05
  27    -1.6662097385731e-05
  28    -2.4947798635448e-05
  29    1.3421008507475e-05
  30    -2.5187909063042e-05
  31    -6.3678663770954e-06
  32    -0.0001150135823019
  33    5.1612054946904e-05
  34    0.00041903046026624
  35    -0.0056452983818785
  36    -5.3604882617213e-05
  37    -1.1828013281015e-05
  38    8.5016567565309e-05
  39     0.001804299890643
  40    0.0010715809433235
  41     0.001492914426409
  42    -0.00017559970923071
  43    -3.8439510844946e-05
  44    -3.4408854918836e-05
  45    -2.1781956308832e-05
  46    -4.9426776415796e-05
  47    -4.0559503345914e-05
  48    -0.00033995460836517
  49    2.6745380696298e-05
  50    1.6304393913288e-05
  51    0.0042604700814072
  52    -0.00012879230468958
  53    -9.3603479185011e-05
  54    -0.00030211749069812
  55    0.0014894523529189
  56    0.0010179383727681
  57     0.004071890317489
  58    0.00012782853395221
  59    0.00017884748443578
  60    0.00011463348670073
  61    -5.5744464472702e-05
  62    -9.7568884092027e-05
  63    0.00026760853042314
  64    0.00010166903622754
  65    1.4385265426348e-07
  66     -1.6774323769e-06
  67    1.5262310781441e-07
  68    1.2149906785144e-06
  69    3.7888961981798e-07
  70    -9.9534989972394e-07
  71    9.8261836404779e-07
  72    -2.3919876217564e-07
  73    -2.2350038355754e-06
  74    -2.3277158092018e-07
  75    2.5245187098387e-06
  76    -2.3837286440317e-07
  77    -6.0886915094838e-08
  78    -1.4817816501112e-07
  79    -1.0331456334681e-07
  80    -6.6178575538916e-08
  81    -6.5587734788989e-08
  82    -4.4032306787868e-07
  83    -2.1432533900467e-07
  84    -1.9537103806776e-06
  85    9.3755917482449e-06
  86    -1.4852766995793e-08
  87    1.8514368793572e-07
  88      -5.558739409e-07
  89    -4.7654829940104e-06
  90    8.0551859147902e-06
  91    -1.1097363311275e-07
  92    9.0318479162965e-08
  93    5.2617225330304e-07
  94    -8.308033982656e-07
  95    3.365972404774e-07
  96    5.1148673390595e-08
  97    -8.0983263533842e-07
  98    2.3039222126971e-07
  99    1.1225668555202e-07
 100    1.1126827687818e-06
 101    4.9959301885353e-07
 102    2.6743058766306e-06
 103    -7.8904847492754e-05
 104    -4.2249571898321e-07
 105    -1.7492168395361e-06
 106    2.2251293162665e-06
 107    3.2072553352986e-05
 108    -3.4488782554158e-05
 109    4.7408657753366e-06
 110    -7.1080667425796e-07
 111    -1.1215263781895e-06
 112    5.0731178398299e-07
 113    5.7938905182336e-07
 114    1.6270556207932e-06
 115    -3.4981819961496e-07
 116    -4.0815765557223e-06
 117    7.0599001539683e-06
 118    4.2330873113106e-07
 119    -1.5705977064768e-06
 120    1.3093835113371e-06
 121    -3.5568000466816e-06
 122    1.0611387405917e-05
 123    -1.6436120376185e-05
 124    -5.2713988448987e-07
 125    5.3538638639205e-07
 126    6.0218204015836e-07
 127    1.7266059253562e-07
 128    2.2027910333962e-07
 129    -1.4624546764253e-07
 130    -3.3205890006359e-06
 131    -4.6217118723746e-05
 132    -5.5542893317719e-06
 133    -2.9262915062498e-06
 134    4.3250024048324e-06
 135    0.0001078017333496
 136    -1.0163694793132e-05
 137    3.3465869595358e-05
 138     -1.1017353291e-06
 139    -8.8812114615991e-07
 140    -2.6065030363673e-06
 141    2.8475172727524e-07
 142    -1.7342407563168e-06
 143    8.3557692591119e-08
 144    1.9045605246863e-06
 145    3.2968305523504e-05
 146    2.3597908280094e-07
 147    1.4554530999592e-06
 148    -4.4371543822886e-06
 149    1.0201588010787e-05
 150    -3.4739875610455e-05
 151    1.6316956968727e-05
 152    9.2435901651277e-07
 153    -1.5645413115156e-07
 154    1.955667336297e-06
 155    8.1919214572272e-08
 156    9.3589294015756e-07
 157    -5.977183188558e-07
 158    -4.9102048672917e-06
 159    2.9325649546916e-05
 160    -1.9073474303263e-07
 161    -9.563777229452e-07
 162    1.3261001165192e-06
 163    1.0383597593777e-05
 164    -1.1580230871868e-05
 165    -1.4724359961526e-06
 166    -1.0029361578288e-06
 167    2.9065539508037e-07
 168    -2.0811452306458e-07
 169    -4.3084605266308e-07
 170    -7.668206112716e-07
 171    2.5185638339457e-08
 172    -4.20434075238e-07
 173    -4.2640775453915e-06
 174    -5.2054776080693e-08
 175    1.7771655251792e-07
 176    -1.2655096730612e-06
 177    -1.1297631709488e-05
 178    -3.9950776582459e-06
 179    -5.1132980862239e-06
 180    3.1079700172559e-07
 181    -1.3208610507489e-06
 182    -1.2536816329416e-08
 183    -6.8436123385841e-07
 184    -9.9921585407443e-07
 185    6.5182514877484e-07
 186    5.6829202710508e-06
 187    -2.6364053867746e-05
 188    1.1275478368775e-06
 189    7.4499182600745e-08
 190    -1.149467610642e-07
 191    1.9015536840813e-07
 192    9.4247157626034e-06
 193    1.2531774475196e-05
 194    -5.4251123929638e-07
 195    -7.2057884140592e-07
 196    -1.4459553158884e-06
 197    4.2750713346776e-07
 198    -3.2670126287388e-07
 199    1.7370282016527e-06
 200    -1.3862633320701e-06
 201    2.1082802418009e-07
 202    -1.9014083527567e-06
 203    7.2258424772696e-07
 204    6.101674355271e-06
 205    -2.5320063921039e-06
 206    -1.5258180866456e-07
 207    2.0751248060002e-07
 208    -1.6334819953543e-05
 209    -2.3739290454409e-06
 210    1.9129851659592e-07
 211    -1.8220457432462e-06
 212    -3.2568278307806e-06
 213    -4.3991394667211e-07
 214    3.3116821610069e-06
 215    2.5459498692958e-06
 216    -1.6060766016494e-05
 217    -6.2394545657868e-07
 218    1.4718046441213e-07
 219    -7.5490894626955e-07
 220    2.2516130097671e-06
 221    3.5410553910618e-06
 222    2.0122390862469e-05
 223    -0.00023125560113159
 224    -7.5937140015294e-06
 225    2.4474301829137e-06
 226    6.5575544969415e-07
 227    -3.9434579772903e-05
 228    -4.8106436503824e-05
 229    0.00025732002742024
 230    -5.7688778429773e-06
 231    8.5145591027352e-06
 232    5.8081981681072e-06
 233    -2.9890571807237e-06
 234    -2.0973091595626e-06
 235    -9.2033678499296e-06
 236    -4.5353344718371e-05
 237    0.00068741770871434
 238    9.5389198909017e-06
 239    1.0375031383763e-05
 240    -9.5494977233011e-06
 241    -0.00021463228705729
 242    -5.1258319550089e-05
 243    -9.7954608791216e-05
 244    1.8411148303304e-05
 245    -3.2815844635816e-06
 246    -5.2993561259861e-06
 247    1.4244657080588e-06
 248    3.5952340339667e-06
 249    1.1172296939735e-05
 250    1.9798979905018e-05
 251    -1.3509135314236e-05
 252    3.850126820748e-05
 253    -0.0010234727938446
 254    1.0926338180353e-05
 255    -7.6272168738664e-06
 256    2.3898948238881e-05
 257    -0.00044760410510976
 258    -5.4083411840299e-05
 259    -9.2154843086853e-05
 260    -1.8471523291035e-05
 261    5.1408806623654e-06
 262    5.8588644445547e-06
 263    -6.6590500557999e-06
 264    -8.5610842334004e-07
 265    1.0849717073634e-05
 266    1.0614046007444e-05
 267    -2.832105289176e-05
 268    -6.2445935868223e-05
 269    0.00026006556886908
 270    9.2302499056144e-05
 271    0.0034230086237184
 272    -0.00025999944462378
 273    -0.00016951997624689
 274    -0.00044203530414078
 275    0.0015785319643889
 276    0.00088289945406698
 277    -0.0040302244307235
 278    0.00039313323037093
 279    -6.0301645561934e-05