[Molden Format]
made by pyscf v[2.0.1]
[Atoms] (AU)
C   1   6     0.69100024066471     0.64692934207205    -3.48223131169301
H   2   1     2.68052439830868     1.13355088658700    -3.25784032593313
C   3   6    -0.36286361513219     0.85440132524594    -5.97030179418974
H   4   1    -2.35448549047279     0.36322488579172    -6.17995817793143
C   5   6     0.93697958957450     1.61209284601821    -8.05828437677121
H   6   1     1.52220939200985     3.58023657898303    -8.21595213017833
C   7   6     1.59282573286669    -0.05175011382745   -10.09734693546315
H   8   1     0.99474836942587    -2.01839690080961    -9.91207388765078
H   9   1     1.55630230933075    -1.92953025305990    12.99630010416247
C   10   6     0.75233899775814    -2.21270439606481    11.10705728102219
H   11   1    -0.43433408177274    -3.90944857546550    11.22216085340412
C   12   6     2.86362581178706    -2.63237380607947     9.17926416456045
H   13   1     4.39038949912609    -1.24955421540245     9.49899813497433
H   14   1     3.74629220191363    -4.48798724300892     9.47414880959024
C   15   6     2.02478325613682    -2.42177285709634     6.44560829588644
C   16   6     3.88048732735477    -3.58795445234514     4.61402886975252
C   17   6    -0.18412382258602    -1.30464291234259     5.76021113872346
C   18   6    -2.10044360464350    -0.26837831858460     7.71610340967100
C   19   6    -3.08956938670431     2.35282328359417     6.88693925039594
C   20   6    -4.37372924086464    -2.09766595989678     7.93610724222001
C   21   6    -0.83850430601230     0.06372213486173    10.33002307638377
H   22   1     0.38411922151109     1.74281358582432    10.27380136542181
H   23   1    -2.30980003007874     0.45460143924521    11.73986301809809
H   24   1     4.58527064644668    -5.38706904487420     5.36778158031719
H   25   1     5.54944938085014    -2.37631462192748     4.35398898413318
H   26   1     3.06633019150423    -3.94118377050688     2.75255466040884
H   27   1    -4.17727778763735     2.26573369139522     5.12914900961283
H   28   1    -1.52662344944051     3.68001877445626     6.59540397144508
H   29   1    -4.32916174397830     3.13643051467482     8.35225460090378
H   30   1    -5.32329548508442    -2.36691813602939     6.11583672749896
H   31   1    -5.77989366602257    -1.33896741843465     9.25748940450990
H   32   1    -3.79310905208926    -3.96389819310853     8.61386170102686
C   33   6    -1.01100794811226    -1.06331657314144     3.11929490449947
C   34   6     0.37686231036534    -0.33275864505552     1.09165013605873
H   35   1    -3.01671213906703    -1.40297922279997     2.77827895090944
C   36   6    -0.64382707979370    -0.11591880174385    -1.42063131251064
H   37   1     2.35569259782137     0.17174499283897     1.33641070251401
H   38   1    -2.63317482980319    -0.60229203511219    -1.66119700387645
C   39   6     2.88089126504443     0.61821658123040   -12.21129238571255
C   40   6     3.45664863859100    -1.22033421200677   -14.18493293343049
H   41   1     3.53070761900678     2.54536442784122   -12.51396089296279
O   42   8     4.60321296142939    -0.74877588551315   -16.13014426558594
H   43   1     2.75622344406002    -3.16930929543288   -13.79624335354022
[GTO]
1 0
 s    6 1.00
             3047.5249  0.0018347001629433
             457.36951    0.01403730124668
             103.94869   0.068842606114048
             29.210155    0.23218442062076
              9.286663    0.46794134155879
              3.163927    0.36231203217765
 s    3 1.00
             7.8682724   -0.11933240861517
             1.8812885   -0.16085421161283
             0.5442493     1.1434564825515
 s    1 1.00
             0.1687144                   1
 p    3 1.00
             7.8682724   0.068999095584993
             1.8812885    0.31642397975315
             0.5442493    0.74430825237435
 p    1 1.00
             0.1687144                   1
 d    1 1.00
                   0.8                   1

2 0
 s    3 1.00
             18.731137    0.03349459952309
             2.8253937    0.23472694665786
             0.6401217    0.81375731841339
 s    1 1.00
             0.1612778                   1

3 0
 s    6 1.00
             3047.5249  0.0018347001629433
             457.36951    0.01403730124668
             103.94869   0.068842606114048
             29.210155    0.23218442062076
              9.286663    0.46794134155879
              3.163927    0.36231203217765
 s    3 1.00
             7.8682724   -0.11933240861517
             1.8812885   -0.16085421161283
             0.5442493     1.1434564825515
 s    1 1.00
             0.1687144                   1
 p    3 1.00
             7.8682724   0.068999095584993
             1.8812885    0.31642397975315
             0.5442493    0.74430825237435
 p    1 1.00
             0.1687144                   1
 d    1 1.00
                   0.8                   1

4 0
 s    3 1.00
             18.731137    0.03349459952309
             2.8253937    0.23472694665786
             0.6401217    0.81375731841339
 s    1 1.00
             0.1612778                   1

5 0
 s    6 1.00
             3047.5249  0.0018347001629433
             457.36951    0.01403730124668
             103.94869   0.068842606114048
             29.210155    0.23218442062076
              9.286663    0.46794134155879
              3.163927    0.36231203217765
 s    3 1.00
             7.8682724   -0.11933240861517
             1.8812885   -0.16085421161283
             0.5442493     1.1434564825515
 s    1 1.00
             0.1687144                   1
 p    3 1.00
             7.8682724   0.068999095584993
             1.8812885    0.31642397975315
             0.5442493    0.74430825237435
 p    1 1.00
             0.1687144                   1
 d    1 1.00
                   0.8                   1

6 0
 s    3 1.00
             18.731137    0.03349459952309
             2.8253937    0.23472694665786
             0.6401217    0.81375731841339
 s    1 1.00
             0.1612778                   1

7 0
 s    6 1.00
             3047.5249  0.0018347001629433
             457.36951    0.01403730124668
             103.94869   0.068842606114048
             29.210155    0.23218442062076
              9.286663    0.46794134155879
              3.163927    0.36231203217765
 s    3 1.00
             7.8682724   -0.11933240861517
             1.8812885   -0.16085421161283
             0.5442493     1.1434564825515
 s    1 1.00
             0.1687144                   1
 p    3 1.00
             7.8682724   0.068999095584993
             1.8812885    0.31642397975315
             0.5442493    0.74430825237435
 p    1 1.00
             0.1687144                   1
 d    1 1.00
                   0.8                   1

8 0
 s    3 1.00
             18.731137    0.03349459952309
             2.8253937    0.23472694665786
             0.6401217    0.81375731841339
 s    1 1.00
             0.1612778                   1

9 0
 s    3 1.00
             18.731137    0.03349459952309
             2.8253937    0.23472694665786
             0.6401217    0.81375731841339
 s    1 1.00
             0.1612778                   1

10 0
 s    6 1.00
             3047.5249  0.0018347001629433
             457.36951    0.01403730124668
             103.94869   0.068842606114048
             29.210155    0.23218442062076
              9.286663    0.46794134155879
              3.163927    0.36231203217765
 s    3 1.00
             7.8682724   -0.11933240861517
             1.8812885   -0.16085421161283
             0.5442493     1.1434564825515
 s    1 1.00
             0.1687144                   1
 p    3 1.00
             7.8682724   0.068999095584993
             1.8812885    0.31642397975315
             0.5442493    0.74430825237435
 p    1 1.00
             0.1687144                   1
 d    1 1.00
                   0.8                   1

11 0
 s    3 1.00
             18.731137    0.03349459952309
             2.8253937    0.23472694665786
             0.6401217    0.81375731841339
 s    1 1.00
             0.1612778                   1

12 0
 s    6 1.00
             3047.5249  0.0018347001629433
             457.36951    0.01403730124668
             103.94869   0.068842606114048
             29.210155    0.23218442062076
              9.286663    0.46794134155879
              3.163927    0.36231203217765
 s    3 1.00
             7.8682724   -0.11933240861517
             1.8812885   -0.16085421161283
             0.5442493     1.1434564825515
 s    1 1.00
             0.1687144                   1
 p    3 1.00
             7.8682724   0.068999095584993
             1.8812885    0.31642397975315
             0.5442493    0.74430825237435
 p    1 1.00
             0.1687144                   1
 d    1 1.00
                   0.8                   1

13 0
 s    3 1.00
             18.731137    0.03349459952309
             2.8253937    0.23472694665786
             0.6401217    0.81375731841339
 s    1 1.00
             0.1612778                   1

14 0
 s    3 1.00
             18.731137    0.03349459952309
             2.8253937    0.23472694665786
             0.6401217    0.81375731841339
 s    1 1.00
             0.1612778                   1

15 0
 s    6 1.00
             3047.5249  0.0018347001629433
             457.36951    0.01403730124668
             103.94869   0.068842606114048
             29.210155    0.23218442062076
              9.286663    0.46794134155879
              3.163927    0.36231203217765
 s    3 1.00
             7.8682724   -0.11933240861517
             1.8812885   -0.16085421161283
             0.5442493     1.1434564825515
 s    1 1.00
             0.1687144                   1
 p    3 1.00
             7.8682724   0.068999095584993
             1.8812885    0.31642397975315
             0.5442493    0.74430825237435
 p    1 1.00
             0.1687144                   1
 d    1 1.00
                   0.8                   1

16 0
 s    6 1.00
             3047.5249  0.0018347001629433
             457.36951    0.01403730124668
             103.94869   0.068842606114048
             29.210155    0.23218442062076
              9.286663    0.46794134155879
              3.163927    0.36231203217765
 s    3 1.00
             7.8682724   -0.11933240861517
             1.8812885   -0.16085421161283
             0.5442493     1.1434564825515
 s    1 1.00
             0.1687144                   1
 p    3 1.00
             7.8682724   0.068999095584993
             1.8812885    0.31642397975315
             0.5442493    0.74430825237435
 p    1 1.00
             0.1687144                   1
 d    1 1.00
                   0.8                   1

17 0
 s    6 1.00
             3047.5249  0.0018347001629433
             457.36951    0.01403730124668
             103.94869   0.068842606114048
             29.210155    0.23218442062076
              9.286663    0.46794134155879
              3.163927    0.36231203217765
 s    3 1.00
             7.8682724   -0.11933240861517
             1.8812885   -0.16085421161283
             0.5442493     1.1434564825515
 s    1 1.00
             0.1687144                   1
 p    3 1.00
             7.8682724   0.068999095584993
             1.8812885    0.31642397975315
             0.5442493    0.74430825237435
 p    1 1.00
             0.1687144                   1
 d    1 1.00
                   0.8                   1

18 0
 s    6 1.00
             3047.5249  0.0018347001629433
             457.36951    0.01403730124668
             103.94869   0.068842606114048
             29.210155    0.23218442062076
              9.286663    0.46794134155879
              3.163927    0.36231203217765
 s    3 1.00
             7.8682724   -0.11933240861517
             1.8812885   -0.16085421161283
             0.5442493     1.1434564825515
 s    1 1.00
             0.1687144                   1
 p    3 1.00
             7.8682724   0.068999095584993
             1.8812885    0.31642397975315
             0.5442493    0.74430825237435
 p    1 1.00
             0.1687144                   1
 d    1 1.00
                   0.8                   1

19 0
 s    6 1.00
             3047.5249  0.0018347001629433
             457.36951    0.01403730124668
             103.94869   0.068842606114048
             29.210155    0.23218442062076
              9.286663    0.46794134155879
              3.163927    0.36231203217765
 s    3 1.00
             7.8682724   -0.11933240861517
             1.8812885   -0.16085421161283
             0.5442493     1.1434564825515
 s    1 1.00
             0.1687144                   1
 p    3 1.00
             7.8682724   0.068999095584993
             1.8812885    0.31642397975315
             0.5442493    0.74430825237435
 p    1 1.00
             0.1687144                   1
 d    1 1.00
                   0.8                   1

20 0
 s    6 1.00
             3047.5249  0.0018347001629433
             457.36951    0.01403730124668
             103.94869   0.068842606114048
             29.210155    0.23218442062076
              9.286663    0.46794134155879
              3.163927    0.36231203217765
 s    3 1.00
             7.8682724   -0.11933240861517
             1.8812885   -0.16085421161283
             0.5442493     1.1434564825515
 s    1 1.00
             0.1687144                   1
 p    3 1.00
             7.8682724   0.068999095584993
             1.8812885    0.31642397975315
             0.5442493    0.74430825237435
 p    1 1.00
             0.1687144                   1
 d    1 1.00
                   0.8                   1

21 0
 s    6 1.00
             3047.5249  0.0018347001629433
             457.36951    0.01403730124668
             103.94869   0.068842606114048
             29.210155    0.23218442062076
              9.286663    0.46794134155879
              3.163927    0.36231203217765
 s    3 1.00
             7.8682724   -0.11933240861517
             1.8812885   -0.16085421161283
             0.5442493     1.1434564825515
 s    1 1.00
             0.1687144                   1
 p    3 1.00
             7.8682724   0.068999095584993
             1.8812885    0.31642397975315
             0.5442493    0.74430825237435
 p    1 1.00
             0.1687144                   1
 d    1 1.00
                   0.8                   1

22 0
 s    3 1.00
             18.731137    0.03349459952309
             2.8253937    0.23472694665786
             0.6401217    0.81375731841339
 s    1 1.00
             0.1612778                   1

23 0
 s    3 1.00
             18.731137    0.03349459952309
             2.8253937    0.23472694665786
             0.6401217    0.81375731841339
 s    1 1.00
             0.1612778                   1

24 0
 s    3 1.00
             18.731137    0.03349459952309
             2.8253937    0.23472694665786
             0.6401217    0.81375731841339
 s    1 1.00
             0.1612778                   1

25 0
 s    3 1.00
             18.731137    0.03349459952309
             2.8253937    0.23472694665786
             0.6401217    0.81375731841339
 s    1 1.00
             0.1612778                   1

26 0
 s    3 1.00
             18.731137    0.03349459952309
             2.8253937    0.23472694665786
             0.6401217    0.81375731841339
 s    1 1.00
             0.1612778                   1

27 0
 s    3 1.00
             18.731137    0.03349459952309
             2.8253937    0.23472694665786
             0.6401217    0.81375731841339
 s    1 1.00
             0.1612778                   1

28 0
 s    3 1.00
             18.731137    0.03349459952309
             2.8253937    0.23472694665786
             0.6401217    0.81375731841339
 s    1 1.00
             0.1612778                   1

29 0
 s    3 1.00
             18.731137    0.03349459952309
             2.8253937    0.23472694665786
             0.6401217    0.81375731841339
 s    1 1.00
             0.1612778                   1

30 0
 s    3 1.00
             18.731137    0.03349459952309
             2.8253937    0.23472694665786
             0.6401217    0.81375731841339
 s    1 1.00
             0.1612778                   1

31 0
 s    3 1.00
             18.731137    0.03349459952309
             2.8253937    0.23472694665786
             0.6401217    0.81375731841339
 s    1 1.00
             0.1612778                   1

32 0
 s    3 1.00
             18.731137    0.03349459952309
             2.8253937    0.23472694665786
             0.6401217    0.81375731841339
 s    1 1.00
             0.1612778                   1

33 0
 s    6 1.00
             3047.5249  0.0018347001629433
             457.36951    0.01403730124668
             103.94869   0.068842606114048
             29.210155    0.23218442062076
              9.286663    0.46794134155879
              3.163927    0.36231203217765
 s    3 1.00
             7.8682724   -0.11933240861517
             1.8812885   -0.16085421161283
             0.5442493     1.1434564825515
 s    1 1.00
             0.1687144                   1
 p    3 1.00
             7.8682724   0.068999095584993
             1.8812885    0.31642397975315
             0.5442493    0.74430825237435
 p    1 1.00
             0.1687144                   1
 d    1 1.00
                   0.8                   1

34 0
 s    6 1.00
             3047.5249  0.0018347001629433
             457.36951    0.01403730124668
             103.94869   0.068842606114048
             29.210155    0.23218442062076
              9.286663    0.46794134155879
              3.163927    0.36231203217765
 s    3 1.00
             7.8682724   -0.11933240861517
             1.8812885   -0.16085421161283
             0.5442493     1.1434564825515
 s    1 1.00
             0.1687144                   1
 p    3 1.00
             7.8682724   0.068999095584993
             1.8812885    0.31642397975315
             0.5442493    0.74430825237435
 p    1 1.00
             0.1687144                   1
 d    1 1.00
                   0.8                   1

35 0
 s    3 1.00
             18.731137    0.03349459952309
             2.8253937    0.23472694665786
             0.6401217    0.81375731841339
 s    1 1.00
             0.1612778                   1

36 0
 s    6 1.00
             3047.5249  0.0018347001629433
             457.36951    0.01403730124668
             103.94869   0.068842606114048
             29.210155    0.23218442062076
              9.286663    0.46794134155879
              3.163927    0.36231203217765
 s    3 1.00
             7.8682724   -0.11933240861517
             1.8812885   -0.16085421161283
             0.5442493     1.1434564825515
 s    1 1.00
             0.1687144                   1
 p    3 1.00
             7.8682724   0.068999095584993
             1.8812885    0.31642397975315
             0.5442493    0.74430825237435
 p    1 1.00
             0.1687144                   1
 d    1 1.00
                   0.8                   1

37 0
 s    3 1.00
             18.731137    0.03349459952309
             2.8253937    0.23472694665786
             0.6401217    0.81375731841339
 s    1 1.00
             0.1612778                   1

38 0
 s    3 1.00
             18.731137    0.03349459952309
             2.8253937    0.23472694665786
             0.6401217    0.81375731841339
 s    1 1.00
             0.1612778                   1

39 0
 s    6 1.00
             3047.5249  0.0018347001629433
             457.36951    0.01403730124668
             103.94869   0.068842606114048
             29.210155    0.23218442062076
              9.286663    0.46794134155879
              3.163927    0.36231203217765
 s    3 1.00
             7.8682724   -0.11933240861517
             1.8812885   -0.16085421161283
             0.5442493     1.1434564825515
 s    1 1.00
             0.1687144                   1
 p    3 1.00
             7.8682724   0.068999095584993
             1.8812885    0.31642397975315
             0.5442493    0.74430825237435
 p    1 1.00
             0.1687144                   1
 d    1 1.00
                   0.8                   1

40 0
 s    6 1.00
             3047.5249  0.0018347001629433
             457.36951    0.01403730124668
             103.94869   0.068842606114048
             29.210155    0.23218442062076
              9.286663    0.46794134155879
              3.163927    0.36231203217765
 s    3 1.00
             7.8682724   -0.11933240861517
             1.8812885   -0.16085421161283
             0.5442493     1.1434564825515
 s    1 1.00
             0.1687144                   1
 p    3 1.00
             7.8682724   0.068999095584993
             1.8812885    0.31642397975315
             0.5442493    0.74430825237435
 p    1 1.00
             0.1687144                   1
 d    1 1.00
                   0.8                   1

41 0
 s    3 1.00
             18.731137    0.03349459952309
             2.8253937    0.23472694665786
             0.6401217    0.81375731841339
 s    1 1.00
             0.1612778                   1

42 0
 s    6 1.00
             5484.6717   0.001831099805527
             825.23495   0.013950098518422
             188.04696    0.06844509273075
               52.9645    0.23271427528445
              16.89757    0.47019295006289
             5.7996353    0.35852086192309
 s    3 1.00
             15.539616   -0.11077750382508
             3.5999336   -0.14802630511126
             1.0137618     1.1307670390447
 s    1 1.00
             0.2700058                   1
 p    3 1.00
             15.539616   0.070874299543311
             3.5999336    0.33975279781076
             1.0137618    0.72715859531445
 p    1 1.00
             0.2700058                   1
 d    1 1.00
                   0.8                   1

43 0
 s    3 1.00
             18.731137    0.03349459952309
             2.8253937    0.23472694665786
             0.6401217    0.81375731841339
 s    1 1.00
             0.1612778                   1

[5d]
[7f]
[9g]

[MO]
 Sym= A
 Ene=               0
 Spin= Alpha
 Occup=    1.00000
   1    -2.2951354261878e-06
   2    -2.028061477476e-05
   3    0.00013177500478079
   4    -9.2682153541166e-06
   5    2.4333604413569e-05
   6    5.8136290642996e-06
   7    -4.7727845513743e-05
   8    -4.3349223590438e-06
   9    -0.00024990616581897
  10    -2.3015721352429e-06
  11    9.5324193592981e-06
  12    4.4225695548396e-06
  13    1.2734314339311e-05
  14    -6.9364931570647e-06
  15    -8.0486980766445e-06
  16    3.0443187433961e-05
  17    7.8201739738231e-06
  18    0.00013483631726999
  19    0.00057613104281066
  20    4.2255133583959e-05
  21    -2.6161065427235e-05
  22    -6.2670962640333e-05
  23    0.00015679326205236
  24    -4.7478846056346e-05
  25     -0.00071233771056
  26    2.8418466489731e-05
  27    -2.3468744878832e-05
  28    2.7907034913446e-07
  29    4.423337043101e-05
  30    -1.9729661751031e-05
  31    -9.2909195003474e-06
  32    8.8398190110044e-06
  33    4.2552372058975e-05
  34    0.00037766249667247
  35    -0.0046080864662353
  36    -7.2790175515779e-05
  37    5.2681729089734e-06
  38    0.00012310382131127
  39    7.8943032876851e-05
  40    0.0019371695104656
  41    0.00084550993118398
  42    -6.8357675015569e-05
  43    9.1242399028619e-05
  44    -9.6509459965878e-05
  45    4.3211165216246e-05
  46    1.2161710516506e-05
  47    -1.0144718880672e-05
  48    -0.00028835496221001
  49    3.4555102803653e-05
  50    6.5274092131844e-05
  51    0.0036624663987394
  52    6.6449970820146e-05
  53    -0.0002386985356221
  54    -0.00024152914045355
  55    -0.00086385709782064
  56    0.0026405054659529
  57    0.0029013009988257
  58    2.752045550414e-05
  59    6.4966968894754e-05
  60    0.00020583839713423
  61    5.8876364100283e-06
  62    -0.00013136437383407
  63    0.00027718926501351
  64    5.8636170964025e-05
  65    -1.1208672112877e-07
  66    -1.3078748531616e-07
  67    1.2333606293144e-08
  68    -5.8473995807791e-07
  69    3.1622094560854e-06
  70    -2.6176912691731e-07
  71    -2.9325969382574e-08
  72    3.4389327820687e-07
  73    -4.0522011051054e-07
  74    2.0226087818156e-06
  75    2.3858359177101e-07
  76    -5.8088059776118e-08
  77    -9.2920059233397e-08
  78    2.2544699667758e-08
  79    8.2067407876568e-08
  80    -6.427211792217e-08
  81    1.3500552699074e-07
  82    4.5853983419834e-07
  83    5.5317973615492e-08
  84    -2.2247404844277e-07
  85    -1.0169746119405e-05
  86    1.0638885482879e-06
  87    6.4157152402828e-07
  88    6.8596662616251e-07
  89    3.0915841977066e-06
  90    -3.9288711353882e-06
  91    2.3851050936555e-06
  92    1.014741366423e-07
  93    -1.084968290136e-07
  94    3.2747525971369e-07
  95    7.9053988420488e-08
  96    -2.5267773934486e-08
  97    1.3675638990854e-06
  98    2.2532153440501e-06
  99    -4.9119092029196e-07
 100    -1.7475132275464e-06
 101    -2.3267128228686e-07
 102    -7.8114609204337e-07
 103    1.2084253414962e-05
 104    -2.2857253979192e-06
 105    -3.7050756372947e-06
 106    -2.2907744687937e-07
 107    -1.5353226660217e-05
 108    9.6324111341278e-06
 109    2.2114728032813e-05
 110    -5.5060394657007e-07
 111    -4.845586163542e-07
 112    2.5188141035463e-07
 113    6.5642634345478e-07
 114    -1.9422213064706e-07
 115    -4.4942215119499e-07
 116    -4.592951464619e-06
 117    3.1953899388275e-05
 118    -4.5449191957047e-07
 119    1.1057071861583e-06
 120    3.5051410474766e-07
 121    -6.2361610192859e-06
 122    -3.2240590144236e-07
 123    -1.9415210099354e-06
 124    -6.1833363655942e-08
 125    -8.699870782205e-08
 126    -2.1986244570701e-07
 127    6.4781646281763e-08
 128    -1.3401926505204e-07
 129    -8.3358945265647e-07
 130    -7.9371635600139e-06
 131    3.2200803658387e-05
 132    -1.2363644312888e-06
 133    -3.7230205882052e-06
 134    3.4677194073135e-06
 135    -1.5707958224403e-05
 136    3.0238303001643e-06
 137    -5.7749945063775e-05
 138    1.755712066156e-06
 139    1.1485734116882e-06
 140    -1.1606491924353e-07
 141    2.6301400447694e-07
 142    -1.1048354426802e-07
 143    -3.0980119627291e-08
 144    -2.1924293759681e-06
 145    1.0442104464987e-05
 146    -3.3312043246783e-08
 147    1.5007924795967e-06
 148    7.2328661191683e-07
 149    6.7593395725785e-06
 150    -1.0430765520505e-05
 151    2.209590686271e-06
 152    -8.1564264847718e-07
 153    -1.9325651665353e-07
 154    1.5867680235405e-07
 155    5.3370256074892e-07
 156    -4.3554244348858e-07
 157    2.0585616082048e-08
 158    1.4866910863114e-07
 159    5.2460836473735e-06
 160    9.8668294027452e-07
 161    -6.0379573331985e-07
 162    7.2496215188487e-07
 163    -2.8933156432978e-06
 164    -2.1770826079582e-06
 165    7.4345187952011e-07
 166    2.017125320702e-07
 167    2.0486516929359e-08
 168    -4.0956148864853e-08
 169    -1.6094172944746e-07
 170    1.0241139146179e-07
 171    1.7081086613206e-07
 172    -6.0858613991781e-07
 173    -3.7825143219854e-06
 174    -1.0657602731741e-06
 175    -2.0683082558946e-07
 176    7.1063232648413e-07
 177    -1.7006374238402e-06
 178    3.2233390690872e-07
 179    -2.5486601546804e-06
 180    2.0061911413305e-07
 181    5.0131719515719e-08
 182    -4.2244615508737e-08
 183    -3.9782354898426e-07
 184    3.4865081856639e-08
 185    -2.777053389274e-07
 186    -1.8729636413375e-06
 187    6.0816848979087e-07
 188    -1.5594233521863e-07
 189    6.5501197968176e-08
 190    2.2219976008368e-07
 191    1.8871583116007e-06
 192    2.4523794514732e-06
 193    -4.8636284424586e-06
 194    3.1136814184713e-07
 195    -4.2240712766975e-08
 196    -1.1295159840772e-07
 197    5.0726625275243e-08
 198    -8.5364192079638e-08
 199    -4.6755424034395e-07
 200    -1.5180289449496e-06
 201    -2.9554715957708e-07
 202    1.8604464665088e-06
 203    -2.0213814025762e-06
 204    -2.4950035392954e-06
 205    2.6861274143832e-09
 206    -9.1235490523118e-07
 207    1.8268118945307e-06
 208    -1.6834388401166e-05
 209    3.7101484777533e-07
 210    -3.0529053475196e-06
 211    1.9364492292337e-08
 212    2.0823379004501e-06
 213    -1.7935869043983e-07
 214    -1.4155805179106e-06
 215    -2.0022518148576e-07
 216    -8.9398866701819e-07
 217    3.7656163323749e-07
 218    1.1542752731691e-06
 219    6.2000124618858e-08
 220    1.4437583683972e-06
 221    5.2810866493817e-07
 222    -7.7891862379486e-06
 223    -1.7169731947493e-05
 224    -4.0034582193843e-06
 225    4.0389720964194e-06
 226    5.2209503929862e-06
 227    1.4421740863296e-05
 228    1.9789291997883e-05
 229    -4.802982043894e-05
 230    -1.4693168283637e-06
 231    -2.4638370534622e-06
 232    -1.7437552030948e-06
 233    1.1513143649372e-06
 234    2.5287679547057e-06
 235    1.9283940621903e-07
 236    -4.2687677553495e-06
 237    0.00011583635755853
 238    5.201647481239e-06
 239    1.2934588457481e-05
 240    -4.3403672317257e-06
 241    -3.5204883324296e-05
 242    -1.1349874662045e-05
 243    -0.00011073464859196
 244    4.3506346105127e-06
 245    6.2571808097282e-06
 246    2.3052244841226e-06
 247    2.8575666962899e-06
 248    2.919320877039e-06
 249    -1.0579188678486e-06
 250    1.3518559772446e-05
 251    -1.3621653966041e-05
 252    -2.0537086366699e-05
 253    4.2568655740513e-05
 254    6.6864369267529e-06
 255    -8.6774193780172e-06
 256    2.0993849144453e-05
 257    2.388142077384e-05
 258    0.00010710710695572
 259    -0.00019451389007349
 260    -1.4418726775186e-06
 261    -8.6472760613847e-06
 262    -6.0014526007989e-06
 263    4.1156325754006e-06
 264    7.8801956365072e-06
 265    4.787278565081e-06
 266    3.0490751632964e-05
 267    -1.3209797456835e-05
 268    2.6579828919797e-05
 269    0.00025889654842144
 270    8.8264938581848e-05
 271    0.0034057398754982
 272    7.7386753363721e-05
 273    -0.00042351377386187
 274    -0.00032198864753384
 275    0.0021205077615074
 276    0.00058281193351351
 277    -0.0037255558452664
 278    0.00029780763790651
 279    -0.00018108953598074
 280    0.00013884707481578