[Molden Format]
made by pyscf v[2.0.1]
[Atoms] (AU)
C   1   6     0.69100024066471     0.64692934207205    -3.48223131169301
H   2   1     2.68052439830868     1.13355088658700    -3.25784032593313
C   3   6    -0.36286361513219     0.85440132524594    -5.97030179418974
H   4   1    -2.35448549047279     0.36322488579172    -6.17995817793143
C   5   6     0.93697958957450     1.61209284601821    -8.05828437677121
H   6   1     1.11826626333964     3.62551264984471    -8.45099117670825
C   7   6     2.10097243920823    -0.10888483292738    -9.80174075747215
H   8   1     1.90436861547379    -2.12023320363586    -9.38275759847606
H   9   1     1.55630230933075    -1.92953025305990    12.99630010416247
C   10   6     0.75233899775814    -2.21270439606481    11.10705728102219
H   11   1    -0.43433408177274    -3.90944857546550    11.22216085340412
C   12   6     2.86362581178706    -2.63237380607947     9.17926416456045
H   13   1     4.39038949912609    -1.24955421540245     9.49899813497433
H   14   1     3.74629220191363    -4.48798724300892     9.47414880959024
C   15   6     2.02478325613682    -2.42177285709634     6.44560829588644
C   16   6     3.88048732735477    -3.58795445234514     4.61402886975252
C   17   6    -0.18412382258602    -1.30464291234259     5.76021113872346
C   18   6    -2.10044360464350    -0.26837831858460     7.71610340967100
C   19   6    -3.08956938670431     2.35282328359417     6.88693925039594
C   20   6    -4.37372924086464    -2.09766595989678     7.93610724222001
C   21   6    -0.83850430601230     0.06372213486173    10.33002307638377
H   22   1     0.38411922151109     1.74281358582432    10.27380136542181
H   23   1    -2.30980003007874     0.45460143924521    11.73986301809809
H   24   1     4.58527064644668    -5.38706904487420     5.36778158031719
H   25   1     5.54944938085014    -2.37631462192748     4.35398898413318
H   26   1     3.06633019150423    -3.94118377050688     2.75255466040884
H   27   1    -4.17727778763735     2.26573369139522     5.12914900961283
H   28   1    -1.52662344944051     3.68001877445626     6.59540397144508
H   29   1    -4.32916174397830     3.13643051467482     8.35225460090378
H   30   1    -5.32329548508442    -2.36691813602939     6.11583672749896
H   31   1    -5.77989366602257    -1.33896741843465     9.25748940450990
H   32   1    -3.79310905208926    -3.96389819310853     8.61386170102686
C   33   6    -1.01100794811226    -1.06331657314144     3.11929490449947
C   34   6     0.37686231036534    -0.33275864505552     1.09165013605873
H   35   1    -3.01671213906703    -1.40297922279997     2.77827895090944
C   36   6    -0.64382707979370    -0.11591880174385    -1.42063131251064
H   37   1     2.35569259782137     0.17174499283897     1.33641070251401
H   38   1    -2.63317482980319    -0.60229203511219    -1.66119700387645
C   39   6     3.40965399787931     0.55809653308114   -11.90393532262733
C   40   6     4.52549279160481    -1.34135539088305   -13.56345596406470
H   41   1     3.67536210453709     2.52791097593625   -12.43024189111277
O   42   8     5.72170846290986    -0.87635365493868   -15.48013684009233
H   43   1     4.20717735374393    -3.33265649371778   -12.95224886476863
[GTO]
1 0
 s    6 1.00
             3047.5249  0.0018347001629433
             457.36951    0.01403730124668
             103.94869   0.068842606114048
             29.210155    0.23218442062076
              9.286663    0.46794134155879
              3.163927    0.36231203217765
 s    3 1.00
             7.8682724   -0.11933240861517
             1.8812885   -0.16085421161283
             0.5442493     1.1434564825515
 s    1 1.00
             0.1687144                   1
 p    3 1.00
             7.8682724   0.068999095584993
             1.8812885    0.31642397975315
             0.5442493    0.74430825237435
 p    1 1.00
             0.1687144                   1
 d    1 1.00
                   0.8                   1

2 0
 s    3 1.00
             18.731137    0.03349459952309
             2.8253937    0.23472694665786
             0.6401217    0.81375731841339
 s    1 1.00
             0.1612778                   1

3 0
 s    6 1.00
             3047.5249  0.0018347001629433
             457.36951    0.01403730124668
             103.94869   0.068842606114048
             29.210155    0.23218442062076
              9.286663    0.46794134155879
              3.163927    0.36231203217765
 s    3 1.00
             7.8682724   -0.11933240861517
             1.8812885   -0.16085421161283
             0.5442493     1.1434564825515
 s    1 1.00
             0.1687144                   1
 p    3 1.00
             7.8682724   0.068999095584993
             1.8812885    0.31642397975315
             0.5442493    0.74430825237435
 p    1 1.00
             0.1687144                   1
 d    1 1.00
                   0.8                   1

4 0
 s    3 1.00
             18.731137    0.03349459952309
             2.8253937    0.23472694665786
             0.6401217    0.81375731841339
 s    1 1.00
             0.1612778                   1

5 0
 s    6 1.00
             3047.5249  0.0018347001629433
             457.36951    0.01403730124668
             103.94869   0.068842606114048
             29.210155    0.23218442062076
              9.286663    0.46794134155879
              3.163927    0.36231203217765
 s    3 1.00
             7.8682724   -0.11933240861517
             1.8812885   -0.16085421161283
             0.5442493     1.1434564825515
 s    1 1.00
             0.1687144                   1
 p    3 1.00
             7.8682724   0.068999095584993
             1.8812885    0.31642397975315
             0.5442493    0.74430825237435
 p    1 1.00
             0.1687144                   1
 d    1 1.00
                   0.8                   1

6 0
 s    3 1.00
             18.731137    0.03349459952309
             2.8253937    0.23472694665786
             0.6401217    0.81375731841339
 s    1 1.00
             0.1612778                   1

7 0
 s    6 1.00
             3047.5249  0.0018347001629433
             457.36951    0.01403730124668
             103.94869   0.068842606114048
             29.210155    0.23218442062076
              9.286663    0.46794134155879
              3.163927    0.36231203217765
 s    3 1.00
             7.8682724   -0.11933240861517
             1.8812885   -0.16085421161283
             0.5442493     1.1434564825515
 s    1 1.00
             0.1687144                   1
 p    3 1.00
             7.8682724   0.068999095584993
             1.8812885    0.31642397975315
             0.5442493    0.74430825237435
 p    1 1.00
             0.1687144                   1
 d    1 1.00
                   0.8                   1

8 0
 s    3 1.00
             18.731137    0.03349459952309
             2.8253937    0.23472694665786
             0.6401217    0.81375731841339
 s    1 1.00
             0.1612778                   1

9 0
 s    3 1.00
             18.731137    0.03349459952309
             2.8253937    0.23472694665786
             0.6401217    0.81375731841339
 s    1 1.00
             0.1612778                   1

10 0
 s    6 1.00
             3047.5249  0.0018347001629433
             457.36951    0.01403730124668
             103.94869   0.068842606114048
             29.210155    0.23218442062076
              9.286663    0.46794134155879
              3.163927    0.36231203217765
 s    3 1.00
             7.8682724   -0.11933240861517
             1.8812885   -0.16085421161283
             0.5442493     1.1434564825515
 s    1 1.00
             0.1687144                   1
 p    3 1.00
             7.8682724   0.068999095584993
             1.8812885    0.31642397975315
             0.5442493    0.74430825237435
 p    1 1.00
             0.1687144                   1
 d    1 1.00
                   0.8                   1

11 0
 s    3 1.00
             18.731137    0.03349459952309
             2.8253937    0.23472694665786
             0.6401217    0.81375731841339
 s    1 1.00
             0.1612778                   1

12 0
 s    6 1.00
             3047.5249  0.0018347001629433
             457.36951    0.01403730124668
             103.94869   0.068842606114048
             29.210155    0.23218442062076
              9.286663    0.46794134155879
              3.163927    0.36231203217765
 s    3 1.00
             7.8682724   -0.11933240861517
             1.8812885   -0.16085421161283
             0.5442493     1.1434564825515
 s    1 1.00
             0.1687144                   1
 p    3 1.00
             7.8682724   0.068999095584993
             1.8812885    0.31642397975315
             0.5442493    0.74430825237435
 p    1 1.00
             0.1687144                   1
 d    1 1.00
                   0.8                   1

13 0
 s    3 1.00
             18.731137    0.03349459952309
             2.8253937    0.23472694665786
             0.6401217    0.81375731841339
 s    1 1.00
             0.1612778                   1

14 0
 s    3 1.00
             18.731137    0.03349459952309
             2.8253937    0.23472694665786
             0.6401217    0.81375731841339
 s    1 1.00
             0.1612778                   1

15 0
 s    6 1.00
             3047.5249  0.0018347001629433
             457.36951    0.01403730124668
             103.94869   0.068842606114048
             29.210155    0.23218442062076
              9.286663    0.46794134155879
              3.163927    0.36231203217765
 s    3 1.00
             7.8682724   -0.11933240861517
             1.8812885   -0.16085421161283
             0.5442493     1.1434564825515
 s    1 1.00
             0.1687144                   1
 p    3 1.00
             7.8682724   0.068999095584993
             1.8812885    0.31642397975315
             0.5442493    0.74430825237435
 p    1 1.00
             0.1687144                   1
 d    1 1.00
                   0.8                   1

16 0
 s    6 1.00
             3047.5249  0.0018347001629433
             457.36951    0.01403730124668
             103.94869   0.068842606114048
             29.210155    0.23218442062076
              9.286663    0.46794134155879
              3.163927    0.36231203217765
 s    3 1.00
             7.8682724   -0.11933240861517
             1.8812885   -0.16085421161283
             0.5442493     1.1434564825515
 s    1 1.00
             0.1687144                   1
 p    3 1.00
             7.8682724   0.068999095584993
             1.8812885    0.31642397975315
             0.5442493    0.74430825237435
 p    1 1.00
             0.1687144                   1
 d    1 1.00
                   0.8                   1

17 0
 s    6 1.00
             3047.5249  0.0018347001629433
             457.36951    0.01403730124668
             103.94869   0.068842606114048
             29.210155    0.23218442062076
              9.286663    0.46794134155879
              3.163927    0.36231203217765
 s    3 1.00
             7.8682724   -0.11933240861517
             1.8812885   -0.16085421161283
             0.5442493     1.1434564825515
 s    1 1.00
             0.1687144                   1
 p    3 1.00
             7.8682724   0.068999095584993
             1.8812885    0.31642397975315
             0.5442493    0.74430825237435
 p    1 1.00
             0.1687144                   1
 d    1 1.00
                   0.8                   1

18 0
 s    6 1.00
             3047.5249  0.0018347001629433
             457.36951    0.01403730124668
             103.94869   0.068842606114048
             29.210155    0.23218442062076
              9.286663    0.46794134155879
              3.163927    0.36231203217765
 s    3 1.00
             7.8682724   -0.11933240861517
             1.8812885   -0.16085421161283
             0.5442493     1.1434564825515
 s    1 1.00
             0.1687144                   1
 p    3 1.00
             7.8682724   0.068999095584993
             1.8812885    0.31642397975315
             0.5442493    0.74430825237435
 p    1 1.00
             0.1687144                   1
 d    1 1.00
                   0.8                   1

19 0
 s    6 1.00
             3047.5249  0.0018347001629433
             457.36951    0.01403730124668
             103.94869   0.068842606114048
             29.210155    0.23218442062076
              9.286663    0.46794134155879
              3.163927    0.36231203217765
 s    3 1.00
             7.8682724   -0.11933240861517
             1.8812885   -0.16085421161283
             0.5442493     1.1434564825515
 s    1 1.00
             0.1687144                   1
 p    3 1.00
             7.8682724   0.068999095584993
             1.8812885    0.31642397975315
             0.5442493    0.74430825237435
 p    1 1.00
             0.1687144                   1
 d    1 1.00
                   0.8                   1

20 0
 s    6 1.00
             3047.5249  0.0018347001629433
             457.36951    0.01403730124668
             103.94869   0.068842606114048
             29.210155    0.23218442062076
              9.286663    0.46794134155879
              3.163927    0.36231203217765
 s    3 1.00
             7.8682724   -0.11933240861517
             1.8812885   -0.16085421161283
             0.5442493     1.1434564825515
 s    1 1.00
             0.1687144                   1
 p    3 1.00
             7.8682724   0.068999095584993
             1.8812885    0.31642397975315
             0.5442493    0.74430825237435
 p    1 1.00
             0.1687144                   1
 d    1 1.00
                   0.8                   1

21 0
 s    6 1.00
             3047.5249  0.0018347001629433
             457.36951    0.01403730124668
             103.94869   0.068842606114048
             29.210155    0.23218442062076
              9.286663    0.46794134155879
              3.163927    0.36231203217765
 s    3 1.00
             7.8682724   -0.11933240861517
             1.8812885   -0.16085421161283
             0.5442493     1.1434564825515
 s    1 1.00
             0.1687144                   1
 p    3 1.00
             7.8682724   0.068999095584993
             1.8812885    0.31642397975315
             0.5442493    0.74430825237435
 p    1 1.00
             0.1687144                   1
 d    1 1.00
                   0.8                   1

22 0
 s    3 1.00
             18.731137    0.03349459952309
             2.8253937    0.23472694665786
             0.6401217    0.81375731841339
 s    1 1.00
             0.1612778                   1

23 0
 s    3 1.00
             18.731137    0.03349459952309
             2.8253937    0.23472694665786
             0.6401217    0.81375731841339
 s    1 1.00
             0.1612778                   1

24 0
 s    3 1.00
             18.731137    0.03349459952309
             2.8253937    0.23472694665786
             0.6401217    0.81375731841339
 s    1 1.00
             0.1612778                   1

25 0
 s    3 1.00
             18.731137    0.03349459952309
             2.8253937    0.23472694665786
             0.6401217    0.81375731841339
 s    1 1.00
             0.1612778                   1

26 0
 s    3 1.00
             18.731137    0.03349459952309
             2.8253937    0.23472694665786
             0.6401217    0.81375731841339
 s    1 1.00
             0.1612778                   1

27 0
 s    3 1.00
             18.731137    0.03349459952309
             2.8253937    0.23472694665786
             0.6401217    0.81375731841339
 s    1 1.00
             0.1612778                   1

28 0
 s    3 1.00
             18.731137    0.03349459952309
             2.8253937    0.23472694665786
             0.6401217    0.81375731841339
 s    1 1.00
             0.1612778                   1

29 0
 s    3 1.00
             18.731137    0.03349459952309
             2.8253937    0.23472694665786
             0.6401217    0.81375731841339
 s    1 1.00
             0.1612778                   1

30 0
 s    3 1.00
             18.731137    0.03349459952309
             2.8253937    0.23472694665786
             0.6401217    0.81375731841339
 s    1 1.00
             0.1612778                   1

31 0
 s    3 1.00
             18.731137    0.03349459952309
             2.8253937    0.23472694665786
             0.6401217    0.81375731841339
 s    1 1.00
             0.1612778                   1

32 0
 s    3 1.00
             18.731137    0.03349459952309
             2.8253937    0.23472694665786
             0.6401217    0.81375731841339
 s    1 1.00
             0.1612778                   1

33 0
 s    6 1.00
             3047.5249  0.0018347001629433
             457.36951    0.01403730124668
             103.94869   0.068842606114048
             29.210155    0.23218442062076
              9.286663    0.46794134155879
              3.163927    0.36231203217765
 s    3 1.00
             7.8682724   -0.11933240861517
             1.8812885   -0.16085421161283
             0.5442493     1.1434564825515
 s    1 1.00
             0.1687144                   1
 p    3 1.00
             7.8682724   0.068999095584993
             1.8812885    0.31642397975315
             0.5442493    0.74430825237435
 p    1 1.00
             0.1687144                   1
 d    1 1.00
                   0.8                   1

34 0
 s    6 1.00
             3047.5249  0.0018347001629433
             457.36951    0.01403730124668
             103.94869   0.068842606114048
             29.210155    0.23218442062076
              9.286663    0.46794134155879
              3.163927    0.36231203217765
 s    3 1.00
             7.8682724   -0.11933240861517
             1.8812885   -0.16085421161283
             0.5442493     1.1434564825515
 s    1 1.00
             0.1687144                   1
 p    3 1.00
             7.8682724   0.068999095584993
             1.8812885    0.31642397975315
             0.5442493    0.74430825237435
 p    1 1.00
             0.1687144                   1
 d    1 1.00
                   0.8                   1

35 0
 s    3 1.00
             18.731137    0.03349459952309
             2.8253937    0.23472694665786
             0.6401217    0.81375731841339
 s    1 1.00
             0.1612778                   1

36 0
 s    6 1.00
             3047.5249  0.0018347001629433
             457.36951    0.01403730124668
             103.94869   0.068842606114048
             29.210155    0.23218442062076
              9.286663    0.46794134155879
              3.163927    0.36231203217765
 s    3 1.00
             7.8682724   -0.11933240861517
             1.8812885   -0.16085421161283
             0.5442493     1.1434564825515
 s    1 1.00
             0.1687144                   1
 p    3 1.00
             7.8682724   0.068999095584993
             1.8812885    0.31642397975315
             0.5442493    0.74430825237435
 p    1 1.00
             0.1687144                   1
 d    1 1.00
                   0.8                   1

37 0
 s    3 1.00
             18.731137    0.03349459952309
             2.8253937    0.23472694665786
             0.6401217    0.81375731841339
 s    1 1.00
             0.1612778                   1

38 0
 s    3 1.00
             18.731137    0.03349459952309
             2.8253937    0.23472694665786
             0.6401217    0.81375731841339
 s    1 1.00
             0.1612778                   1

39 0
 s    6 1.00
             3047.5249  0.0018347001629433
             457.36951    0.01403730124668
             103.94869   0.068842606114048
             29.210155    0.23218442062076
              9.286663    0.46794134155879
              3.163927    0.36231203217765
 s    3 1.00
             7.8682724   -0.11933240861517
             1.8812885   -0.16085421161283
             0.5442493     1.1434564825515
 s    1 1.00
             0.1687144                   1
 p    3 1.00
             7.8682724   0.068999095584993
             1.8812885    0.31642397975315
             0.5442493    0.74430825237435
 p    1 1.00
             0.1687144                   1
 d    1 1.00
                   0.8                   1

40 0
 s    6 1.00
             3047.5249  0.0018347001629433
             457.36951    0.01403730124668
             103.94869   0.068842606114048
             29.210155    0.23218442062076
              9.286663    0.46794134155879
              3.163927    0.36231203217765
 s    3 1.00
             7.8682724   -0.11933240861517
             1.8812885   -0.16085421161283
             0.5442493     1.1434564825515
 s    1 1.00
             0.1687144                   1
 p    3 1.00
             7.8682724   0.068999095584993
             1.8812885    0.31642397975315
             0.5442493    0.74430825237435
 p    1 1.00
             0.1687144                   1
 d    1 1.00
                   0.8                   1

41 0
 s    3 1.00
             18.731137    0.03349459952309
             2.8253937    0.23472694665786
             0.6401217    0.81375731841339
 s    1 1.00
             0.1612778                   1

42 0
 s    6 1.00
             5484.6717   0.001831099805527
             825.23495   0.013950098518422
             188.04696    0.06844509273075
               52.9645    0.23271427528445
              16.89757    0.47019295006289
             5.7996353    0.35852086192309
 s    3 1.00
             15.539616   -0.11077750382508
             3.5999336   -0.14802630511126
             1.0137618     1.1307670390447
 s    1 1.00
             0.2700058                   1
 p    3 1.00
             15.539616   0.070874299543311
             3.5999336    0.33975279781076
             1.0137618    0.72715859531445
 p    1 1.00
             0.2700058                   1
 d    1 1.00
                   0.8                   1

43 0
 s    3 1.00
             18.731137    0.03349459952309
             2.8253937    0.23472694665786
             0.6401217    0.81375731841339
 s    1 1.00
             0.1612778                   1

[5d]
[7f]
[9g]

[MO]
 Sym= A
 Ene=               0
 Spin= Alpha
 Occup=    1.00000
   1    -7.9826131163665e-07
   2    -1.9232636080463e-05
   3    3.6013965485155e-05
   4    -6.2586527485246e-06
   5    1.3469039125698e-06
   6    1.6304295418482e-05
   7    1.7482732948464e-05
   8    8.8389420105457e-05
   9    -0.00039077994353689
  10    -2.7504446205009e-09
  11    1.2159667466767e-05
  12    2.6993855538277e-06
  13    1.4854989746348e-05
  14    -8.0784320864073e-06
  15    -1.4115448795955e-05
  16    2.1088946075288e-05
  17    8.7848748109189e-06
  18    0.00017096409575295
  19    0.00046035476995731
  20    5.6266506828368e-05
  21    -9.7737338499481e-06
  22    -7.4410519560989e-05
  23    0.00017004930103491
  24    -9.2838544028642e-05
  25    -0.00067123017367367
  26    2.3642754623036e-05
  27    -2.4859074833386e-05
  28    9.5898096844373e-06
  29    4.5512633338764e-05
  30    -5.5084048307718e-06
  31    -1.1220616720048e-05
  32    2.9232728319192e-05
  33    5.7632216686286e-05
  34    0.00038079676859361
  35    -0.0046569245154133
  36    -8.6209477371969e-05
  37    1.8410875985713e-05
  38    0.00014656512368738
  39    -0.00041839643676116
  40    0.0020367598819234
  41    0.00059479862664495
  42    -3.1583284986465e-05
  43     0.000111231977723
  44    -7.6001808340739e-05
  45    3.4380635439705e-05
  46    5.032768846763e-05
  47    -1.5402327538456e-05
  48    -0.00029381168514146
  49    4.7849180473397e-05
  50    0.00020526337794793
  51    0.0037876820745753
  52    0.00019762299616847
  53    -0.00023222929734807
  54    -0.00030014655552975
  55    -0.0016571163523758
  56    0.0027321977106294
  57    0.0024707655573324
  58    -1.6504202593341e-05
  59    4.105548752702e-05
  60    0.00020220584810868
  61    2.3963220975688e-05
  62    -0.00012674375495228
  63    0.00032421850316992
  64    8.4589935704103e-05
  65    -2.3865525132426e-07
  66    -3.3227496327259e-07
  67    -4.4175808451793e-08
  68    -6.0229102762692e-07
  69    3.1028383265622e-06
  70    2.4267891633553e-07
  71    -3.503161031864e-07
  72    1.2289789362739e-07
  73    2.5399064888456e-07
  74    1.7983726924453e-06
  75    1.2006670624026e-07
  76    -5.582663093445e-08
  77    -1.2828066003294e-07
  78    5.2681819439833e-08
  79    8.0590191184892e-08
  80    -1.0714755208553e-07
  81    9.2485630736042e-08
  82    2.2267213254643e-07
  83    2.476963399593e-08
  84    -1.5944299559963e-07
  85    -1.3758251834987e-05
  86    6.513936687472e-07
  87    1.0084104962393e-07
  88    9.173803044964e-07
  89    3.5709009988998e-06
  90    -5.1245599974957e-06
  91    3.2385575211229e-06
  92    1.7859392519747e-07
  93    -2.9155543103943e-07
  94    3.6832309927772e-07
  95    3.6562430669009e-08
  96    -1.6143991816762e-07
  97    7.0965209146662e-07
  98    9.5283594822623e-07
  99    -5.8595220290322e-08
 100    -1.2116809443078e-06
 101    -8.9428129914692e-08
 102    -1.0669597713551e-06
 103    1.6088511130743e-05
 104    1.2933123970551e-07
 105    -1.0346369461369e-06
 106    -6.1529031670527e-07
 107    -2.0429947865289e-05
 108    1.8475821062408e-05
 109    3.0747203981193e-05
 110    -6.1297496623644e-07
 111    -5.4461139297458e-07
 112    2.3941703612294e-07
 113    4.2111755192265e-07
 114    -5.3008305670278e-07
 115    -5.1427444117425e-07
 116    -4.7604913436072e-06
 117    3.8047218097893e-05
 118    -6.8710547892153e-07
 119    1.0956796725751e-06
 120    8.650432208387e-07
 121    -8.4177050733077e-06
 122    6.3602226756923e-07
 123    2.2643877038332e-06
 124    -6.5508619105578e-08
 125    -2.1032176051053e-07
 126    -1.6074985404733e-07
 127    7.6593332453728e-08
 128    -3.5480576745005e-07
 129    -1.0000623856659e-06
 130    -9.1179412951726e-06
 131    5.1051828802029e-05
 132    1.6504484970813e-07
 133    -5.0717989922024e-07
 134    3.6283451258699e-06
 135    -2.6423145941951e-05
 136    2.0918428334172e-06
 137    -8.2426077336553e-05
 138    2.5342488442721e-06
 139    1.5758999659581e-06
 140    2.6334256019496e-07
 141    4.257407865663e-07
 142    1.037833863688e-07
 143    -3.8580930920648e-07
 144    -3.7296376474173e-06
 145    1.8322202932978e-05
 146    2.6571646537155e-07
 147    6.3948325964522e-07
 148    4.3589344107532e-07
 149    1.1399856734143e-05
 150    -7.3506823376367e-06
 151    -2.4072907138371e-06
 152    -1.0640946794326e-06
 153    -3.7233024840853e-07
 154    -1.0689029191108e-07
 155    7.4194188580025e-07
 156    -7.3003329323156e-07
 157    1.0086530063841e-07
 158    8.4377977375297e-07
 159    1.2605455335729e-06
 160    7.7284366796744e-07
 161    -1.451542268812e-07
 162    -3.0823390312964e-08
 163    -6.2535434010336e-06
 164    -6.6566212794309e-08
 165    8.458707871032e-07
 166    4.3893827958066e-07
 167    -1.3717007750798e-07
 168    6.7580489313422e-09
 169    -1.195734731626e-07
 170    2.7807257709705e-07
 171    3.1590444617008e-08
 172    -4.2328920290674e-07
 173    -1.9754098727103e-06
 174    -6.9956300054356e-07
 175    -1.585499535417e-07
 176    8.0437791834635e-07
 177    -4.329282494804e-07
 178    1.5316917442733e-06
 179    -2.0041747082736e-06
 180    1.6044910058834e-07
 181    2.2053131554778e-07
 182    9.6962765750758e-09
 183    -3.9986337589165e-07
 184    1.8210252756258e-07
 185    -3.1400913636557e-07
 186    -3.1287201200663e-06
 187    2.4815680558332e-06
 188    -2.490764326585e-07
 189    1.3187188686294e-07
 190    1.1386867024611e-06
 191    2.4000210637784e-06
 192    1.0537901859521e-06
 193    -6.031950591586e-06
 194    3.5640754973318e-07
 195    -3.7509655432731e-08
 196    1.5793952384343e-07
 197    7.6059304362179e-08
 198    -9.0634355756256e-08
 199    -7.8946313804473e-07
 200    -1.3732226036751e-06
 201    5.5410545308537e-08
 202    3.4099761399867e-06
 203    -1.7945517854248e-06
 204    -2.0868414631442e-06
 205    -3.3222562329006e-07
 206    -2.4556333241689e-06
 207    1.4584071720315e-06
 208    -1.337557830516e-05
 209    1.0984846714017e-06
 210    -4.3728188124956e-06
 211    4.5229941272793e-07
 212    2.9292615782529e-06
 213    -2.226588986495e-07
 214    -2.2243168025073e-06
 215    -5.1815874078793e-07
 216    5.9629080585966e-07
 217    3.1844540838689e-07
 218    9.164312858493e-07
 219    2.6358041909946e-07
 220    1.1763074227713e-06
 221    -7.4994503747059e-07
 222    -8.7989972514052e-06
 223    -3.5809024931103e-06
 224    9.4093957440653e-08
 225    -3.9828371546285e-07
 226    3.8289226135803e-06
 227    1.5248063576613e-05
 228    2.7891411160196e-05
 229    -9.6687980997285e-05
 230    -1.1428196396561e-06
 231    -4.1666825110354e-06
 232    -2.1199951365103e-06
 233    1.8804050952401e-06
 234    2.9724632100683e-06
 235    -1.1536147966868e-06
 236    -1.1647772477591e-05
 237    3.1567447888932e-05
 238    -1.0305391572245e-06
 239    3.4479496446456e-06
 240     3.49117727593e-06
 241    -2.1970173580531e-05
 242    -9.0568940924513e-06
 243    -0.0001003375776984
 244    2.1704624909467e-06
 245    7.2273934261213e-06
 246    2.3151593168488e-06
 247    2.7430738392563e-06
 248    1.8670177734651e-06
 249    -3.986379478303e-06
 250    1.1881212745999e-05
 251    -1.7642650193393e-06
 252    -2.9247055582015e-05
 253    0.00024362437353697
 254    4.0856889278042e-06
 255    -1.1432245207047e-05
 256    7.6676527469966e-06
 257    0.00010630518910159
 258    0.00011021708846056
 259    -0.00024774934675599
 260    1.7035004696659e-06
 261    -1.2507653402685e-05
 262    -6.2051682426101e-06
 263    7.6291033374239e-06
 264    6.8029963615715e-06
 265    -4.6914362259782e-06
 266    2.9213479828214e-05
 267    -8.4396757074565e-06
 268    4.0665478228441e-05
 269    -1.3354629742749e-05
 270    -6.2848749908446e-05
 271    0.0033368309703603
 272    -8.3185477311357e-06
 273    -0.00020766993378878
 274    2.5858778010686e-05
 275    0.0022061902847921
 276    0.00062477275880047
 277    -0.0035281890965588
 278    0.00024052143107319
 279    -0.00022019592982938
 280    0.00015978649509461