[Molden Format]
made by pyscf v[2.0.1]
[Atoms] (AU)
C   1   6     0.69100024066471     0.64692934207205    -3.48223131169301
H   2   1     2.68052439830868     1.13355088658700    -3.25784032593313
C   3   6    -0.36286361513219     0.85440132524594    -5.97030179418974
H   4   1    -2.35448549047279     0.36322488579172    -6.17995817793143
C   5   6     0.93697958957450     1.61209284601821    -8.05828437677121
H   6   1     2.82520634269342     2.40231158819155    -7.83223822317356
C   7   6    -0.04591716574067     1.43050675384137   -10.57963800872440
H   8   1    -1.93966227025444     0.63380613673234   -10.77641154630544
H   9   1     1.55630230933075    -1.92953025305990    12.99630010416247
C   10   6     0.75233899775814    -2.21270439606481    11.10705728102219
H   11   1    -0.43433408177274    -3.90944857546550    11.22216085340412
C   12   6     2.86362581178706    -2.63237380607947     9.17926416456045
H   13   1     4.39038949912609    -1.24955421540245     9.49899813497433
H   14   1     3.74629220191363    -4.48798724300892     9.47414880959024
C   15   6     2.02478325613682    -2.42177285709634     6.44560829588644
C   16   6     3.88048732735477    -3.58795445234514     4.61402886975252
C   17   6    -0.18412382258602    -1.30464291234259     5.76021113872346
C   18   6    -2.10044360464350    -0.26837831858460     7.71610340967100
C   19   6    -3.08956938670431     2.35282328359417     6.88693925039594
C   20   6    -4.37372924086464    -2.09766595989678     7.93610724222001
C   21   6    -0.83850430601230     0.06372213486173    10.33002307638377
H   22   1     0.38411922151109     1.74281358582432    10.27380136542181
H   23   1    -2.30980003007874     0.45460143924521    11.73986301809809
H   24   1     4.58527064644668    -5.38706904487420     5.36778158031719
H   25   1     5.54944938085014    -2.37631462192748     4.35398898413318
H   26   1     3.06633019150423    -3.94118377050688     2.75255466040884
H   27   1    -4.17727778763735     2.26573369139522     5.12914900961283
H   28   1    -1.52662344944051     3.68001877445626     6.59540397144508
H   29   1    -4.32916174397830     3.13643051467482     8.35225460090378
H   30   1    -5.32329548508442    -2.36691813602939     6.11583672749896
H   31   1    -5.77989366602257    -1.33896741843465     9.25748940450990
H   32   1    -3.79310905208926    -3.96389819310853     8.61386170102686
C   33   6    -1.01100794811226    -1.06331657314144     3.11929490449947
C   34   6     0.37686231036534    -0.33275864505552     1.09165013605873
H   35   1    -3.01671213906703    -1.40297922279997     2.77827895090944
C   36   6    -0.64382707979370    -0.11591880174385    -1.42063131251064
H   37   1     2.35569259782137     0.17174499283897     1.33641070251401
H   38   1    -2.63317482980319    -0.60229203511219    -1.66119700387645
C   39   6     1.17709071185639     2.16235266520763   -12.71162929579923
C   40   6     0.01149368127442     1.89967079998079   -15.19747007607967
H   41   1     3.06674924318564     2.97042403350516   -12.64854490967844
O   42   8     1.00001917973751     2.51860460578581   -17.18758625638360
H   43   1    -1.92257659968242     1.06364005135718   -15.17290072571517
[GTO]
1 0
 s    6 1.00
             3047.5249  0.0018347001629433
             457.36951    0.01403730124668
             103.94869   0.068842606114048
             29.210155    0.23218442062076
              9.286663    0.46794134155879
              3.163927    0.36231203217765
 s    3 1.00
             7.8682724   -0.11933240861517
             1.8812885   -0.16085421161283
             0.5442493     1.1434564825515
 s    1 1.00
             0.1687144                   1
 p    3 1.00
             7.8682724   0.068999095584993
             1.8812885    0.31642397975315
             0.5442493    0.74430825237435
 p    1 1.00
             0.1687144                   1
 d    1 1.00
                   0.8                   1

2 0
 s    3 1.00
             18.731137    0.03349459952309
             2.8253937    0.23472694665786
             0.6401217    0.81375731841339
 s    1 1.00
             0.1612778                   1

3 0
 s    6 1.00
             3047.5249  0.0018347001629433
             457.36951    0.01403730124668
             103.94869   0.068842606114048
             29.210155    0.23218442062076
              9.286663    0.46794134155879
              3.163927    0.36231203217765
 s    3 1.00
             7.8682724   -0.11933240861517
             1.8812885   -0.16085421161283
             0.5442493     1.1434564825515
 s    1 1.00
             0.1687144                   1
 p    3 1.00
             7.8682724   0.068999095584993
             1.8812885    0.31642397975315
             0.5442493    0.74430825237435
 p    1 1.00
             0.1687144                   1
 d    1 1.00
                   0.8                   1

4 0
 s    3 1.00
             18.731137    0.03349459952309
             2.8253937    0.23472694665786
             0.6401217    0.81375731841339
 s    1 1.00
             0.1612778                   1

5 0
 s    6 1.00
             3047.5249  0.0018347001629433
             457.36951    0.01403730124668
             103.94869   0.068842606114048
             29.210155    0.23218442062076
              9.286663    0.46794134155879
              3.163927    0.36231203217765
 s    3 1.00
             7.8682724   -0.11933240861517
             1.8812885   -0.16085421161283
             0.5442493     1.1434564825515
 s    1 1.00
             0.1687144                   1
 p    3 1.00
             7.8682724   0.068999095584993
             1.8812885    0.31642397975315
             0.5442493    0.74430825237435
 p    1 1.00
             0.1687144                   1
 d    1 1.00
                   0.8                   1

6 0
 s    3 1.00
             18.731137    0.03349459952309
             2.8253937    0.23472694665786
             0.6401217    0.81375731841339
 s    1 1.00
             0.1612778                   1

7 0
 s    6 1.00
             3047.5249  0.0018347001629433
             457.36951    0.01403730124668
             103.94869   0.068842606114048
             29.210155    0.23218442062076
              9.286663    0.46794134155879
              3.163927    0.36231203217765
 s    3 1.00
             7.8682724   -0.11933240861517
             1.8812885   -0.16085421161283
             0.5442493     1.1434564825515
 s    1 1.00
             0.1687144                   1
 p    3 1.00
             7.8682724   0.068999095584993
             1.8812885    0.31642397975315
             0.5442493    0.74430825237435
 p    1 1.00
             0.1687144                   1
 d    1 1.00
                   0.8                   1

8 0
 s    3 1.00
             18.731137    0.03349459952309
             2.8253937    0.23472694665786
             0.6401217    0.81375731841339
 s    1 1.00
             0.1612778                   1

9 0
 s    3 1.00
             18.731137    0.03349459952309
             2.8253937    0.23472694665786
             0.6401217    0.81375731841339
 s    1 1.00
             0.1612778                   1

10 0
 s    6 1.00
             3047.5249  0.0018347001629433
             457.36951    0.01403730124668
             103.94869   0.068842606114048
             29.210155    0.23218442062076
              9.286663    0.46794134155879
              3.163927    0.36231203217765
 s    3 1.00
             7.8682724   -0.11933240861517
             1.8812885   -0.16085421161283
             0.5442493     1.1434564825515
 s    1 1.00
             0.1687144                   1
 p    3 1.00
             7.8682724   0.068999095584993
             1.8812885    0.31642397975315
             0.5442493    0.74430825237435
 p    1 1.00
             0.1687144                   1
 d    1 1.00
                   0.8                   1

11 0
 s    3 1.00
             18.731137    0.03349459952309
             2.8253937    0.23472694665786
             0.6401217    0.81375731841339
 s    1 1.00
             0.1612778                   1

12 0
 s    6 1.00
             3047.5249  0.0018347001629433
             457.36951    0.01403730124668
             103.94869   0.068842606114048
             29.210155    0.23218442062076
              9.286663    0.46794134155879
              3.163927    0.36231203217765
 s    3 1.00
             7.8682724   -0.11933240861517
             1.8812885   -0.16085421161283
             0.5442493     1.1434564825515
 s    1 1.00
             0.1687144                   1
 p    3 1.00
             7.8682724   0.068999095584993
             1.8812885    0.31642397975315
             0.5442493    0.74430825237435
 p    1 1.00
             0.1687144                   1
 d    1 1.00
                   0.8                   1

13 0
 s    3 1.00
             18.731137    0.03349459952309
             2.8253937    0.23472694665786
             0.6401217    0.81375731841339
 s    1 1.00
             0.1612778                   1

14 0
 s    3 1.00
             18.731137    0.03349459952309
             2.8253937    0.23472694665786
             0.6401217    0.81375731841339
 s    1 1.00
             0.1612778                   1

15 0
 s    6 1.00
             3047.5249  0.0018347001629433
             457.36951    0.01403730124668
             103.94869   0.068842606114048
             29.210155    0.23218442062076
              9.286663    0.46794134155879
              3.163927    0.36231203217765
 s    3 1.00
             7.8682724   -0.11933240861517
             1.8812885   -0.16085421161283
             0.5442493     1.1434564825515
 s    1 1.00
             0.1687144                   1
 p    3 1.00
             7.8682724   0.068999095584993
             1.8812885    0.31642397975315
             0.5442493    0.74430825237435
 p    1 1.00
             0.1687144                   1
 d    1 1.00
                   0.8                   1

16 0
 s    6 1.00
             3047.5249  0.0018347001629433
             457.36951    0.01403730124668
             103.94869   0.068842606114048
             29.210155    0.23218442062076
              9.286663    0.46794134155879
              3.163927    0.36231203217765
 s    3 1.00
             7.8682724   -0.11933240861517
             1.8812885   -0.16085421161283
             0.5442493     1.1434564825515
 s    1 1.00
             0.1687144                   1
 p    3 1.00
             7.8682724   0.068999095584993
             1.8812885    0.31642397975315
             0.5442493    0.74430825237435
 p    1 1.00
             0.1687144                   1
 d    1 1.00
                   0.8                   1

17 0
 s    6 1.00
             3047.5249  0.0018347001629433
             457.36951    0.01403730124668
             103.94869   0.068842606114048
             29.210155    0.23218442062076
              9.286663    0.46794134155879
              3.163927    0.36231203217765
 s    3 1.00
             7.8682724   -0.11933240861517
             1.8812885   -0.16085421161283
             0.5442493     1.1434564825515
 s    1 1.00
             0.1687144                   1
 p    3 1.00
             7.8682724   0.068999095584993
             1.8812885    0.31642397975315
             0.5442493    0.74430825237435
 p    1 1.00
             0.1687144                   1
 d    1 1.00
                   0.8                   1

18 0
 s    6 1.00
             3047.5249  0.0018347001629433
             457.36951    0.01403730124668
             103.94869   0.068842606114048
             29.210155    0.23218442062076
              9.286663    0.46794134155879
              3.163927    0.36231203217765
 s    3 1.00
             7.8682724   -0.11933240861517
             1.8812885   -0.16085421161283
             0.5442493     1.1434564825515
 s    1 1.00
             0.1687144                   1
 p    3 1.00
             7.8682724   0.068999095584993
             1.8812885    0.31642397975315
             0.5442493    0.74430825237435
 p    1 1.00
             0.1687144                   1
 d    1 1.00
                   0.8                   1

19 0
 s    6 1.00
             3047.5249  0.0018347001629433
             457.36951    0.01403730124668
             103.94869   0.068842606114048
             29.210155    0.23218442062076
              9.286663    0.46794134155879
              3.163927    0.36231203217765
 s    3 1.00
             7.8682724   -0.11933240861517
             1.8812885   -0.16085421161283
             0.5442493     1.1434564825515
 s    1 1.00
             0.1687144                   1
 p    3 1.00
             7.8682724   0.068999095584993
             1.8812885    0.31642397975315
             0.5442493    0.74430825237435
 p    1 1.00
             0.1687144                   1
 d    1 1.00
                   0.8                   1

20 0
 s    6 1.00
             3047.5249  0.0018347001629433
             457.36951    0.01403730124668
             103.94869   0.068842606114048
             29.210155    0.23218442062076
              9.286663    0.46794134155879
              3.163927    0.36231203217765
 s    3 1.00
             7.8682724   -0.11933240861517
             1.8812885   -0.16085421161283
             0.5442493     1.1434564825515
 s    1 1.00
             0.1687144                   1
 p    3 1.00
             7.8682724   0.068999095584993
             1.8812885    0.31642397975315
             0.5442493    0.74430825237435
 p    1 1.00
             0.1687144                   1
 d    1 1.00
                   0.8                   1

21 0
 s    6 1.00
             3047.5249  0.0018347001629433
             457.36951    0.01403730124668
             103.94869   0.068842606114048
             29.210155    0.23218442062076
              9.286663    0.46794134155879
              3.163927    0.36231203217765
 s    3 1.00
             7.8682724   -0.11933240861517
             1.8812885   -0.16085421161283
             0.5442493     1.1434564825515
 s    1 1.00
             0.1687144                   1
 p    3 1.00
             7.8682724   0.068999095584993
             1.8812885    0.31642397975315
             0.5442493    0.74430825237435
 p    1 1.00
             0.1687144                   1
 d    1 1.00
                   0.8                   1

22 0
 s    3 1.00
             18.731137    0.03349459952309
             2.8253937    0.23472694665786
             0.6401217    0.81375731841339
 s    1 1.00
             0.1612778                   1

23 0
 s    3 1.00
             18.731137    0.03349459952309
             2.8253937    0.23472694665786
             0.6401217    0.81375731841339
 s    1 1.00
             0.1612778                   1

24 0
 s    3 1.00
             18.731137    0.03349459952309
             2.8253937    0.23472694665786
             0.6401217    0.81375731841339
 s    1 1.00
             0.1612778                   1

25 0
 s    3 1.00
             18.731137    0.03349459952309
             2.8253937    0.23472694665786
             0.6401217    0.81375731841339
 s    1 1.00
             0.1612778                   1

26 0
 s    3 1.00
             18.731137    0.03349459952309
             2.8253937    0.23472694665786
             0.6401217    0.81375731841339
 s    1 1.00
             0.1612778                   1

27 0
 s    3 1.00
             18.731137    0.03349459952309
             2.8253937    0.23472694665786
             0.6401217    0.81375731841339
 s    1 1.00
             0.1612778                   1

28 0
 s    3 1.00
             18.731137    0.03349459952309
             2.8253937    0.23472694665786
             0.6401217    0.81375731841339
 s    1 1.00
             0.1612778                   1

29 0
 s    3 1.00
             18.731137    0.03349459952309
             2.8253937    0.23472694665786
             0.6401217    0.81375731841339
 s    1 1.00
             0.1612778                   1

30 0
 s    3 1.00
             18.731137    0.03349459952309
             2.8253937    0.23472694665786
             0.6401217    0.81375731841339
 s    1 1.00
             0.1612778                   1

31 0
 s    3 1.00
             18.731137    0.03349459952309
             2.8253937    0.23472694665786
             0.6401217    0.81375731841339
 s    1 1.00
             0.1612778                   1

32 0
 s    3 1.00
             18.731137    0.03349459952309
             2.8253937    0.23472694665786
             0.6401217    0.81375731841339
 s    1 1.00
             0.1612778                   1

33 0
 s    6 1.00
             3047.5249  0.0018347001629433
             457.36951    0.01403730124668
             103.94869   0.068842606114048
             29.210155    0.23218442062076
              9.286663    0.46794134155879
              3.163927    0.36231203217765
 s    3 1.00
             7.8682724   -0.11933240861517
             1.8812885   -0.16085421161283
             0.5442493     1.1434564825515
 s    1 1.00
             0.1687144                   1
 p    3 1.00
             7.8682724   0.068999095584993
             1.8812885    0.31642397975315
             0.5442493    0.74430825237435
 p    1 1.00
             0.1687144                   1
 d    1 1.00
                   0.8                   1

34 0
 s    6 1.00
             3047.5249  0.0018347001629433
             457.36951    0.01403730124668
             103.94869   0.068842606114048
             29.210155    0.23218442062076
              9.286663    0.46794134155879
              3.163927    0.36231203217765
 s    3 1.00
             7.8682724   -0.11933240861517
             1.8812885   -0.16085421161283
             0.5442493     1.1434564825515
 s    1 1.00
             0.1687144                   1
 p    3 1.00
             7.8682724   0.068999095584993
             1.8812885    0.31642397975315
             0.5442493    0.74430825237435
 p    1 1.00
             0.1687144                   1
 d    1 1.00
                   0.8                   1

35 0
 s    3 1.00
             18.731137    0.03349459952309
             2.8253937    0.23472694665786
             0.6401217    0.81375731841339
 s    1 1.00
             0.1612778                   1

36 0
 s    6 1.00
             3047.5249  0.0018347001629433
             457.36951    0.01403730124668
             103.94869   0.068842606114048
             29.210155    0.23218442062076
              9.286663    0.46794134155879
              3.163927    0.36231203217765
 s    3 1.00
             7.8682724   -0.11933240861517
             1.8812885   -0.16085421161283
             0.5442493     1.1434564825515
 s    1 1.00
             0.1687144                   1
 p    3 1.00
             7.8682724   0.068999095584993
             1.8812885    0.31642397975315
             0.5442493    0.74430825237435
 p    1 1.00
             0.1687144                   1
 d    1 1.00
                   0.8                   1

37 0
 s    3 1.00
             18.731137    0.03349459952309
             2.8253937    0.23472694665786
             0.6401217    0.81375731841339
 s    1 1.00
             0.1612778                   1

38 0
 s    3 1.00
             18.731137    0.03349459952309
             2.8253937    0.23472694665786
             0.6401217    0.81375731841339
 s    1 1.00
             0.1612778                   1

39 0
 s    6 1.00
             3047.5249  0.0018347001629433
             457.36951    0.01403730124668
             103.94869   0.068842606114048
             29.210155    0.23218442062076
              9.286663    0.46794134155879
              3.163927    0.36231203217765
 s    3 1.00
             7.8682724   -0.11933240861517
             1.8812885   -0.16085421161283
             0.5442493     1.1434564825515
 s    1 1.00
             0.1687144                   1
 p    3 1.00
             7.8682724   0.068999095584993
             1.8812885    0.31642397975315
             0.5442493    0.74430825237435
 p    1 1.00
             0.1687144                   1
 d    1 1.00
                   0.8                   1

40 0
 s    6 1.00
             3047.5249  0.0018347001629433
             457.36951    0.01403730124668
             103.94869   0.068842606114048
             29.210155    0.23218442062076
              9.286663    0.46794134155879
              3.163927    0.36231203217765
 s    3 1.00
             7.8682724   -0.11933240861517
             1.8812885   -0.16085421161283
             0.5442493     1.1434564825515
 s    1 1.00
             0.1687144                   1
 p    3 1.00
             7.8682724   0.068999095584993
             1.8812885    0.31642397975315
             0.5442493    0.74430825237435
 p    1 1.00
             0.1687144                   1
 d    1 1.00
                   0.8                   1

41 0
 s    3 1.00
             18.731137    0.03349459952309
             2.8253937    0.23472694665786
             0.6401217    0.81375731841339
 s    1 1.00
             0.1612778                   1

42 0
 s    6 1.00
             5484.6717   0.001831099805527
             825.23495   0.013950098518422
             188.04696    0.06844509273075
               52.9645    0.23271427528445
              16.89757    0.47019295006289
             5.7996353    0.35852086192309
 s    3 1.00
             15.539616   -0.11077750382508
             3.5999336   -0.14802630511126
             1.0137618     1.1307670390447
 s    1 1.00
             0.2700058                   1
 p    3 1.00
             15.539616   0.070874299543311
             3.5999336    0.33975279781076
             1.0137618    0.72715859531445
 p    1 1.00
             0.2700058                   1
 d    1 1.00
                   0.8                   1

43 0
 s    3 1.00
             18.731137    0.03349459952309
             2.8253937    0.23472694665786
             0.6401217    0.81375731841339
 s    1 1.00
             0.1612778                   1

[5d]
[7f]
[9g]

[MO]
 Sym= A
 Ene=               0
 Spin= Alpha
 Occup=    1.00000
   1    -5.1026427661494e-06
   2    -6.7971103995448e-05
   3    -8.5526963897493e-05
   4    -1.7758279020289e-05
   5    -2.7404868056409e-05
   6    4.5861618967274e-05
   7    0.00029000919330942
   8    0.00032146333198663
   9    -0.0010721871354283
  10    2.4954575758661e-05
  11    3.9669072136538e-05
  12    9.3785075258531e-07
  13    7.4069851949722e-06
  14    -2.4394567227625e-06
  15    -6.009574621676e-05
  16    -3.3345900141868e-05
  17    1.812609665897e-05
  18    0.00011141742517667
  19    -0.0023339891709573
  20    -4.5915396468336e-06
  21    -6.0224554327677e-08
  22    5.7002626567312e-05
  23    -0.00045654928548083
  24    -0.00022629141391249
  25    0.00074510647073862
  26    -6.7817109625454e-05
  27    1.3382533053702e-05
  28    2.6525281871982e-05
  29    -3.4952866702667e-06
  30    1.4393124311061e-05
  31    6.341335180578e-06
  32    0.00014196762508346
  33    -5.4739785426297e-05
  34    -0.00044221055210465
  35    0.0059072066736304
  36    5.2054802335949e-05
  37    1.9302319682412e-05
  38    -7.8048635770043e-05
  39    -0.0020910054661944
  40    -0.00072295715990864
  41    -0.0015414540478756
  42    0.00018135916801242
  43    6.1217587147009e-05
  44    -6.13560202964e-06
  45     3.87289866749e-05
  46    3.6724496497498e-05
  47    4.6754976517656e-05
  48    0.00034522479872036
  49    -2.4690371269699e-05
  50    -1.6560011509838e-06
  51    -0.004401633098013
  52    0.00015564328995374
  53    4.409227239336e-05
  54    0.00030188726458136
  55    -0.0018420944391181
  56    -0.0004161535548976
  57    -0.0041910189436989
  58    -0.00013186865803652
  59    -0.00020339687014648
  60    -7.8203956197824e-05
  61    6.2352031797341e-05
  62    9.2078620354571e-05
  63    -0.00026309388135942
  64    -0.00011656994102726
  65    -1.7450442058329e-07
  66    2.0537642830469e-06
  67    -1.7358579741369e-07
  68    -1.6039226371467e-06
  69    3.6959519001052e-07
  70    1.0883769770777e-06
  71    -1.1228791049144e-06
  72    3.7249035016184e-07
  73    2.3408625849275e-06
  74    6.2189848564523e-07
  75    -3.0329673072707e-06
  76    2.7679886769269e-07
  77    5.6973333060574e-08
  78    1.7888453024108e-07
  79    1.4498605672873e-07
  80    7.344280380141e-08
  81    7.216288063939e-08
  82    5.7475205773066e-07
  83    2.8314618245864e-07
  84    2.3728529193643e-06
  85    -1.2002733143526e-05
  86    2.2856860504569e-07
  87    -9.7077104962111e-09
  88    7.5577893456555e-07
  89    6.2225092139546e-06
  90    -1.0143357888197e-05
  91    2.5264602657341e-07
  92    -1.2122008823411e-07
  93    -6.0960065130983e-07
  94    1.0406747792616e-06
  95    -3.8976329672058e-07
  96    -3.4522279434854e-08
  97    1.3103312695931e-06
  98    3.6568856805659e-07
  99    -3.113117435543e-07
 100    -1.6907155861777e-06
 101    -7.0970139262946e-07
 102    -3.5115774377002e-06
 103    9.8743575537775e-05
 104    -4.1721224786054e-07
 105    1.0093063114065e-06
 106    -2.6344068106953e-06
 107    -3.999647630482e-05
 108    4.1076013656147e-05
 109    -5.5506411749662e-06
 110    8.2187016405549e-07
 111    1.2683210096521e-06
 112    -5.6470380093123e-07
 113    -4.4272589580093e-07
 114    -1.9220957155569e-06
 115    3.2815505951311e-07
 116    4.2155287701878e-06
 117    -4.2441397806074e-06
 118    -6.0103905459289e-07
 119    2.3037914786756e-06
 120    -1.7525378882065e-06
 121    4.2722506811001e-06
 122    -1.4446774779602e-05
 123    1.7768171278515e-05
 124    6.3730281041705e-07
 125    -5.6342465027965e-07
 126    -8.2135536853402e-07
 127    -2.7127139375471e-07
 128    -2.1205677900954e-07
 129    8.9391250198164e-08
 130    2.6595716342066e-06
 131    5.5226308865857e-05
 132    6.3700108561965e-06
 133    2.1543404600256e-06
 134    -4.5017737351401e-06
 135    -0.00013137288706981
 136    1.4747542150039e-05
 137    -4.2305195391068e-05
 138    1.4758411937974e-06
 139    1.067190735176e-06
 140    3.0556439968825e-06
 141    -3.4988457230245e-07
 142    2.0317299661901e-06
 143    2.5580721230028e-08
 144    -1.7503354410463e-06
 145    -4.2487064272832e-05
 146    -3.5402156850478e-07
 147    -1.2919035284598e-06
 148    5.4204359151167e-06
 149    -1.2992197382172e-05
 150    3.8623353042363e-05
 151    -1.6479220869566e-05
 152    -1.2350907215046e-06
 153    2.5918333652168e-07
 154    -2.2612536922288e-06
 155    -5.1575294009014e-08
 156    -1.0714655077041e-06
 157    6.9971000309662e-07
 158    5.7057488026496e-06
 159    -3.2403961517073e-05
 160    4.6370652270741e-07
 161    9.0398581381695e-07
 162    -1.2269838508065e-06
 163    -1.202684863728e-05
 164    1.2622457325765e-05
 165    1.6710120102897e-06
 166    1.1295115422189e-06
 167    -2.5753713648892e-07
 168    2.3980169345234e-07
 169    4.6075505611488e-07
 170     8.77317246961e-07
 171    1.2796516887058e-08
 172    4.3474213801182e-07
 173    4.0052242345384e-06
 174    -1.2061530207398e-07
 175    -2.1311770543701e-07
 176    1.5468285775117e-06
 177    1.2867599010328e-05
 178    4.5115876571393e-06
 179    5.2689733675986e-06
 180    -3.1480428858964e-07
 181    1.5414044978336e-06
 182    -5.0679996738195e-08
 183    7.5082304940776e-07
 184    1.1751530591402e-06
 185    -8.1426046640878e-07
 186    -6.8699296318873e-06
 187    3.1127557800134e-05
 188    -1.367452375761e-06
 189    -8.5295871187585e-08
 190    -1.382684979815e-09
 191    3.3782288483043e-07
 192    -1.0283217362798e-05
 193    -1.5696910034759e-05
 194    7.2846098465854e-07
 195    8.4243006849534e-07
 196    1.6233048500681e-06
 197    -5.2954733313232e-07
 198    3.8392046213206e-07
 199    -2.1241232361347e-06
 200    1.2031785292888e-06
 201    -3.299979265362e-07
 202    2.3726614844175e-06
 203    -1.4065872630772e-06
 204    -8.5561208566704e-06
 205    3.1875035321247e-06
 206    5.0615351556516e-07
 207    5.4751051496325e-07
 208    1.3913903258868e-05
 209    2.7014717937144e-06
 210    -6.3937613342549e-07
 211    2.0013388603824e-06
 212    4.1732213575774e-06
 213    5.3858113196606e-07
 214    -3.9986220540205e-06
 215    -3.0149030755258e-06
 216    1.8572360117176e-05
 217    8.1181715213065e-07
 218    3.4266678239922e-08
 219    8.5300797492602e-07
 220    -2.3597492110231e-06
 221    -4.1353088783178e-06
 222    -2.5007380354355e-05
 223    0.00027377715251677
 224    7.7564235908567e-06
 225    -4.7357582895625e-07
 226    -5.9066008300092e-08
 227    5.1682787325699e-05
 228    5.9495349147298e-05
 229    -0.00030410890837781
 230    6.5071360252686e-06
 231    -1.0056942923518e-05
 232    -7.3020304378301e-06
 233    3.492872754616e-06
 234    2.9736135305809e-06
 235    1.0479260103152e-05
 236    5.0805689718473e-05
 237    -0.00078461075443069
 238    -1.0931967245387e-05
 239    -8.3325797663133e-06
 240    1.1795677891509e-05
 241    0.00024836943233285
 242    5.4602644067275e-05
 243    9.3068405366859e-05
 244    -2.0391099317866e-05
 245    4.6727493136887e-06
 246    7.3460511014875e-06
 247    -1.431736179185e-06
 248    -3.0593121769819e-06
 249    -1.2767615550689e-05
 250    -2.0664616227337e-05
 251    1.2929489688759e-05
 252    -4.7466000747418e-05
 253    0.0011760653664206
 254    -1.1291933553995e-05
 255    5.248001563293e-06
 256    -2.5990014591403e-05
 257    0.00051407308952006
 258    9.4271934045355e-05
 259    9.2092333653771e-05
 260    2.0513483037258e-05
 261    -6.4681735954283e-06
 262    -8.7431789694956e-06
 263    7.1842649459421e-06
 264    3.6256203648383e-06
 265    -1.2684606870063e-05
 266    -7.8012776537349e-06
 267    3.1234273246426e-05
 268    7.6589833149483e-05
 269    -0.00025981882029755
 270    -9.0250684724997e-05
 271    -0.003463035981153
 272    0.0003016736293019
 273    8.934587817691e-05
 274    0.00043891825748039
 275    -0.0014636112156896
 276    -0.0010104156979912
 277    0.0040499337022842
 278    -0.00038986074187977
 279    3.9138231782006e-05
 280    6.7852562585893e-05