[Molden Format]
made by pyscf v[2.0.1]
[Atoms] (AU)
C   1   6     0.69100024066471     0.64692934207205    -3.48223131169301
H   2   1     2.68052439830868     1.13355088658700    -3.25784032593313
C   3   6    -0.36286361513219     0.85440132524594    -5.97030179418974
H   4   1    -2.35448549047279     0.36322488579172    -6.17995817793143
C   5   6     0.93697958957450     1.61209284601821    -8.05828437677121
H   6   1     1.11826626333964     3.62551264984471    -8.45099117670825
C   7   6     2.10097243920823    -0.10888483292738    -9.80174075747215
H   8   1     1.90436861547379    -2.12023320363586    -9.38275759847606
H   9   1     1.55630230933075    -1.92953025305990    12.99630010416247
C   10   6     0.75233899775814    -2.21270439606481    11.10705728102219
H   11   1    -0.43433408177274    -3.90944857546550    11.22216085340412
C   12   6     2.86362581178706    -2.63237380607947     9.17926416456045
H   13   1     4.39038949912609    -1.24955421540245     9.49899813497433
H   14   1     3.74629220191363    -4.48798724300892     9.47414880959024
C   15   6     2.02478325613682    -2.42177285709634     6.44560829588644
C   16   6     3.88048732735477    -3.58795445234514     4.61402886975252
C   17   6    -0.18412382258602    -1.30464291234259     5.76021113872346
C   18   6    -2.10044360464350    -0.26837831858460     7.71610340967100
C   19   6    -3.08956938670431     2.35282328359417     6.88693925039594
C   20   6    -4.37372924086464    -2.09766595989678     7.93610724222001
C   21   6    -0.83850430601230     0.06372213486173    10.33002307638377
H   22   1     0.38411922151109     1.74281358582432    10.27380136542181
H   23   1    -2.30980003007874     0.45460143924521    11.73986301809809
H   24   1     4.58527064644668    -5.38706904487420     5.36778158031719
H   25   1     5.54944938085014    -2.37631462192748     4.35398898413318
H   26   1     3.06633019150423    -3.94118377050688     2.75255466040884
H   27   1    -4.17727778763735     2.26573369139522     5.12914900961283
H   28   1    -1.52662344944051     3.68001877445626     6.59540397144508
H   29   1    -4.32916174397830     3.13643051467482     8.35225460090378
H   30   1    -5.32329548508442    -2.36691813602939     6.11583672749896
H   31   1    -5.77989366602257    -1.33896741843465     9.25748940450990
H   32   1    -3.79310905208926    -3.96389819310853     8.61386170102686
C   33   6    -1.01100794811226    -1.06331657314144     3.11929490449947
C   34   6     0.37686231036534    -0.33275864505552     1.09165013605873
H   35   1    -3.01671213906703    -1.40297922279997     2.77827895090944
C   36   6    -0.64382707979370    -0.11591880174385    -1.42063131251064
H   37   1     2.35569259782137     0.17174499283897     1.33641070251401
H   38   1    -2.63317482980319    -0.60229203511219    -1.66119700387645
C   39   6     3.40965399787931     0.55809653308114   -11.90393532262733
C   40   6     4.52549279160481    -1.34135539088305   -13.56345596406470
H   41   1     3.67536210453709     2.52791097593625   -12.43024189111277
O   42   8     5.72170846290986    -0.87635365493868   -15.48013684009233
H   43   1     4.20717735374393    -3.33265649371778   -12.95224886476863
[GTO]
1 0
 s    6 1.00
             3047.5249  0.0018347001629433
             457.36951    0.01403730124668
             103.94869   0.068842606114048
             29.210155    0.23218442062076
              9.286663    0.46794134155879
              3.163927    0.36231203217765
 s    3 1.00
             7.8682724   -0.11933240861517
             1.8812885   -0.16085421161283
             0.5442493     1.1434564825515
 s    1 1.00
             0.1687144                   1
 p    3 1.00
             7.8682724   0.068999095584993
             1.8812885    0.31642397975315
             0.5442493    0.74430825237435
 p    1 1.00
             0.1687144                   1
 d    1 1.00
                   0.8                   1

2 0
 s    3 1.00
             18.731137    0.03349459952309
             2.8253937    0.23472694665786
             0.6401217    0.81375731841339
 s    1 1.00
             0.1612778                   1

3 0
 s    6 1.00
             3047.5249  0.0018347001629433
             457.36951    0.01403730124668
             103.94869   0.068842606114048
             29.210155    0.23218442062076
              9.286663    0.46794134155879
              3.163927    0.36231203217765
 s    3 1.00
             7.8682724   -0.11933240861517
             1.8812885   -0.16085421161283
             0.5442493     1.1434564825515
 s    1 1.00
             0.1687144                   1
 p    3 1.00
             7.8682724   0.068999095584993
             1.8812885    0.31642397975315
             0.5442493    0.74430825237435
 p    1 1.00
             0.1687144                   1
 d    1 1.00
                   0.8                   1

4 0
 s    3 1.00
             18.731137    0.03349459952309
             2.8253937    0.23472694665786
             0.6401217    0.81375731841339
 s    1 1.00
             0.1612778                   1

5 0
 s    6 1.00
             3047.5249  0.0018347001629433
             457.36951    0.01403730124668
             103.94869   0.068842606114048
             29.210155    0.23218442062076
              9.286663    0.46794134155879
              3.163927    0.36231203217765
 s    3 1.00
             7.8682724   -0.11933240861517
             1.8812885   -0.16085421161283
             0.5442493     1.1434564825515
 s    1 1.00
             0.1687144                   1
 p    3 1.00
             7.8682724   0.068999095584993
             1.8812885    0.31642397975315
             0.5442493    0.74430825237435
 p    1 1.00
             0.1687144                   1
 d    1 1.00
                   0.8                   1

6 0
 s    3 1.00
             18.731137    0.03349459952309
             2.8253937    0.23472694665786
             0.6401217    0.81375731841339
 s    1 1.00
             0.1612778                   1

7 0
 s    6 1.00
             3047.5249  0.0018347001629433
             457.36951    0.01403730124668
             103.94869   0.068842606114048
             29.210155    0.23218442062076
              9.286663    0.46794134155879
              3.163927    0.36231203217765
 s    3 1.00
             7.8682724   -0.11933240861517
             1.8812885   -0.16085421161283
             0.5442493     1.1434564825515
 s    1 1.00
             0.1687144                   1
 p    3 1.00
             7.8682724   0.068999095584993
             1.8812885    0.31642397975315
             0.5442493    0.74430825237435
 p    1 1.00
             0.1687144                   1
 d    1 1.00
                   0.8                   1

8 0
 s    3 1.00
             18.731137    0.03349459952309
             2.8253937    0.23472694665786
             0.6401217    0.81375731841339
 s    1 1.00
             0.1612778                   1

9 0
 s    3 1.00
             18.731137    0.03349459952309
             2.8253937    0.23472694665786
             0.6401217    0.81375731841339
 s    1 1.00
             0.1612778                   1

10 0
 s    6 1.00
             3047.5249  0.0018347001629433
             457.36951    0.01403730124668
             103.94869   0.068842606114048
             29.210155    0.23218442062076
              9.286663    0.46794134155879
              3.163927    0.36231203217765
 s    3 1.00
             7.8682724   -0.11933240861517
             1.8812885   -0.16085421161283
             0.5442493     1.1434564825515
 s    1 1.00
             0.1687144                   1
 p    3 1.00
             7.8682724   0.068999095584993
             1.8812885    0.31642397975315
             0.5442493    0.74430825237435
 p    1 1.00
             0.1687144                   1
 d    1 1.00
                   0.8                   1

11 0
 s    3 1.00
             18.731137    0.03349459952309
             2.8253937    0.23472694665786
             0.6401217    0.81375731841339
 s    1 1.00
             0.1612778                   1

12 0
 s    6 1.00
             3047.5249  0.0018347001629433
             457.36951    0.01403730124668
             103.94869   0.068842606114048
             29.210155    0.23218442062076
              9.286663    0.46794134155879
              3.163927    0.36231203217765
 s    3 1.00
             7.8682724   -0.11933240861517
             1.8812885   -0.16085421161283
             0.5442493     1.1434564825515
 s    1 1.00
             0.1687144                   1
 p    3 1.00
             7.8682724   0.068999095584993
             1.8812885    0.31642397975315
             0.5442493    0.74430825237435
 p    1 1.00
             0.1687144                   1
 d    1 1.00
                   0.8                   1

13 0
 s    3 1.00
             18.731137    0.03349459952309
             2.8253937    0.23472694665786
             0.6401217    0.81375731841339
 s    1 1.00
             0.1612778                   1

14 0
 s    3 1.00
             18.731137    0.03349459952309
             2.8253937    0.23472694665786
             0.6401217    0.81375731841339
 s    1 1.00
             0.1612778                   1

15 0
 s    6 1.00
             3047.5249  0.0018347001629433
             457.36951    0.01403730124668
             103.94869   0.068842606114048
             29.210155    0.23218442062076
              9.286663    0.46794134155879
              3.163927    0.36231203217765
 s    3 1.00
             7.8682724   -0.11933240861517
             1.8812885   -0.16085421161283
             0.5442493     1.1434564825515
 s    1 1.00
             0.1687144                   1
 p    3 1.00
             7.8682724   0.068999095584993
             1.8812885    0.31642397975315
             0.5442493    0.74430825237435
 p    1 1.00
             0.1687144                   1
 d    1 1.00
                   0.8                   1

16 0
 s    6 1.00
             3047.5249  0.0018347001629433
             457.36951    0.01403730124668
             103.94869   0.068842606114048
             29.210155    0.23218442062076
              9.286663    0.46794134155879
              3.163927    0.36231203217765
 s    3 1.00
             7.8682724   -0.11933240861517
             1.8812885   -0.16085421161283
             0.5442493     1.1434564825515
 s    1 1.00
             0.1687144                   1
 p    3 1.00
             7.8682724   0.068999095584993
             1.8812885    0.31642397975315
             0.5442493    0.74430825237435
 p    1 1.00
             0.1687144                   1
 d    1 1.00
                   0.8                   1

17 0
 s    6 1.00
             3047.5249  0.0018347001629433
             457.36951    0.01403730124668
             103.94869   0.068842606114048
             29.210155    0.23218442062076
              9.286663    0.46794134155879
              3.163927    0.36231203217765
 s    3 1.00
             7.8682724   -0.11933240861517
             1.8812885   -0.16085421161283
             0.5442493     1.1434564825515
 s    1 1.00
             0.1687144                   1
 p    3 1.00
             7.8682724   0.068999095584993
             1.8812885    0.31642397975315
             0.5442493    0.74430825237435
 p    1 1.00
             0.1687144                   1
 d    1 1.00
                   0.8                   1

18 0
 s    6 1.00
             3047.5249  0.0018347001629433
             457.36951    0.01403730124668
             103.94869   0.068842606114048
             29.210155    0.23218442062076
              9.286663    0.46794134155879
              3.163927    0.36231203217765
 s    3 1.00
             7.8682724   -0.11933240861517
             1.8812885   -0.16085421161283
             0.5442493     1.1434564825515
 s    1 1.00
             0.1687144                   1
 p    3 1.00
             7.8682724   0.068999095584993
             1.8812885    0.31642397975315
             0.5442493    0.74430825237435
 p    1 1.00
             0.1687144                   1
 d    1 1.00
                   0.8                   1

19 0
 s    6 1.00
             3047.5249  0.0018347001629433
             457.36951    0.01403730124668
             103.94869   0.068842606114048
             29.210155    0.23218442062076
              9.286663    0.46794134155879
              3.163927    0.36231203217765
 s    3 1.00
             7.8682724   -0.11933240861517
             1.8812885   -0.16085421161283
             0.5442493     1.1434564825515
 s    1 1.00
             0.1687144                   1
 p    3 1.00
             7.8682724   0.068999095584993
             1.8812885    0.31642397975315
             0.5442493    0.74430825237435
 p    1 1.00
             0.1687144                   1
 d    1 1.00
                   0.8                   1

20 0
 s    6 1.00
             3047.5249  0.0018347001629433
             457.36951    0.01403730124668
             103.94869   0.068842606114048
             29.210155    0.23218442062076
              9.286663    0.46794134155879
              3.163927    0.36231203217765
 s    3 1.00
             7.8682724   -0.11933240861517
             1.8812885   -0.16085421161283
             0.5442493     1.1434564825515
 s    1 1.00
             0.1687144                   1
 p    3 1.00
             7.8682724   0.068999095584993
             1.8812885    0.31642397975315
             0.5442493    0.74430825237435
 p    1 1.00
             0.1687144                   1
 d    1 1.00
                   0.8                   1

21 0
 s    6 1.00
             3047.5249  0.0018347001629433
             457.36951    0.01403730124668
             103.94869   0.068842606114048
             29.210155    0.23218442062076
              9.286663    0.46794134155879
              3.163927    0.36231203217765
 s    3 1.00
             7.8682724   -0.11933240861517
             1.8812885   -0.16085421161283
             0.5442493     1.1434564825515
 s    1 1.00
             0.1687144                   1
 p    3 1.00
             7.8682724   0.068999095584993
             1.8812885    0.31642397975315
             0.5442493    0.74430825237435
 p    1 1.00
             0.1687144                   1
 d    1 1.00
                   0.8                   1

22 0
 s    3 1.00
             18.731137    0.03349459952309
             2.8253937    0.23472694665786
             0.6401217    0.81375731841339
 s    1 1.00
             0.1612778                   1

23 0
 s    3 1.00
             18.731137    0.03349459952309
             2.8253937    0.23472694665786
             0.6401217    0.81375731841339
 s    1 1.00
             0.1612778                   1

24 0
 s    3 1.00
             18.731137    0.03349459952309
             2.8253937    0.23472694665786
             0.6401217    0.81375731841339
 s    1 1.00
             0.1612778                   1

25 0
 s    3 1.00
             18.731137    0.03349459952309
             2.8253937    0.23472694665786
             0.6401217    0.81375731841339
 s    1 1.00
             0.1612778                   1

26 0
 s    3 1.00
             18.731137    0.03349459952309
             2.8253937    0.23472694665786
             0.6401217    0.81375731841339
 s    1 1.00
             0.1612778                   1

27 0
 s    3 1.00
             18.731137    0.03349459952309
             2.8253937    0.23472694665786
             0.6401217    0.81375731841339
 s    1 1.00
             0.1612778                   1

28 0
 s    3 1.00
             18.731137    0.03349459952309
             2.8253937    0.23472694665786
             0.6401217    0.81375731841339
 s    1 1.00
             0.1612778                   1

29 0
 s    3 1.00
             18.731137    0.03349459952309
             2.8253937    0.23472694665786
             0.6401217    0.81375731841339
 s    1 1.00
             0.1612778                   1

30 0
 s    3 1.00
             18.731137    0.03349459952309
             2.8253937    0.23472694665786
             0.6401217    0.81375731841339
 s    1 1.00
             0.1612778                   1

31 0
 s    3 1.00
             18.731137    0.03349459952309
             2.8253937    0.23472694665786
             0.6401217    0.81375731841339
 s    1 1.00
             0.1612778                   1

32 0
 s    3 1.00
             18.731137    0.03349459952309
             2.8253937    0.23472694665786
             0.6401217    0.81375731841339
 s    1 1.00
             0.1612778                   1

33 0
 s    6 1.00
             3047.5249  0.0018347001629433
             457.36951    0.01403730124668
             103.94869   0.068842606114048
             29.210155    0.23218442062076
              9.286663    0.46794134155879
              3.163927    0.36231203217765
 s    3 1.00
             7.8682724   -0.11933240861517
             1.8812885   -0.16085421161283
             0.5442493     1.1434564825515
 s    1 1.00
             0.1687144                   1
 p    3 1.00
             7.8682724   0.068999095584993
             1.8812885    0.31642397975315
             0.5442493    0.74430825237435
 p    1 1.00
             0.1687144                   1
 d    1 1.00
                   0.8                   1

34 0
 s    6 1.00
             3047.5249  0.0018347001629433
             457.36951    0.01403730124668
             103.94869   0.068842606114048
             29.210155    0.23218442062076
              9.286663    0.46794134155879
              3.163927    0.36231203217765
 s    3 1.00
             7.8682724   -0.11933240861517
             1.8812885   -0.16085421161283
             0.5442493     1.1434564825515
 s    1 1.00
             0.1687144                   1
 p    3 1.00
             7.8682724   0.068999095584993
             1.8812885    0.31642397975315
             0.5442493    0.74430825237435
 p    1 1.00
             0.1687144                   1
 d    1 1.00
                   0.8                   1

35 0
 s    3 1.00
             18.731137    0.03349459952309
             2.8253937    0.23472694665786
             0.6401217    0.81375731841339
 s    1 1.00
             0.1612778                   1

36 0
 s    6 1.00
             3047.5249  0.0018347001629433
             457.36951    0.01403730124668
             103.94869   0.068842606114048
             29.210155    0.23218442062076
              9.286663    0.46794134155879
              3.163927    0.36231203217765
 s    3 1.00
             7.8682724   -0.11933240861517
             1.8812885   -0.16085421161283
             0.5442493     1.1434564825515
 s    1 1.00
             0.1687144                   1
 p    3 1.00
             7.8682724   0.068999095584993
             1.8812885    0.31642397975315
             0.5442493    0.74430825237435
 p    1 1.00
             0.1687144                   1
 d    1 1.00
                   0.8                   1

37 0
 s    3 1.00
             18.731137    0.03349459952309
             2.8253937    0.23472694665786
             0.6401217    0.81375731841339
 s    1 1.00
             0.1612778                   1

38 0
 s    3 1.00
             18.731137    0.03349459952309
             2.8253937    0.23472694665786
             0.6401217    0.81375731841339
 s    1 1.00
             0.1612778                   1

39 0
 s    6 1.00
             3047.5249  0.0018347001629433
             457.36951    0.01403730124668
             103.94869   0.068842606114048
             29.210155    0.23218442062076
              9.286663    0.46794134155879
              3.163927    0.36231203217765
 s    3 1.00
             7.8682724   -0.11933240861517
             1.8812885   -0.16085421161283
             0.5442493     1.1434564825515
 s    1 1.00
             0.1687144                   1
 p    3 1.00
             7.8682724   0.068999095584993
             1.8812885    0.31642397975315
             0.5442493    0.74430825237435
 p    1 1.00
             0.1687144                   1
 d    1 1.00
                   0.8                   1

40 0
 s    6 1.00
             3047.5249  0.0018347001629433
             457.36951    0.01403730124668
             103.94869   0.068842606114048
             29.210155    0.23218442062076
              9.286663    0.46794134155879
              3.163927    0.36231203217765
 s    3 1.00
             7.8682724   -0.11933240861517
             1.8812885   -0.16085421161283
             0.5442493     1.1434564825515
 s    1 1.00
             0.1687144                   1
 p    3 1.00
             7.8682724   0.068999095584993
             1.8812885    0.31642397975315
             0.5442493    0.74430825237435
 p    1 1.00
             0.1687144                   1
 d    1 1.00
                   0.8                   1

41 0
 s    3 1.00
             18.731137    0.03349459952309
             2.8253937    0.23472694665786
             0.6401217    0.81375731841339
 s    1 1.00
             0.1612778                   1

42 0
 s    6 1.00
             5484.6717   0.001831099805527
             825.23495   0.013950098518422
             188.04696    0.06844509273075
               52.9645    0.23271427528445
              16.89757    0.47019295006289
             5.7996353    0.35852086192309
 s    3 1.00
             15.539616   -0.11077750382508
             3.5999336   -0.14802630511126
             1.0137618     1.1307670390447
 s    1 1.00
             0.2700058                   1
 p    3 1.00
             15.539616   0.070874299543311
             3.5999336    0.33975279781076
             1.0137618    0.72715859531445
 p    1 1.00
             0.2700058                   1
 d    1 1.00
                   0.8                   1

43 0
 s    3 1.00
             18.731137    0.03349459952309
             2.8253937    0.23472694665786
             0.6401217    0.81375731841339
 s    1 1.00
             0.1612778                   1

[5d]
[7f]
[9g]

[MO]
 Sym= A
 Ene=               0
 Spin= Alpha
 Occup=    1.00000
   1    -2.2747930268856e-06
   2    -2.0655476102016e-05
   3    4.0779915451056e-05
   4    -9.3596121117783e-06
   5    1.0136526580687e-05
   6    7.6855717661321e-06
   7    1.3732899983221e-05
   8    9.4923628515286e-05
   9    -0.00039002121295721
  10    7.7999871993332e-08
  11    1.2466170154342e-05
  12    3.2587233253599e-06
  13    1.4974306746889e-05
  14    -8.2311813806208e-06
  15    -1.4834374255297e-05
  16    2.079221769995e-05
  17    1.0536463295033e-05
  18    0.00016401112858335
  19    0.00041843337844795
  20    5.2675379737312e-05
  21    -2.3317307019227e-05
  22    -6.3131290815592e-05
  23    0.00015895843869436
  24    -0.00010395180969634
  25    -0.00065059112397181
  26    2.4586949742405e-05
  27    -2.4963866023756e-05
  28    1.0587205218347e-05
  29    4.5487896064262e-05
  30    -6.1160401633944e-06
  31    -1.1937901314091e-05
  32    2.7400158559499e-05
  33    4.3248681801075e-05
  34    0.00039178987172581
  35    -0.0045674629493554
  36    -8.4038670758145e-05
  37    3.0627320952954e-06
  38    0.00012382431881381
  39    -0.00042724858297879
  40    0.0019969248397458
  41    0.00059227998226786
  42    -3.4402944808405e-05
  43    0.00011454464121641
  44    -7.7536834920464e-05
  45    3.2607552837823e-05
  46    5.120610740006e-05
  47    -1.0389489552156e-05
  48    -0.00028475261952349
  49    3.4540709563225e-05
  50    6.3933755882801e-05
  51    0.0036544926245563
  52    0.00013806492425357
  53    -0.00024675082901492
  54    -0.00020216112622031
  55    -0.0016598123371593
  56    0.0027279137424201
  57    0.0024770618581714
  58    -1.3420313695694e-05
  59    3.8673429934931e-05
  60    0.00021126802618447
  61    2.9544366988089e-05
  62    -0.00013255268011407
  63    0.00027578548470908
  64    5.7541416969261e-05
  65    -1.2179221103182e-07
  66    2.1898866124019e-08
  67    -5.0163330074894e-09
  68    -7.7253412085783e-07
  69    3.2519533342383e-06
  70    -1.7831106077453e-07
  71    -1.6882186320815e-07
  72    4.4278517878866e-07
  73    -8.1751175175757e-08
  74    2.296329547651e-06
  75    -7.8811229670756e-08
  76    -4.8245702891752e-08
  77    -1.0308795816156e-07
  78    3.7404126150657e-08
  79    8.9915861633238e-08
  80    -7.7533034866252e-08
  81    1.8779939037021e-07
  82    5.8087170229786e-07
  83    6.0117713178938e-08
  84    -1.8692450805245e-07
  85    -1.4279560536475e-05
  86    1.2401085374379e-06
  87    5.9091316576101e-07
  88    8.4734782528889e-07
  89    3.9557742339165e-06
  90    -5.2113031164226e-06
  91    3.4142693206338e-06
  92    1.3314211303946e-07
  93    -2.0258985064473e-07
  94    4.7867925459103e-07
  95    8.0006141513598e-08
  96    -6.4473719658049e-08
  97    1.5858262682834e-06
  98    2.3394605894963e-06
  99    -4.7935330003445e-07
 100    -1.9992245856896e-06
 101    -2.0821430551146e-07
 102    -8.5177513084314e-07
 103    1.714067824083e-05
 104    -2.0193666603782e-06
 105    -3.8484090923513e-06
 106    -5.2990893077437e-07
 107    -2.137040400842e-05
 108    1.6119406188231e-05
 109    3.0751463329822e-05
 110    -6.1270341689105e-07
 111    -5.1409618325876e-07
 112    2.5326764626173e-07
 113    4.9868577769702e-07
 114    -4.3632752621819e-07
 115    -4.5674061513094e-07
 116    -4.8770417007043e-06
 117    3.7511657654846e-05
 118    -5.4714412126798e-07
 119    1.2854698524914e-06
 120    5.0742268282853e-07
 121    -8.3048336913078e-06
 122    4.7937322929945e-07
 123    1.5541341637338e-06
 124    -6.5254351359851e-08
 125    -2.7104897981393e-07
 126    -2.3353497826349e-07
 127    1.7152210413119e-07
 128    -2.7371509035398e-07
 129    -1.0441343810772e-06
 130    -8.9302994730019e-06
 131    5.1503258984017e-05
 132    -8.6779134092971e-07
 133    -2.9878774365717e-06
 134    3.382908447375e-06
 135    -2.7363690172904e-05
 136    5.7756231474567e-07
 137    -8.1733951852615e-05
 138    2.3940449847184e-06
 139    1.6801902204718e-06
 140    1.4718731078821e-07
 141    3.3362684424241e-07
 142    -1.0809073789947e-08
 143    -2.3879275912907e-07
 144    -4.0039586063406e-06
 145    1.6938797950442e-05
 146    -2.8971626578382e-08
 147    1.2896768926575e-06
 148    1.1870310965249e-06
 149    1.0551666780113e-05
 150    -6.9795097597154e-06
 151    -2.0294844587588e-06
 152    -1.0141421736798e-06
 153    -3.2241487463277e-07
 154    -6.9638754175701e-08
 155    6.7022122556887e-07
 156    -7.7601651432587e-07
 157    1.005659683606e-07
 158    8.6642134406422e-07
 159    9.9055664665616e-07
 160     1.06774227167e-06
 161    -4.5648323555116e-07
 162    3.8082469412612e-07
 163    -5.6690040341779e-06
 164    -3.4625679095862e-07
 165    1.1013672898578e-06
 166    4.6428996590543e-07
 167    -1.3950755231351e-07
 168    -2.7438332452926e-09
 169    -1.2588507735892e-07
 170    2.8787561937808e-07
 171     1.73436846696e-07
 172    -6.9755326726234e-07
 173    -2.8948632084946e-06
 174    -1.1923184055851e-06
 175    -3.0484346578084e-07
 176    9.6722911260672e-07
 177    -6.2639420739423e-07
 178    1.4102252510597e-06
 179    -1.8945913848251e-06
 180    1.7000257250407e-07
 181    2.1914549622563e-07
 182    2.672728830124e-08
 183    -3.9976454655721e-07
 184    1.6692165803693e-07
 185    -3.8384107810187e-07
 186    -2.9278028231589e-06
 187    2.7838042169757e-06
 188    -2.7849885517448e-07
 189    8.1901059665812e-08
 190    5.1800244346448e-07
 191     1.94476365745e-06
 192    1.2442153860989e-06
 193    -6.4682176854751e-06
 194    3.4147895155674e-07
 195    1.7875258316435e-08
 196    1.2610392780227e-07
 197    6.257580638121e-08
 198    -8.1217810535038e-08
 199    -7.0334595685838e-07
 200    -1.3176827815525e-06
 201    -3.2995994213195e-07
 202    2.6009026480815e-06
 203    -2.2413776758313e-06
 204    -2.7482547691314e-06
 205    1.9465669228455e-07
 206    -1.2884811910208e-06
 207     1.42270533827e-06
 208    -1.403690325828e-05
 209    9.3392683454735e-07
 210    -3.9677745736082e-06
 211    4.1734834433715e-07
 212    2.8773075921394e-06
 213    -2.4152745749006e-07
 214    -2.1539226776129e-06
 215    -4.8477154467231e-07
 216    9.3537817793257e-07
 217    4.4329931049563e-07
 218    1.1094243496797e-06
 219    2.3267628950386e-07
 220    1.4248231172675e-06
 221    2.3088724393318e-07
 222    -1.0722142152312e-05
 223    -5.9844407450447e-06
 224    -2.5812115307196e-06
 225    1.951106333566e-06
 226    6.1840591390005e-06
 227    1.3532809638935e-05
 228    2.9629995695455e-05
 229    -9.4688426481758e-05
 230    -1.0827107575586e-06
 231    -4.2733626223295e-06
 232    -2.3818011749509e-06
 233    1.859268416386e-06
 234    3.0340883168507e-06
 235    1.5848393630761e-06
 236    1.6879896664192e-06
 237    4.3723282135624e-05
 238    5.0142468813714e-06
 239    1.0869091941247e-05
 240    -4.4197284977142e-06
 241    -1.9150085575417e-05
 242    -5.7754992438616e-06
 243    -0.00010303747653266
 244    1.8326558612528e-06
 245    7.5605485345942e-06
 246    2.2944105108167e-06
 247    3.3026123271717e-06
 248    1.9798455508568e-06
 249    -3.6947560871353e-06
 250    1.2186167210843e-05
 251    -1.2538358317187e-05
 252    -3.0745042740587e-05
 253    0.00023567656343898
 254    4.1886514349181e-06
 255    -6.7837030586166e-06
 256    2.1248573877357e-05
 257    0.00010358988053398
 258    0.00011176455914586
 259    -0.00024004586701736
 260    2.0806901033183e-06
 261    -1.1628848465313e-05
 262    -6.2345076264205e-06
 263    7.3657124829641e-06
 264     6.73239211501e-06
 265    4.5141855926476e-06
 266    3.4145066042548e-05
 267    -1.0902849890316e-05
 268    3.7658493104575e-05
 269    0.00025784985898637
 270    8.5504756165884e-05
 271    0.0034358628203289
 272    0.00019380219081418
 273    -0.00043308874235008
 274    -0.00025269669254044
 275     0.002275998035814
 276    0.00055795865055318
 277    -0.0036125101785351
 278    0.00023543736761506
 279    -0.00022003564589838
 280    0.00017269709908584