[Molden Format]
made by pyscf v[2.0.1]
[Atoms] (AU)
C   1   6     0.69100024066471     0.64692934207205    -3.48223131169301
H   2   1     2.68052439830868     1.13355088658700    -3.25784032593313
C   3   6    -0.36286361513219     0.85440132524594    -5.97030179418974
H   4   1    -2.35448549047279     0.36322488579172    -6.17995817793143
C   5   6     0.93697958957450     1.61209284601821    -8.05828437677121
H   6   1     1.03927160684768     3.62047501567417    -8.50199621914587
C   7   6     2.20035018302409    -0.10258413888539    -9.73758817852609
H   8   1     2.08224949102462    -2.10886499715255    -9.26789512642378
H   9   1     1.55630230933075    -1.92953025305990    12.99630010416247
C   10   6     0.75233899775814    -2.21270439606481    11.10705728102219
H   11   1    -0.43433408177274    -3.90944857546550    11.22216085340412
C   12   6     2.86362581178706    -2.63237380607947     9.17926416456045
H   13   1     4.39038949912609    -1.24955421540245     9.49899813497433
H   14   1     3.74629220191363    -4.48798724300892     9.47414880959024
C   15   6     2.02478325613682    -2.42177285709634     6.44560829588644
C   16   6     3.88048732735477    -3.58795445234514     4.61402886975252
C   17   6    -0.18412382258602    -1.30464291234259     5.76021113872346
C   18   6    -2.10044360464350    -0.26837831858460     7.71610340967100
C   19   6    -3.08956938670431     2.35282328359417     6.88693925039594
C   20   6    -4.37372924086464    -2.09766595989678     7.93610724222001
C   21   6    -0.83850430601230     0.06372213486173    10.33002307638377
H   22   1     0.38411922151109     1.74281358582432    10.27380136542181
H   23   1    -2.30980003007874     0.45460143924521    11.73986301809809
H   24   1     4.58527064644668    -5.38706904487420     5.36778158031719
H   25   1     5.54944938085014    -2.37631462192748     4.35398898413318
H   26   1     3.06633019150423    -3.94118377050688     2.75255466040884
H   27   1    -4.17727778763735     2.26573369139522     5.12914900961283
H   28   1    -1.52662344944051     3.68001877445626     6.59540397144508
H   29   1    -4.32916174397830     3.13643051467482     8.35225460090378
H   30   1    -5.32329548508442    -2.36691813602939     6.11583672749896
H   31   1    -5.77989366602257    -1.33896741843465     9.25748940450990
H   32   1    -3.79310905208926    -3.96389819310853     8.61386170102686
C   33   6    -1.01100794811226    -1.06331657314144     3.11929490449947
C   34   6     0.37686231036534    -0.33275864505552     1.09165013605873
H   35   1    -3.01671213906703    -1.40297922279997     2.77827895090944
C   36   6    -0.64382707979370    -0.11591880174385    -1.42063131251064
H   37   1     2.35569259782137     0.17174499283897     1.33641070251401
H   38   1    -2.63317482980319    -0.60229203511219    -1.66119700387645
C   39   6     3.51308281939799     0.56451683374771   -11.83721740116087
C   40   6     4.73454985947753    -1.32827425009098   -13.42856361339847
H   41   1     3.70368628307445     2.52946227119814   -12.41204614817202
O   42   8     5.94050384923934    -0.86285538356078   -15.33903067176323
H   43   1     4.49094488416901    -3.31470750932465   -12.76908014850535
[GTO]
1 0
 s    6 1.00
             3047.5249  0.0018347001629433
             457.36951    0.01403730124668
             103.94869   0.068842606114048
             29.210155    0.23218442062076
              9.286663    0.46794134155879
              3.163927    0.36231203217765
 s    3 1.00
             7.8682724   -0.11933240861517
             1.8812885   -0.16085421161283
             0.5442493     1.1434564825515
 s    1 1.00
             0.1687144                   1
 p    3 1.00
             7.8682724   0.068999095584993
             1.8812885    0.31642397975315
             0.5442493    0.74430825237435
 p    1 1.00
             0.1687144                   1
 d    1 1.00
                   0.8                   1

2 0
 s    3 1.00
             18.731137    0.03349459952309
             2.8253937    0.23472694665786
             0.6401217    0.81375731841339
 s    1 1.00
             0.1612778                   1

3 0
 s    6 1.00
             3047.5249  0.0018347001629433
             457.36951    0.01403730124668
             103.94869   0.068842606114048
             29.210155    0.23218442062076
              9.286663    0.46794134155879
              3.163927    0.36231203217765
 s    3 1.00
             7.8682724   -0.11933240861517
             1.8812885   -0.16085421161283
             0.5442493     1.1434564825515
 s    1 1.00
             0.1687144                   1
 p    3 1.00
             7.8682724   0.068999095584993
             1.8812885    0.31642397975315
             0.5442493    0.74430825237435
 p    1 1.00
             0.1687144                   1
 d    1 1.00
                   0.8                   1

4 0
 s    3 1.00
             18.731137    0.03349459952309
             2.8253937    0.23472694665786
             0.6401217    0.81375731841339
 s    1 1.00
             0.1612778                   1

5 0
 s    6 1.00
             3047.5249  0.0018347001629433
             457.36951    0.01403730124668
             103.94869   0.068842606114048
             29.210155    0.23218442062076
              9.286663    0.46794134155879
              3.163927    0.36231203217765
 s    3 1.00
             7.8682724   -0.11933240861517
             1.8812885   -0.16085421161283
             0.5442493     1.1434564825515
 s    1 1.00
             0.1687144                   1
 p    3 1.00
             7.8682724   0.068999095584993
             1.8812885    0.31642397975315
             0.5442493    0.74430825237435
 p    1 1.00
             0.1687144                   1
 d    1 1.00
                   0.8                   1

6 0
 s    3 1.00
             18.731137    0.03349459952309
             2.8253937    0.23472694665786
             0.6401217    0.81375731841339
 s    1 1.00
             0.1612778                   1

7 0
 s    6 1.00
             3047.5249  0.0018347001629433
             457.36951    0.01403730124668
             103.94869   0.068842606114048
             29.210155    0.23218442062076
              9.286663    0.46794134155879
              3.163927    0.36231203217765
 s    3 1.00
             7.8682724   -0.11933240861517
             1.8812885   -0.16085421161283
             0.5442493     1.1434564825515
 s    1 1.00
             0.1687144                   1
 p    3 1.00
             7.8682724   0.068999095584993
             1.8812885    0.31642397975315
             0.5442493    0.74430825237435
 p    1 1.00
             0.1687144                   1
 d    1 1.00
                   0.8                   1

8 0
 s    3 1.00
             18.731137    0.03349459952309
             2.8253937    0.23472694665786
             0.6401217    0.81375731841339
 s    1 1.00
             0.1612778                   1

9 0
 s    3 1.00
             18.731137    0.03349459952309
             2.8253937    0.23472694665786
             0.6401217    0.81375731841339
 s    1 1.00
             0.1612778                   1

10 0
 s    6 1.00
             3047.5249  0.0018347001629433
             457.36951    0.01403730124668
             103.94869   0.068842606114048
             29.210155    0.23218442062076
              9.286663    0.46794134155879
              3.163927    0.36231203217765
 s    3 1.00
             7.8682724   -0.11933240861517
             1.8812885   -0.16085421161283
             0.5442493     1.1434564825515
 s    1 1.00
             0.1687144                   1
 p    3 1.00
             7.8682724   0.068999095584993
             1.8812885    0.31642397975315
             0.5442493    0.74430825237435
 p    1 1.00
             0.1687144                   1
 d    1 1.00
                   0.8                   1

11 0
 s    3 1.00
             18.731137    0.03349459952309
             2.8253937    0.23472694665786
             0.6401217    0.81375731841339
 s    1 1.00
             0.1612778                   1

12 0
 s    6 1.00
             3047.5249  0.0018347001629433
             457.36951    0.01403730124668
             103.94869   0.068842606114048
             29.210155    0.23218442062076
              9.286663    0.46794134155879
              3.163927    0.36231203217765
 s    3 1.00
             7.8682724   -0.11933240861517
             1.8812885   -0.16085421161283
             0.5442493     1.1434564825515
 s    1 1.00
             0.1687144                   1
 p    3 1.00
             7.8682724   0.068999095584993
             1.8812885    0.31642397975315
             0.5442493    0.74430825237435
 p    1 1.00
             0.1687144                   1
 d    1 1.00
                   0.8                   1

13 0
 s    3 1.00
             18.731137    0.03349459952309
             2.8253937    0.23472694665786
             0.6401217    0.81375731841339
 s    1 1.00
             0.1612778                   1

14 0
 s    3 1.00
             18.731137    0.03349459952309
             2.8253937    0.23472694665786
             0.6401217    0.81375731841339
 s    1 1.00
             0.1612778                   1

15 0
 s    6 1.00
             3047.5249  0.0018347001629433
             457.36951    0.01403730124668
             103.94869   0.068842606114048
             29.210155    0.23218442062076
              9.286663    0.46794134155879
              3.163927    0.36231203217765
 s    3 1.00
             7.8682724   -0.11933240861517
             1.8812885   -0.16085421161283
             0.5442493     1.1434564825515
 s    1 1.00
             0.1687144                   1
 p    3 1.00
             7.8682724   0.068999095584993
             1.8812885    0.31642397975315
             0.5442493    0.74430825237435
 p    1 1.00
             0.1687144                   1
 d    1 1.00
                   0.8                   1

16 0
 s    6 1.00
             3047.5249  0.0018347001629433
             457.36951    0.01403730124668
             103.94869   0.068842606114048
             29.210155    0.23218442062076
              9.286663    0.46794134155879
              3.163927    0.36231203217765
 s    3 1.00
             7.8682724   -0.11933240861517
             1.8812885   -0.16085421161283
             0.5442493     1.1434564825515
 s    1 1.00
             0.1687144                   1
 p    3 1.00
             7.8682724   0.068999095584993
             1.8812885    0.31642397975315
             0.5442493    0.74430825237435
 p    1 1.00
             0.1687144                   1
 d    1 1.00
                   0.8                   1

17 0
 s    6 1.00
             3047.5249  0.0018347001629433
             457.36951    0.01403730124668
             103.94869   0.068842606114048
             29.210155    0.23218442062076
              9.286663    0.46794134155879
              3.163927    0.36231203217765
 s    3 1.00
             7.8682724   -0.11933240861517
             1.8812885   -0.16085421161283
             0.5442493     1.1434564825515
 s    1 1.00
             0.1687144                   1
 p    3 1.00
             7.8682724   0.068999095584993
             1.8812885    0.31642397975315
             0.5442493    0.74430825237435
 p    1 1.00
             0.1687144                   1
 d    1 1.00
                   0.8                   1

18 0
 s    6 1.00
             3047.5249  0.0018347001629433
             457.36951    0.01403730124668
             103.94869   0.068842606114048
             29.210155    0.23218442062076
              9.286663    0.46794134155879
              3.163927    0.36231203217765
 s    3 1.00
             7.8682724   -0.11933240861517
             1.8812885   -0.16085421161283
             0.5442493     1.1434564825515
 s    1 1.00
             0.1687144                   1
 p    3 1.00
             7.8682724   0.068999095584993
             1.8812885    0.31642397975315
             0.5442493    0.74430825237435
 p    1 1.00
             0.1687144                   1
 d    1 1.00
                   0.8                   1

19 0
 s    6 1.00
             3047.5249  0.0018347001629433
             457.36951    0.01403730124668
             103.94869   0.068842606114048
             29.210155    0.23218442062076
              9.286663    0.46794134155879
              3.163927    0.36231203217765
 s    3 1.00
             7.8682724   -0.11933240861517
             1.8812885   -0.16085421161283
             0.5442493     1.1434564825515
 s    1 1.00
             0.1687144                   1
 p    3 1.00
             7.8682724   0.068999095584993
             1.8812885    0.31642397975315
             0.5442493    0.74430825237435
 p    1 1.00
             0.1687144                   1
 d    1 1.00
                   0.8                   1

20 0
 s    6 1.00
             3047.5249  0.0018347001629433
             457.36951    0.01403730124668
             103.94869   0.068842606114048
             29.210155    0.23218442062076
              9.286663    0.46794134155879
              3.163927    0.36231203217765
 s    3 1.00
             7.8682724   -0.11933240861517
             1.8812885   -0.16085421161283
             0.5442493     1.1434564825515
 s    1 1.00
             0.1687144                   1
 p    3 1.00
             7.8682724   0.068999095584993
             1.8812885    0.31642397975315
             0.5442493    0.74430825237435
 p    1 1.00
             0.1687144                   1
 d    1 1.00
                   0.8                   1

21 0
 s    6 1.00
             3047.5249  0.0018347001629433
             457.36951    0.01403730124668
             103.94869   0.068842606114048
             29.210155    0.23218442062076
              9.286663    0.46794134155879
              3.163927    0.36231203217765
 s    3 1.00
             7.8682724   -0.11933240861517
             1.8812885   -0.16085421161283
             0.5442493     1.1434564825515
 s    1 1.00
             0.1687144                   1
 p    3 1.00
             7.8682724   0.068999095584993
             1.8812885    0.31642397975315
             0.5442493    0.74430825237435
 p    1 1.00
             0.1687144                   1
 d    1 1.00
                   0.8                   1

22 0
 s    3 1.00
             18.731137    0.03349459952309
             2.8253937    0.23472694665786
             0.6401217    0.81375731841339
 s    1 1.00
             0.1612778                   1

23 0
 s    3 1.00
             18.731137    0.03349459952309
             2.8253937    0.23472694665786
             0.6401217    0.81375731841339
 s    1 1.00
             0.1612778                   1

24 0
 s    3 1.00
             18.731137    0.03349459952309
             2.8253937    0.23472694665786
             0.6401217    0.81375731841339
 s    1 1.00
             0.1612778                   1

25 0
 s    3 1.00
             18.731137    0.03349459952309
             2.8253937    0.23472694665786
             0.6401217    0.81375731841339
 s    1 1.00
             0.1612778                   1

26 0
 s    3 1.00
             18.731137    0.03349459952309
             2.8253937    0.23472694665786
             0.6401217    0.81375731841339
 s    1 1.00
             0.1612778                   1

27 0
 s    3 1.00
             18.731137    0.03349459952309
             2.8253937    0.23472694665786
             0.6401217    0.81375731841339
 s    1 1.00
             0.1612778                   1

28 0
 s    3 1.00
             18.731137    0.03349459952309
             2.8253937    0.23472694665786
             0.6401217    0.81375731841339
 s    1 1.00
             0.1612778                   1

29 0
 s    3 1.00
             18.731137    0.03349459952309
             2.8253937    0.23472694665786
             0.6401217    0.81375731841339
 s    1 1.00
             0.1612778                   1

30 0
 s    3 1.00
             18.731137    0.03349459952309
             2.8253937    0.23472694665786
             0.6401217    0.81375731841339
 s    1 1.00
             0.1612778                   1

31 0
 s    3 1.00
             18.731137    0.03349459952309
             2.8253937    0.23472694665786
             0.6401217    0.81375731841339
 s    1 1.00
             0.1612778                   1

32 0
 s    3 1.00
             18.731137    0.03349459952309
             2.8253937    0.23472694665786
             0.6401217    0.81375731841339
 s    1 1.00
             0.1612778                   1

33 0
 s    6 1.00
             3047.5249  0.0018347001629433
             457.36951    0.01403730124668
             103.94869   0.068842606114048
             29.210155    0.23218442062076
              9.286663    0.46794134155879
              3.163927    0.36231203217765
 s    3 1.00
             7.8682724   -0.11933240861517
             1.8812885   -0.16085421161283
             0.5442493     1.1434564825515
 s    1 1.00
             0.1687144                   1
 p    3 1.00
             7.8682724   0.068999095584993
             1.8812885    0.31642397975315
             0.5442493    0.74430825237435
 p    1 1.00
             0.1687144                   1
 d    1 1.00
                   0.8                   1

34 0
 s    6 1.00
             3047.5249  0.0018347001629433
             457.36951    0.01403730124668
             103.94869   0.068842606114048
             29.210155    0.23218442062076
              9.286663    0.46794134155879
              3.163927    0.36231203217765
 s    3 1.00
             7.8682724   -0.11933240861517
             1.8812885   -0.16085421161283
             0.5442493     1.1434564825515
 s    1 1.00
             0.1687144                   1
 p    3 1.00
             7.8682724   0.068999095584993
             1.8812885    0.31642397975315
             0.5442493    0.74430825237435
 p    1 1.00
             0.1687144                   1
 d    1 1.00
                   0.8                   1

35 0
 s    3 1.00
             18.731137    0.03349459952309
             2.8253937    0.23472694665786
             0.6401217    0.81375731841339
 s    1 1.00
             0.1612778                   1

36 0
 s    6 1.00
             3047.5249  0.0018347001629433
             457.36951    0.01403730124668
             103.94869   0.068842606114048
             29.210155    0.23218442062076
              9.286663    0.46794134155879
              3.163927    0.36231203217765
 s    3 1.00
             7.8682724   -0.11933240861517
             1.8812885   -0.16085421161283
             0.5442493     1.1434564825515
 s    1 1.00
             0.1687144                   1
 p    3 1.00
             7.8682724   0.068999095584993
             1.8812885    0.31642397975315
             0.5442493    0.74430825237435
 p    1 1.00
             0.1687144                   1
 d    1 1.00
                   0.8                   1

37 0
 s    3 1.00
             18.731137    0.03349459952309
             2.8253937    0.23472694665786
             0.6401217    0.81375731841339
 s    1 1.00
             0.1612778                   1

38 0
 s    3 1.00
             18.731137    0.03349459952309
             2.8253937    0.23472694665786
             0.6401217    0.81375731841339
 s    1 1.00
             0.1612778                   1

39 0
 s    6 1.00
             3047.5249  0.0018347001629433
             457.36951    0.01403730124668
             103.94869   0.068842606114048
             29.210155    0.23218442062076
              9.286663    0.46794134155879
              3.163927    0.36231203217765
 s    3 1.00
             7.8682724   -0.11933240861517
             1.8812885   -0.16085421161283
             0.5442493     1.1434564825515
 s    1 1.00
             0.1687144                   1
 p    3 1.00
             7.8682724   0.068999095584993
             1.8812885    0.31642397975315
             0.5442493    0.74430825237435
 p    1 1.00
             0.1687144                   1
 d    1 1.00
                   0.8                   1

40 0
 s    6 1.00
             3047.5249  0.0018347001629433
             457.36951    0.01403730124668
             103.94869   0.068842606114048
             29.210155    0.23218442062076
              9.286663    0.46794134155879
              3.163927    0.36231203217765
 s    3 1.00
             7.8682724   -0.11933240861517
             1.8812885   -0.16085421161283
             0.5442493     1.1434564825515
 s    1 1.00
             0.1687144                   1
 p    3 1.00
             7.8682724   0.068999095584993
             1.8812885    0.31642397975315
             0.5442493    0.74430825237435
 p    1 1.00
             0.1687144                   1
 d    1 1.00
                   0.8                   1

41 0
 s    3 1.00
             18.731137    0.03349459952309
             2.8253937    0.23472694665786
             0.6401217    0.81375731841339
 s    1 1.00
             0.1612778                   1

42 0
 s    6 1.00
             5484.6717   0.001831099805527
             825.23495   0.013950098518422
             188.04696    0.06844509273075
               52.9645    0.23271427528445
              16.89757    0.47019295006289
             5.7996353    0.35852086192309
 s    3 1.00
             15.539616   -0.11077750382508
             3.5999336   -0.14802630511126
             1.0137618     1.1307670390447
 s    1 1.00
             0.2700058                   1
 p    3 1.00
             15.539616   0.070874299543311
             3.5999336    0.33975279781076
             1.0137618    0.72715859531445
 p    1 1.00
             0.2700058                   1
 d    1 1.00
                   0.8                   1

43 0
 s    3 1.00
             18.731137    0.03349459952309
             2.8253937    0.23472694665786
             0.6401217    0.81375731841339
 s    1 1.00
             0.1612778                   1

[5d]
[7f]
[9g]

[MO]
 Sym= A
 Ene=               0
 Spin= Alpha
 Occup=    1.00000
   1    6.0118711349165e-07
   2    1.7494543612952e-05
   3    -1.0535744332973e-05
   4    5.8488249258426e-06
   5    1.9619309487906e-06
   6    -1.6118037265008e-05
   7    -2.8448022217151e-05
   8    -0.000105303776559
   9    0.00039737280452123
  10    -6.82949335622e-08
  11    -1.200987964608e-05
  12    -2.1925355325011e-06
  13    -1.4983203734897e-05
  14    8.2111173981138e-06
  15    1.4365644098748e-05
  16    -1.837253576035e-05
  17    -8.8823120101958e-06
  18    -0.00017218127883099
  19    -0.00045528777833025
  20    -5.7542875331283e-05
  21    8.527100568778e-06
  22    7.411623835871e-05
  23    -0.00018086300340092
  24    0.00010231844797524
  25    0.00065182295894719
  26    -2.3312733279896e-05
  27    2.5176251131625e-05
  28    -1.1455680711176e-05
  29    -4.5215980816774e-05
  30    2.6099632395131e-06
  31    1.1482704846049e-05
  32    -3.2778373973899e-05
  33    -5.7728352202979e-05
  34    -0.00038218670372907
  35    0.0046524535921428
  36    8.9012957343426e-05
  37    -1.7981386322027e-05
  38    -0.00014539081853076
  39    0.00051947293786896
  40    -0.0020344126594339
  41    -0.00053715590555141
  42    2.5449927551502e-05
  43    -0.00011403445779356
  44    7.0649197978875e-05
  45    -2.9977056810882e-05
  46    -5.7756377953574e-05
  47    1.5883582961481e-05
  48    0.00029447681878739
  49    -4.7807627695847e-05
  50    -0.00020511678479586
  51    -0.0037909877536408
  52    -0.00021235839048889
  53    0.00023131196693446
  54    0.00029058943345119
  55    0.0018129537597425
  56    -0.0027241054503305
  57    -0.0023746124293307
  58    2.4588690280436e-05
  59    -3.6622017927908e-05
  60    -0.00020179540826955
  61    -2.8698698440904e-05
  62    0.00012649287054107
  63    -0.00032418905852581
  64    -8.4666325792154e-05
  65    2.3339700374063e-07
  66    3.1914841088905e-07
  67    4.4517829352893e-08
  68    6.1452934849606e-07
  69    -3.0679400140705e-06
  70    -2.4234202517071e-07
  71    3.5619539140984e-07
  72    -1.3851433451229e-07
  73    -2.7470684952785e-07
  74    -1.8138562547563e-06
  75    -7.4585569882559e-08
  76    5.7415860035648e-08
  77    1.2938190824213e-07
  78    -5.1948984326471e-08
  79    -7.8461508560359e-08
  80    1.1016691248277e-07
  81    -9.8470308290246e-08
  82    -2.3074336579195e-07
  83    -2.3580961084545e-08
  84    1.9042665792513e-07
  85    1.4334312908884e-05
  86    -6.8656770021451e-07
  87    -8.1180585660513e-08
  88    -9.4577618525286e-07
  89    -3.6126127792588e-06
  90    5.1567920093674e-06
  91    -3.455586353652e-06
  92    -1.8295018419305e-07
  93    2.9726096476723e-07
  94    -3.8041713560427e-07
  95    -4.337480884185e-08
  96    1.6767507843652e-07
  97    -7.2863133722795e-07
  98    -9.4476543280187e-07
  99    4.1178286444406e-08
 100    1.2024329904903e-06
 101    7.9188585492422e-08
 102    9.8835559922412e-07
 103    -1.5398189559009e-05
 104    -1.6835461075432e-07
 105    1.0616748252194e-06
 106    6.5929902087046e-07
 107    2.0783543903343e-05
 108    -1.9005155321847e-05
 109    -3.2359798462253e-05
 110    6.2711492735239e-07
 111    5.6695039277054e-07
 112    -2.4587479827351e-07
 113    -3.8367129287536e-07
 114    5.4579185043383e-07
 115    5.1952494191992e-07
 116    4.7803779812937e-06
 117    -3.8784537124851e-05
 118    7.0684500331844e-07
 119    -1.0913947148934e-06
 120    -8.8638184835225e-07
 121    8.8279028714973e-06
 122    -9.8237402927064e-07
 123    -2.7354301880592e-06
 124    7.6583913942801e-08
 125    2.4060219668792e-07
 126    1.4678555860129e-07
 127    -1.0389892453773e-07
 128    3.7833887440854e-07
 129    1.0267016772284e-06
 130    9.2593945489209e-06
 131    -5.3940427696996e-05
 132    -1.762678103238e-07
 133    3.8420597678703e-07
 134    -3.6398869183167e-06
 135    2.6540023746398e-05
 136    -1.134969109624e-06
 137    8.6012575287942e-05
 138    -2.6191510267674e-06
 139    -1.6589212574482e-06
 140    -2.6433831489552e-07
 141    -4.4037906482295e-07
 142    -8.7532158868703e-08
 143    4.246648073566e-07
 144    4.072982457843e-06
 145    -2.0269112938816e-05
 146    -2.4179082188417e-07
 147    -5.8246193686169e-07
 148    -4.6940522991306e-07
 149    -1.2346353318729e-05
 150    7.0209327270303e-06
 151    3.0346040776648e-06
 152    1.0725458132825e-06
 153    3.9678122379543e-07
 154    1.2211888419912e-07
 155    -7.6131911043272e-07
 156    7.8178823408781e-07
 157    -1.097669648285e-07
 158    -8.9914958110806e-07
 159    -7.5210146945841e-07
 160    -7.6935071100055e-07
 161    1.169014641303e-07
 162    6.7705751196453e-08
 163    6.6047740481088e-06
 164    -1.5243030679443e-07
 165    -8.8627094456919e-07
 166    -4.7526800559386e-07
 167    1.7058296012457e-07
 168    -1.36730100834e-08
 169    1.1852135432643e-07
 170    -3.0490464367133e-07
 171    -3.0385100184403e-08
 172    4.4124158403446e-07
 173    1.7684194036694e-06
 174    6.9614950699441e-07
 175    1.6966227586212e-07
 176    -8.1657516230044e-07
 177    3.856192695462e-07
 178    -1.6985540945349e-06
 179    1.9125016989863e-06
 180    -1.5509102333239e-07
 181    -2.303587590745e-07
 182    -2.619640921615e-08
 183    4.0561420788188e-07
 184    -1.9112946790618e-07
 185    3.2032691808004e-07
 186    3.2055177548704e-06
 187    -2.3867167385611e-06
 188    2.4674012792334e-07
 189    -1.3638782398258e-07
 190    -1.1867426530926e-06
 191    -2.3835532259078e-06
 192    -9.2583559648599e-07
 193    6.0215105103374e-06
 194    -3.4318649981991e-07
 195    3.6815074794808e-08
 196    -1.8602179980078e-07
 197    -8.6223267732908e-08
 198    9.423237191888e-08
 199    7.9181887729054e-07
 200    1.3237875806109e-06
 201    -4.8234580063179e-08
 202    -3.4827341456873e-06
 203    1.8000243294792e-06
 204    2.0158450749302e-06
 205    3.252339714672e-07
 206    2.5056731591285e-06
 207    -1.3293141719769e-06
 208    1.2758895923334e-05
 209    -1.1565600033477e-06
 210    4.5159745029721e-06
 211    -5.0332689431403e-07
 212    -3.015769788365e-06
 213    2.3336924895208e-07
 214    2.2824716470945e-06
 215    5.245513538808e-07
 216    -6.9296870956473e-07
 217    -3.0777678896683e-07
 218    -8.8198207419244e-07
 219    -2.8477028194553e-07
 220    -1.1907368218909e-06
 221    7.5629139491473e-07
 222    8.8702834458936e-06
 223    5.681250020105e-06
 224    -2.4662037260651e-07
 225    6.2401214294633e-07
 226    -4.0064792685971e-06
 227    -1.3711435068707e-05
 228    -2.8919842901359e-05
 229    0.00010103370230374
 230    1.1592828910242e-06
 231    4.3471495856237e-06
 232    2.1265894060024e-06
 233    -1.9450084634999e-06
 234    -2.9996389866199e-06
 235    1.0619716028233e-06
 236    1.1081228849707e-05
 237    -2.6357232503216e-05
 238    9.5615345468501e-07
 239    -3.4941658853008e-06
 240    -3.5619315470846e-06
 241    2.2024718946653e-05
 242    8.3592319270156e-06
 243    9.7621924406159e-05
 244    -1.8534578299906e-06
 245    -7.2888252969016e-06
 246    -2.1556860210081e-06
 247    -2.8053631683719e-06
 248    -1.6515885909032e-06
 249    4.3205627151555e-06
 250    -1.1717189636821e-05
 251    1.8665269558617e-06
 252    3.0516614081647e-05
 253    -0.00026684253279155
 254    -3.8808899687284e-06
 255    1.0663742796358e-05
 256    -7.4776554511141e-06
 257    -0.00011492305935716
 258    -0.00010794633279026
 259    0.00025604005508057
 260    -2.2248367802102e-06
 261    1.291174319989e-05
 262    5.9987445949224e-06
 263    -8.1325757854661e-06
 264    -6.3260797271535e-06
 265    4.5293397795811e-06
 266    -2.9712162976017e-05
 267    8.418306695286e-06
 268    -4.0888394156742e-05
 269    1.3361143339248e-05
 270    6.3030731505106e-05
 271    -0.0033381301616295
 272    8.565356085168e-08
 273    0.0002071018359718
 274    -3.1130453614372e-05
 275    -0.0022339794559754
 276    -0.00062557157734184
 277    0.0035091162546835
 278    -0.0002271380128208
 279    0.00022765758582951