[Molden Format]
made by pyscf v[2.0.1]
[Atoms] (AU)
C   1   6    -0.00491185910195    -0.00302299034612    -6.30478139015019
O   2   8    -0.00302499062123    -0.00226824280266    -4.17507277885027
[GTO]
1 0
 s    5 1.00
          1238.4016938  0.0055173650481097
          186.29004992   0.041088828555946
          42.251176346     0.1822538212649
          11.676557932    0.46828459437429
          3.5930506482    0.44575817336002
 s    1 1.00
         0.40245147363                   1
 s    1 1.00
         0.13090182668                   1
 p    3 1.00
          9.4680970621   0.056888332011037
          2.0103545142    0.31294059336471
         0.54771004707    0.76065016509135
 p    1 1.00
         0.15268613795                   1
 d    1 1.00
                   0.8                   1

2 0
 s    5 1.00
          2266.1767785  -0.0053893503921743
          340.87010191   -0.04023472138896
          77.363135167   -0.18008184205526
           21.47964494   -0.46828857657651
          6.6589433124   -0.44692617160187
 s    1 1.00
         0.80975975668                   1
 s    1 1.00
         0.25530772234                   1
 p    3 1.00
          17.721504317   0.062630248763161
           3.863550544    0.33331138482352
          1.0480920883    0.74148638308122
 p    1 1.00
         0.27641544411                   1
 d    1 1.00
                   1.2                   1

[5d]
[7f]
[9g]

[MO]
 Sym= A
 Ene=               0
 Spin= Alpha
 Occup=    1.00000
   1    0.00046105880408386
   2    0.00024464386514924
   3     0.010412912168051
   4    -2.0144433457569e-06
   5    -8.0577749732333e-07
   6    -0.0022737354198451
   7    6.5780517449109e-06
   8    2.6312212233957e-06
   9    0.0074246504320277
  10    -0.0024296636100352
  11    -3.728395580406e-06
  12    -1.4913585270936e-06
  13    -1.3874057899738e-09
  14    -1.3212008675816e-09
  15      -0.9883637874402
  16     0.043175110712994
  17    -0.028222788027813
  18    -2.9965985232662e-06
  19    -1.1986396796685e-06
  20    -0.0033818875674568
  21    4.6741296419433e-06
  22    1.8696522392198e-06
  23    0.0052756422955513
  24    0.00089903899961751
  25    1.3797539522405e-06
  26    5.5190170332414e-07
  27    5.1539279506061e-10
  28    4.8798178282787e-10
 Sym= A
 Ene=               1
 Spin= Alpha
 Occup=    1.00000
   1       0.9885768488405
   2     0.045227337598104
   3    -0.0087844942374651
   4    5.5775880419469e-06
   5    2.231035704831e-06
   6    0.0062955039101548
   7    3.7907862301069e-06
   8    1.516314784466e-06
   9    0.0042785714336328
  10    0.0029516515635919
  11    4.5294300180011e-06
  12    1.8117723872683e-06
  13    1.685937373963e-09
  14    1.6046978177487e-09
  15    0.00027224478392539
  16    -0.0010464220554088
  17    -0.010938494919722
  18    1.3984482157682e-06
  19    5.5937939274796e-07
  20    0.0015785477742376
  21    7.3468861475395e-06
  22    2.9387550417969e-06
  23    0.0082924326763222
  24    -0.00028095610899867
  25    -4.3086374352992e-07
  26    -1.7234551497728e-07
  27    -1.6116004283323e-10
  28    -1.5185813017729e-10
 Sym= A
 Ene=               2
 Spin= Alpha
 Occup=    1.00000
   1      0.14949835136075
   2     -0.28551763749018
   3    -0.030434253178097
   4    -0.00020166038517951
   5    -8.0664170395142e-05
   6     -0.22761427587143
   7    -1.2442509696839e-05
   8    -4.9770048333118e-06
   9    -0.014044142906921
  10    -0.032077915930802
  11    -4.9223411790862e-05
  12    -1.9689368716955e-05
  13    -1.8355087582992e-08
  14    -1.7425821346918e-08
  15     -0.26456881718979
  16     -0.52555415586803
  17     -0.22473025014135
  18    0.00016773602056191
  19    6.7094421507179e-05
  20      0.18932575249937
  21    1.4497153711063e-05
  22    5.7988626653282e-06
  23     0.016362998013117
  24    -0.014962409910926
  25    -2.2960920010792e-05
  26    -9.1843698872959e-06
  27    -8.5390566997592e-09
  28    -8.1421459580087e-09
 Sym= A
 Ene=               3
 Spin= Alpha
 Occup=    1.00000
   1     -0.16952915493502
   2      0.38206866305016
   3     0.098826129990062
   4    0.00011252253925958
   5    4.5009024686584e-05
   6      0.12700379643917
   7    -2.4840516541172e-05
   8    -9.9362087331795e-06
   9    -0.028036010003969
  10    0.0048285739105834
  11    7.4104310472651e-06
  12    2.9641730826677e-06
  13    2.7916754083054e-09
  14    2.6141812280957e-09
  15      -0.1563081646224
  16     -0.33046013222056
  17     -0.36881479516269
  18    -0.00043350289807962
  19    -0.00017340119484939
  20     -0.48928258223411
  21    -0.00020572122562311
  22    -8.2288507128959e-05
  23     -0.23219117612854
  24     0.023369017602393
  25    3.586349571466e-05
  26    1.4345401264624e-05
  27    1.3330459435569e-08
  28    1.2718056709013e-08
 Sym= A
 Ene=               4
 Spin= Alpha
 Occup=    1.00000
   1    -7.03994587272e-09
   2    1.8861789839955e-08
   3    3.8697824389037e-09
   4      0.33604055360187
   5    -0.0071326420331791
   6    -0.00029520537934369
   7      0.13207815009145
   8    -0.0028034299758532
   9    -0.00011602873818276
  10    -6.6740082845955e-05
  11     0.043861249110855
  12    -0.00093099306741903
  13     3.91924824556e-05
  14    1.4718799170405e-05
  15    -2.6903132922594e-09
  16    -4.6233085497582e-09
  17    -2.1979850378517e-09
  18      0.55931168048768
  19    -0.011871692056361
  20    -0.00049132956498954
  21      0.32913187271018
  22    -0.0069860015057527
  23    -0.00028912891967069
  24    4.0031531957191e-05
  25     -0.02631136377295
  26    0.00055848149958806
  27    -2.351093820355e-05
  28    -8.8284231354523e-06
 Sym= A
 Ene=               5
 Spin= Alpha
 Occup=    1.00000
   1    2.9909748936097e-09
   2    -8.0137784866132e-09
   3    -1.644002004045e-09
   4    -0.0071325340880189
   5     -0.33604066206967
   6    0.00012541279348731
   7    -0.0028033875737501
   8     -0.13207819279355
   9    4.9292761150513e-05
  10    2.8353345810429e-05
  11    -0.00093095079131882
  12    -0.043861291533638
  13    1.4720154834774e-05
  14    -3.9188927133613e-05
  15    1.1431660012255e-09
  16    1.9645212161115e-09
  17    9.3462026482948e-10
  18    -0.011871512576738
  19       -0.559311861078
  20    0.00020873269251408
  21    -0.0069858958813396
  22     -0.32913197916065
  23    0.00012283131757655
  24    -1.7006689500147e-05
  25    0.00055845619075365
  26     0.026311389313054
  27    -8.8303833274283e-06
  28    2.3505751053343e-05
 Sym= A
 Ene=               6
 Spin= Alpha
 Occup=    1.00000
   1     -0.18468318914901
   2      0.39347358801399
   3      0.50196616555497
   4    -0.00039411380783759
   5    -0.00015764555490252
   6     -0.44484042309368
   7    -0.00012138949561161
   8    -4.855580800004e-05
   9     -0.13700576421715
  10    -0.033371639574628
  11    -5.1205825426131e-05
  12    -2.048233428551e-05
  13    -1.9075654001117e-08
  14    -1.8131075331428e-08
  15    -0.020376200145316
  16    -0.054339464640033
  17    -0.0074550621744365
  18    0.00023672508088702
  19    9.4690051624154e-05
  20      0.26720979711494
  21    0.00011560043121352
  22    4.6240181897086e-05
  23      0.13049085229231
  24    -0.0048102147504453
  25    -7.3811707540271e-06
  26    -2.9524689477448e-06
  27    -2.7346861587798e-09
  28    -2.6227480659031e-09
