[Molden Format]
made by pyscf v[2.0.1]
[Atoms] (AU)
O   1   8     0.00000000000000     0.00000000000000     9.05202446090250
H   2   1     0.00000000000000     0.00000000000000     7.22862263900153
H   3   1    -0.05031916615174     1.78353065140343     9.42789615736916
O   4   8     0.00000000000000     0.00000000000000     2.31533471513237
C   5   6     0.00000000000000     0.00000000000000     0.00000000000000
C   6   6     2.01118073026938    -1.40227222164369    -1.50774939176400
C   7   6    -2.01249334291722     1.41331050329955    -1.50315905028694
H   8   1     3.32037363730244    -2.26721897153159    -0.13599698591495
C   9   6     3.45899267434009     0.28739631745591    -3.37437943254505
H   10   1     1.07662969841332    -2.94725144642667    -2.56541439481080
H   11   1    -2.67503415753480     0.18421555839588    -3.06194479365997
H   12   1    -1.07974048864772     3.03851734677796    -2.43674295017013
C   13   6    -4.21607110578555     2.32938802552922     0.11994162256091
H   14   1     4.24440173074564     1.93368664142019    -2.34976285512790
H   15   1     2.15020713235517     1.04714335134846    -4.81494497423699
C   16   6     5.60746363007797    -1.12419643481196    -4.70268606082550
H   17   1    -3.46838323670267     3.50951302338067     1.66946842715333
H   18   1    -5.11873485366228     0.68575958301209     1.04047743976495
C   19   6    -6.18314754751344     3.80909592987882    -1.39656589068747
H   20   1     6.93011263717176    -1.87550812453645    -3.26656317360070
C   21   6     7.06356622236532     0.52877932406334    -6.57829775293605
H   22   1     4.82318879258361    -2.78573437948532    -5.70504560381835
H   23   1    -6.91582688743803     2.61304780074712    -2.95074552451969
H   24   1    -5.26532430573853     5.45420349051338    -2.31005832200284
C   25   6    -8.39941882261433     4.73263980500213     0.21800571437956
H   26   1     7.83338371486801     2.19084139882824    -5.57093109900697
H   27   1     5.73544244039420     1.27376866537418    -8.01071492370229
C   28   6     9.21124858443101    -0.89699110072176    -7.88926949186242
H   29   1    -7.66272760055236     5.92277078003992     1.77035591474408
H   30   1    -9.31497248082589     3.08753015622020     1.12614408368786
C   31   6   -10.35481709231879     6.21833079391143    -1.30905206253246
H   32   1    10.58815905329501    -1.61074586756696    -6.49512691622620
H   33   1    10.23506248045667     0.32468009384095    -9.23072870921204
H   34   1     8.47665842847139    -2.53598436989925    -8.94921964622535
H   35   1    -9.48948872868064     7.90013588951020    -2.18823918416067
H   36   1   -11.93332513000955     6.86460487874102    -0.11255798845995
H   37   1   -11.15126291841033     5.04495968327630    -2.83849898862534
[GTO]
1 0
 s    8 1.00
                 11720  0.00070964594651845
                  1759  0.0054672722921914
                 400.8   0.027823118610189
                 113.7    0.10474773971146
                 37.03    0.28292084635691
                 13.27    0.44849523869833
                 5.025    0.27081688521277
                 1.013    0.01545029160744
 s    8 1.00
                 11720  -0.00031444341168873
                  1759  -0.0024821376810179
                 400.8  -0.012316355381583
                 113.7  -0.050538917343672
                 37.03   -0.13938490331632
                 13.27   -0.32507749481778
                 5.025   -0.22984830758785
                 1.013     1.0953793467883
 s    1 1.00
                0.3023                   1
 p    3 1.00
                  17.7   0.062679166281506
                 3.854    0.33353656587936
                 1.046    0.74123964163973
 p    1 1.00
                0.2753                   1
 d    1 1.00
                 1.185                   1

2 0
 s    3 1.00
                 13.01   0.033498726389998
                 1.962    0.23480080117413
                0.4446     0.8136829578829
 s    1 1.00
                 0.122                   1
 p    1 1.00
                 0.727                   1

3 0
 s    3 1.00
                 13.01   0.033498726389998
                 1.962    0.23480080117413
                0.4446     0.8136829578829
 s    1 1.00
                 0.122                   1
 p    1 1.00
                 0.727                   1

4 0
 s    8 1.00
                 11720  0.00070964594651845
                  1759  0.0054672722921914
                 400.8   0.027823118610189
                 113.7    0.10474773971146
                 37.03    0.28292084635691
                 13.27    0.44849523869833
                 5.025    0.27081688521277
                 1.013    0.01545029160744
 s    8 1.00
                 11720  -0.00031444341168873
                  1759  -0.0024821376810179
                 400.8  -0.012316355381583
                 113.7  -0.050538917343672
                 37.03   -0.13938490331632
                 13.27   -0.32507749481778
                 5.025   -0.22984830758785
                 1.013     1.0953793467883
 s    1 1.00
                0.3023                   1
 p    3 1.00
                  17.7   0.062679166281506
                 3.854    0.33353656587936
                 1.046    0.74123964163973
 p    1 1.00
                0.2753                   1
 d    1 1.00
                 1.185                   1

5 0
 s    8 1.00
                  6665  0.00069158396281299
                  1000  0.0053257961529341
                   228   0.027060721042034
                 64.71    0.10165684614077
                 21.06     0.2745748236174
                 7.495    0.44829431892377
                 2.797    0.28490261071525
                0.5215   0.015194859206082
 s    8 1.00
                  6665  -0.00029326965268655
                  1000  -0.0023180354739745
                   228  -0.011499786038565
                 64.71  -0.046826727009787
                 21.06   -0.12846616875047
                 7.495   -0.30126627246289
                 2.797   -0.25563070233011
                0.5215      1.093793361012
 s    1 1.00
                0.1596                   1
 p    3 1.00
                 9.439   0.056979251590039
                 2.002    0.31320721150073
                0.5456    0.76037674173753
 p    1 1.00
                0.1517                   1
 d    1 1.00
                  0.55                   1

6 0
 s    8 1.00
                  6665  0.00069158396281299
                  1000  0.0053257961529341
                   228   0.027060721042034
                 64.71    0.10165684614077
                 21.06     0.2745748236174
                 7.495    0.44829431892377
                 2.797    0.28490261071525
                0.5215   0.015194859206082
 s    8 1.00
                  6665  -0.00029326965268655
                  1000  -0.0023180354739745
                   228  -0.011499786038565
                 64.71  -0.046826727009787
                 21.06   -0.12846616875047
                 7.495   -0.30126627246289
                 2.797   -0.25563070233011
                0.5215      1.093793361012
 s    1 1.00
                0.1596                   1
 p    3 1.00
                 9.439   0.056979251590039
                 2.002    0.31320721150073
                0.5456    0.76037674173753
 p    1 1.00
                0.1517                   1
 d    1 1.00
                  0.55                   1

7 0
 s    8 1.00
                  6665  0.00069158396281299
                  1000  0.0053257961529341
                   228   0.027060721042034
                 64.71    0.10165684614077
                 21.06     0.2745748236174
                 7.495    0.44829431892377
                 2.797    0.28490261071525
                0.5215   0.015194859206082
 s    8 1.00
                  6665  -0.00029326965268655
                  1000  -0.0023180354739745
                   228  -0.011499786038565
                 64.71  -0.046826727009787
                 21.06   -0.12846616875047
                 7.495   -0.30126627246289
                 2.797   -0.25563070233011
                0.5215      1.093793361012
 s    1 1.00
                0.1596                   1
 p    3 1.00
                 9.439   0.056979251590039
                 2.002    0.31320721150073
                0.5456    0.76037674173753
 p    1 1.00
                0.1517                   1
 d    1 1.00
                  0.55                   1

8 0
 s    3 1.00
                 13.01   0.033498726389998
                 1.962    0.23480080117413
                0.4446     0.8136829578829
 s    1 1.00
                 0.122                   1
 p    1 1.00
                 0.727                   1

9 0
 s    8 1.00
                  6665  0.00069158396281299
                  1000  0.0053257961529341
                   228   0.027060721042034
                 64.71    0.10165684614077
                 21.06     0.2745748236174
                 7.495    0.44829431892377
                 2.797    0.28490261071525
                0.5215   0.015194859206082
 s    8 1.00
                  6665  -0.00029326965268655
                  1000  -0.0023180354739745
                   228  -0.011499786038565
                 64.71  -0.046826727009787
                 21.06   -0.12846616875047
                 7.495   -0.30126627246289
                 2.797   -0.25563070233011
                0.5215      1.093793361012
 s    1 1.00
                0.1596                   1
 p    3 1.00
                 9.439   0.056979251590039
                 2.002    0.31320721150073
                0.5456    0.76037674173753
 p    1 1.00
                0.1517                   1
 d    1 1.00
                  0.55                   1

10 0
 s    3 1.00
                 13.01   0.033498726389998
                 1.962    0.23480080117413
                0.4446     0.8136829578829
 s    1 1.00
                 0.122                   1
 p    1 1.00
                 0.727                   1

11 0
 s    3 1.00
                 13.01   0.033498726389998
                 1.962    0.23480080117413
                0.4446     0.8136829578829
 s    1 1.00
                 0.122                   1
 p    1 1.00
                 0.727                   1

12 0
 s    3 1.00
                 13.01   0.033498726389998
                 1.962    0.23480080117413
                0.4446     0.8136829578829
 s    1 1.00
                 0.122                   1
 p    1 1.00
                 0.727                   1

13 0
 s    8 1.00
                  6665  0.00069158396281299
                  1000  0.0053257961529341
                   228   0.027060721042034
                 64.71    0.10165684614077
                 21.06     0.2745748236174
                 7.495    0.44829431892377
                 2.797    0.28490261071525
                0.5215   0.015194859206082
 s    8 1.00
                  6665  -0.00029326965268655
                  1000  -0.0023180354739745
                   228  -0.011499786038565
                 64.71  -0.046826727009787
                 21.06   -0.12846616875047
                 7.495   -0.30126627246289
                 2.797   -0.25563070233011
                0.5215      1.093793361012
 s    1 1.00
                0.1596                   1
 p    3 1.00
                 9.439   0.056979251590039
                 2.002    0.31320721150073
                0.5456    0.76037674173753
 p    1 1.00
                0.1517                   1
 d    1 1.00
                  0.55                   1

14 0
 s    3 1.00
                 13.01   0.033498726389998
                 1.962    0.23480080117413
                0.4446     0.8136829578829
 s    1 1.00
                 0.122                   1
 p    1 1.00
                 0.727                   1

15 0
 s    3 1.00
                 13.01   0.033498726389998
                 1.962    0.23480080117413
                0.4446     0.8136829578829
 s    1 1.00
                 0.122                   1
 p    1 1.00
                 0.727                   1

16 0
 s    8 1.00
                  6665  0.00069158396281299
                  1000  0.0053257961529341
                   228   0.027060721042034
                 64.71    0.10165684614077
                 21.06     0.2745748236174
                 7.495    0.44829431892377
                 2.797    0.28490261071525
                0.5215   0.015194859206082
 s    8 1.00
                  6665  -0.00029326965268655
                  1000  -0.0023180354739745
                   228  -0.011499786038565
                 64.71  -0.046826727009787
                 21.06   -0.12846616875047
                 7.495   -0.30126627246289
                 2.797   -0.25563070233011
                0.5215      1.093793361012
 s    1 1.00
                0.1596                   1
 p    3 1.00
                 9.439   0.056979251590039
                 2.002    0.31320721150073
                0.5456    0.76037674173753
 p    1 1.00
                0.1517                   1
 d    1 1.00
                  0.55                   1

17 0
 s    3 1.00
                 13.01   0.033498726389998
                 1.962    0.23480080117413
                0.4446     0.8136829578829
 s    1 1.00
                 0.122                   1
 p    1 1.00
                 0.727                   1

18 0
 s    3 1.00
                 13.01   0.033498726389998
                 1.962    0.23480080117413
                0.4446     0.8136829578829
 s    1 1.00
                 0.122                   1
 p    1 1.00
                 0.727                   1

19 0
 s    8 1.00
                  6665  0.00069158396281299
                  1000  0.0053257961529341
                   228   0.027060721042034
                 64.71    0.10165684614077
                 21.06     0.2745748236174
                 7.495    0.44829431892377
                 2.797    0.28490261071525
                0.5215   0.015194859206082
 s    8 1.00
                  6665  -0.00029326965268655
                  1000  -0.0023180354739745
                   228  -0.011499786038565
                 64.71  -0.046826727009787
                 21.06   -0.12846616875047
                 7.495   -0.30126627246289
                 2.797   -0.25563070233011
                0.5215      1.093793361012
 s    1 1.00
                0.1596                   1
 p    3 1.00
                 9.439   0.056979251590039
                 2.002    0.31320721150073
                0.5456    0.76037674173753
 p    1 1.00
                0.1517                   1
 d    1 1.00
                  0.55                   1

20 0
 s    3 1.00
                 13.01   0.033498726389998
                 1.962    0.23480080117413
                0.4446     0.8136829578829
 s    1 1.00
                 0.122                   1
 p    1 1.00
                 0.727                   1

21 0
 s    8 1.00
                  6665  0.00069158396281299
                  1000  0.0053257961529341
                   228   0.027060721042034
                 64.71    0.10165684614077
                 21.06     0.2745748236174
                 7.495    0.44829431892377
                 2.797    0.28490261071525
                0.5215   0.015194859206082
 s    8 1.00
                  6665  -0.00029326965268655
                  1000  -0.0023180354739745
                   228  -0.011499786038565
                 64.71  -0.046826727009787
                 21.06   -0.12846616875047
                 7.495   -0.30126627246289
                 2.797   -0.25563070233011
                0.5215      1.093793361012
 s    1 1.00
                0.1596                   1
 p    3 1.00
                 9.439   0.056979251590039
                 2.002    0.31320721150073
                0.5456    0.76037674173753
 p    1 1.00
                0.1517                   1
 d    1 1.00
                  0.55                   1

22 0
 s    3 1.00
                 13.01   0.033498726389998
                 1.962    0.23480080117413
                0.4446     0.8136829578829
 s    1 1.00
                 0.122                   1
 p    1 1.00
                 0.727                   1

23 0
 s    3 1.00
                 13.01   0.033498726389998
                 1.962    0.23480080117413
                0.4446     0.8136829578829
 s    1 1.00
                 0.122                   1
 p    1 1.00
                 0.727                   1

24 0
 s    3 1.00
                 13.01   0.033498726389998
                 1.962    0.23480080117413
                0.4446     0.8136829578829
 s    1 1.00
                 0.122                   1
 p    1 1.00
                 0.727                   1

25 0
 s    8 1.00
                  6665  0.00069158396281299
                  1000  0.0053257961529341
                   228   0.027060721042034
                 64.71    0.10165684614077
                 21.06     0.2745748236174
                 7.495    0.44829431892377
                 2.797    0.28490261071525
                0.5215   0.015194859206082
 s    8 1.00
                  6665  -0.00029326965268655
                  1000  -0.0023180354739745
                   228  -0.011499786038565
                 64.71  -0.046826727009787
                 21.06   -0.12846616875047
                 7.495   -0.30126627246289
                 2.797   -0.25563070233011
                0.5215      1.093793361012
 s    1 1.00
                0.1596                   1
 p    3 1.00
                 9.439   0.056979251590039
                 2.002    0.31320721150073
                0.5456    0.76037674173753
 p    1 1.00
                0.1517                   1
 d    1 1.00
                  0.55                   1

26 0
 s    3 1.00
                 13.01   0.033498726389998
                 1.962    0.23480080117413
                0.4446     0.8136829578829
 s    1 1.00
                 0.122                   1
 p    1 1.00
                 0.727                   1

27 0
 s    3 1.00
                 13.01   0.033498726389998
                 1.962    0.23480080117413
                0.4446     0.8136829578829
 s    1 1.00
                 0.122                   1
 p    1 1.00
                 0.727                   1

28 0
 s    8 1.00
                  6665  0.00069158396281299
                  1000  0.0053257961529341
                   228   0.027060721042034
                 64.71    0.10165684614077
                 21.06     0.2745748236174
                 7.495    0.44829431892377
                 2.797    0.28490261071525
                0.5215   0.015194859206082
 s    8 1.00
                  6665  -0.00029326965268655
                  1000  -0.0023180354739745
                   228  -0.011499786038565
                 64.71  -0.046826727009787
                 21.06   -0.12846616875047
                 7.495   -0.30126627246289
                 2.797   -0.25563070233011
                0.5215      1.093793361012
 s    1 1.00
                0.1596                   1
 p    3 1.00
                 9.439   0.056979251590039
                 2.002    0.31320721150073
                0.5456    0.76037674173753
 p    1 1.00
                0.1517                   1
 d    1 1.00
                  0.55                   1

29 0
 s    3 1.00
                 13.01   0.033498726389998
                 1.962    0.23480080117413
                0.4446     0.8136829578829
 s    1 1.00
                 0.122                   1
 p    1 1.00
                 0.727                   1

30 0
 s    3 1.00
                 13.01   0.033498726389998
                 1.962    0.23480080117413
                0.4446     0.8136829578829
 s    1 1.00
                 0.122                   1
 p    1 1.00
                 0.727                   1

31 0
 s    8 1.00
                  6665  0.00069158396281299
                  1000  0.0053257961529341
                   228   0.027060721042034
                 64.71    0.10165684614077
                 21.06     0.2745748236174
                 7.495    0.44829431892377
                 2.797    0.28490261071525
                0.5215   0.015194859206082
 s    8 1.00
                  6665  -0.00029326965268655
                  1000  -0.0023180354739745
                   228  -0.011499786038565
                 64.71  -0.046826727009787
                 21.06   -0.12846616875047
                 7.495   -0.30126627246289
                 2.797   -0.25563070233011
                0.5215      1.093793361012
 s    1 1.00
                0.1596                   1
 p    3 1.00
                 9.439   0.056979251590039
                 2.002    0.31320721150073
                0.5456    0.76037674173753
 p    1 1.00
                0.1517                   1
 d    1 1.00
                  0.55                   1

32 0
 s    3 1.00
                 13.01   0.033498726389998
                 1.962    0.23480080117413
                0.4446     0.8136829578829
 s    1 1.00
                 0.122                   1
 p    1 1.00
                 0.727                   1

33 0
 s    3 1.00
                 13.01   0.033498726389998
                 1.962    0.23480080117413
                0.4446     0.8136829578829
 s    1 1.00
                 0.122                   1
 p    1 1.00
                 0.727                   1

34 0
 s    3 1.00
                 13.01   0.033498726389998
                 1.962    0.23480080117413
                0.4446     0.8136829578829
 s    1 1.00
                 0.122                   1
 p    1 1.00
                 0.727                   1

35 0
 s    3 1.00
                 13.01   0.033498726389998
                 1.962    0.23480080117413
                0.4446     0.8136829578829
 s    1 1.00
                 0.122                   1
 p    1 1.00
                 0.727                   1

36 0
 s    3 1.00
                 13.01   0.033498726389998
                 1.962    0.23480080117413
                0.4446     0.8136829578829
 s    1 1.00
                 0.122                   1
 p    1 1.00
                 0.727                   1

37 0
 s    3 1.00
                 13.01   0.033498726389998
                 1.962    0.23480080117413
                0.4446     0.8136829578829
 s    1 1.00
                 0.122                   1
 p    1 1.00
                 0.727                   1

[5d]
[7f]
[9g]

[MO]
 Sym= A
 Ene=               0
 Spin= Alpha
 Occup=    1.00000
   1    -6.6967829327854e-05
   2    -4.9373484883084e-05
   3    0.00013428743549588
   4    -4.6192930386695e-08
   5    5.8854551398306e-06
   6    1.2740424926211e-05
   7    5.3827323769065e-07
   8    -2.6026885946543e-05
   9    -8.2506237365881e-05
  10    7.7854488358957e-06
  11    -5.2738410120865e-08
  12    -2.1921666176143e-07
  13    3.7549032826752e-07
  14    6.147030240779e-09
  15    -1.739205591619e-05
  16    -0.00020845052764601
  17    -2.8471576547608e-07
  18    1.9895694005087e-06
  19    -4.1783694375871e-06
  20    -7.4634512699157e-06
  21    7.0187773124945e-05
  22    1.6531988821409e-07
  23    -4.0262994776499e-06
  24    1.4631799909825e-06
  25       1.0013730862249
  26    0.0019761894107862
  27    -0.0068883440678266
  28    -4.9811293201933e-06
  29    9.7585254700591e-06
  30    -0.001645761577425
  31    -3.0860416715414e-07
  32    -2.2539321357971e-06
  33     0.001904425474283
  34    0.00011611949774767
  35    -2.8774026077628e-06
  36    1.4534081140495e-06
  37    6.6941145966367e-05
  38    -0.00017425269181838
  39    0.00028347249875808
  40    0.00039326893762376
  41    0.0014886801177142
  42    1.5703535952995e-05
  43    -1.0002340882035e-05
  44    1.1431971930786e-05
  45    8.230965195561e-05
  46    -6.5100657965197e-05
  47    0.0036274683103037
  48    -0.00051659658321492
  49    -8.2943980829115e-06
  50    2.5646583115043e-06
  51    2.9569782469286e-05
  52    -0.00010945341459833
  53    -8.4664319166458e-05
  54    -0.00016563696208277
  55    0.0013813559206707
  56    7.8410302093573e-05
  57    -7.3119002773655e-06
  58    -3.491279239345e-05
  59    -0.00042609517425042
  60    0.00048037807707884
  61    -0.0009562258865403
  62    -0.00011659635232334
  63    0.00014985711989439
  64    -0.00014313023243415
  65    5.4534808894578e-05
  66    -0.00012812483609347
  67    -3.9220724075142e-05
  68    -9.6493236257773e-05
  69    0.00051747823536393
  70    -6.1634883109848e-05
  71    4.0692728917298e-05
  72    -6.2078723853244e-05
  73    0.0010108045090406
  74    -0.00077711635595927
  75    -0.0006521988179161
  76    -0.00013997060215314
  77    -0.00012112382210225
  78    8.9763627334465e-05
  79    5.8538585647582e-05
  80    -0.00015053551345718
  81    -6.1262358126659e-05
  82    0.00021294211995029
  83    6.6605461915435e-05
  84    -4.8941814385913e-05
  85    4.7904906038965e-05
  86    2.5077336348443e-05
  87    4.9070469057842e-05
  88    -0.0006166546995928
  89    -1.5702847893386e-05
  90    -1.7196605766204e-05
  91    1.1533438451743e-05
  92    0.00026004718045533
  93    0.00064013445632323
  94    -1.4201073029283e-05
  95    1.8617621063667e-05
  96    1.1421268508927e-05
  97    7.7603888492998e-06
  98    -1.9921839046526e-05
  99    -4.7319679896645e-05
 100    -3.955863781444e-05
 101    -0.00016245848317951
 102    7.6060592481082e-06
 103    -1.0369688749004e-05
 104    7.6126938268459e-05
 105    -1.8963511372017e-05
 106    -0.00020447863600585
 107    -6.4083881351519e-05
 108    9.3426895324145e-06
 109    7.5612084678565e-05
 110    7.7705960162377e-05
 111    -6.3463340704465e-05
 112    -4.4673508720232e-05
 113    1.9463394748106e-05
 114    7.0663993090428e-05
 115    -4.8674164323399e-05
 116    -9.9224998596599e-05
 117    0.00084673767055292
 118    -2.4883129198305e-05
 119    -1.0879602015879e-05
 120    3.2433384804157e-05
 121    0.00028730453636864
 122    3.4431045987242e-05
 123    -0.00014904267408979
 124    -6.2893049373456e-06
 125    1.151279887059e-05
 126    1.5058358613182e-05
 127    -3.2127764988082e-05
 128    5.0378067099432e-05
 129    -1.9643495697419e-05
 130    -0.00033089979586524
 131    7.8628317583889e-06
 132    5.9562204797105e-06
 133    2.9463481343286e-05
 134    2.5847297479025e-05
 135    -0.00011746608106458
 136    -1.3648754470812e-05
 137    -2.4806177134238e-05
 138    -2.7109759413754e-05
 139    -2.167122193582e-05
 140    -3.9472987405813e-05
 141    0.00029790222874089
 142    7.8160413887743e-06
 143    -2.7478632356116e-06
 144    -6.0784802885239e-06
 145    -0.00023125376592774
 146    5.6317633144174e-05
 147    6.1519023116659e-05
 148    -2.512249834121e-06
 149    3.1708260980813e-06
 150    -4.0851614407482e-06
 151    1.2385439570842e-05
 152    -4.8803076090511e-06
 153    -9.7025026673397e-05
 154    -0.00010131865480973
 155    -2.6480040448934e-05
 156    2.8525632855906e-05
 157    1.9377541413037e-05
 158    -2.5845211257702e-05
 159    -8.7519853841791e-05
 160    -5.9116962272037e-05
 161    -7.2136973030394e-06
 162    6.5803200317299e-06
 163    -1.2328276887414e-06
 164    -4.048267017667e-06
 165    -0.00025277947273509
 166    -1.8370647356319e-05
 167    1.4372321838687e-05
 168    7.0405009037249e-06
 169    0.00023464059568165
 170    -0.0002104233434476
 171    -0.0001368645995814
 172    -2.6289737220223e-06
 173    9.9861459090267e-06
 174    -1.3489120261786e-05
 175    3.184599079603e-06
 176    -1.7984436368481e-05
 177    -1.6263270389646e-05
 178    8.5364671131536e-05
 179    -1.0152911003356e-06
 180    1.7877650290924e-06
 181    -4.8188507456131e-06
 182    1.5742106891327e-05
 183    2.7924857182854e-05
 184    -7.2950123301018e-05
 185    -4.7014623183808e-06
 186    3.6956492261708e-06
 187    5.4712988936136e-06
 188    0.00012926457815581
 189    -0.00010204116492056
 190    -8.8258465780359e-05
 191    1.2530332127009e-06
 192    2.2006919119578e-06
 193    -7.643119768962e-06
 194    -3.0584427232531e-06
 195    -5.3985895962179e-06
 196    -1.3512495609798e-05
 197    -1.9113173860624e-05
 198    5.6626146422751e-06
 199    1.9370724107256e-06
 200    -3.3583737926461e-06
 201    -1.292898970318e-05
 202      2.5458222507e-06
 203    -1.3242159038297e-05
 204    9.9054223308656e-06
 205    1.1783827543975e-05
 206    8.7345210963467e-06
 207    6.8163824978704e-05
 208    -1.6097355318191e-05
 209    3.8920028715046e-06
 210    1.5769464282902e-05
 211    -1.8293099970339e-05
 212    -3.1692383933633e-05
 213    0.00026247601925765
 214    5.3882049834078e-06
 215    -2.1954603823871e-06
 216    -6.1436889042139e-06
 217    0.00019459953902354
 218    -5.2718465656498e-05
 219    -7.8383184841439e-05
 220    -2.3209521545529e-06
 221    -1.6645680566624e-05
 222    5.5622715743703e-06
 223    9.3819439938879e-06
 224    -2.0623293072878e-06
 225    2.6007729548762e-05
 226    5.5487687225453e-05
 227    -1.2439618356196e-05
 228    -2.0311930285063e-06
 229    -9.7545212562668e-07
 230    9.9909202628185e-06
 231    5.4375919006498e-05
 232    -4.0408793824912e-06
 233    6.406362470481e-06
 234    1.2075202687736e-05
 235    4.5194924905998e-07
 236    7.6259627870414e-07
 237    -7.8908794481385e-05
 238    2.2829895383647e-06
 239    2.0492764283592e-06
 240    -3.7886783776094e-06
 241    3.5913246572709e-05
 242    -6.3293524208259e-05
 243    1.807167600825e-05
 244    1.9454838818274e-06
 245    1.8615943969555e-06
 246    -1.9043009582516e-06
 247    1.6278823505784e-07
 248    9.3268403891259e-07
 249    -1.8295913206959e-05
 250    1.0456070426276e-05
 251    -4.4570907802703e-06
 252    -8.7502612669711e-07
 253    -1.1566925860225e-09
 254    -1.6392234942274e-05
 255    5.5641482135037e-05
 256    1.1216892736551e-07
 257     4.30542668589e-06
 258    -8.5165198712915e-07
 259    -1.0189353939327e-05
 260    -1.8599064723734e-05
 261    7.5823316263534e-05
 262    -6.9101296098999e-06