[Molden Format]
made by pyscf v[2.0.1]
[Atoms] (AU)
O   1   8     0.00000000000000     0.00000000000000     7.91818878616346
H   2   1     0.00000000000000     0.00000000000000     6.09478696426249
H   3   1    -0.05031916615174     1.78353065140343     8.29406048263013
O   4   8     0.00000000000000     0.00000000000000     2.31533471513237
C   5   6     0.00000000000000     0.00000000000000     0.00000000000000
C   6   6     2.01118073026938    -1.40227222164369    -1.50774939176400
C   7   6    -2.01249334291722     1.41331050329955    -1.50315905028694
H   8   1     3.32037363730244    -2.26721897153159    -0.13599698591495
C   9   6     3.45899267434009     0.28739631745591    -3.37437943254505
H   10   1     1.07662969841332    -2.94725144642667    -2.56541439481080
H   11   1    -2.67503415753480     0.18421555839588    -3.06194479365997
H   12   1    -1.07974048864772     3.03851734677796    -2.43674295017013
C   13   6    -4.21607110578555     2.32938802552922     0.11994162256091
H   14   1     4.24440173074564     1.93368664142019    -2.34976285512790
H   15   1     2.15020713235517     1.04714335134846    -4.81494497423699
C   16   6     5.60746363007797    -1.12419643481196    -4.70268606082550
H   17   1    -3.46838323670267     3.50951302338067     1.66946842715333
H   18   1    -5.11873485366228     0.68575958301209     1.04047743976495
C   19   6    -6.18314754751344     3.80909592987882    -1.39656589068747
H   20   1     6.93011263717176    -1.87550812453645    -3.26656317360070
C   21   6     7.06356622236532     0.52877932406334    -6.57829775293605
H   22   1     4.82318879258361    -2.78573437948532    -5.70504560381835
H   23   1    -6.91582688743803     2.61304780074712    -2.95074552451969
H   24   1    -5.26532430573853     5.45420349051338    -2.31005832200284
C   25   6    -8.39941882261433     4.73263980500213     0.21800571437956
H   26   1     7.83338371486801     2.19084139882824    -5.57093109900697
H   27   1     5.73544244039420     1.27376866537418    -8.01071492370229
C   28   6     9.21124858443101    -0.89699110072176    -7.88926949186242
H   29   1    -7.66272760055236     5.92277078003992     1.77035591474408
H   30   1    -9.31497248082589     3.08753015622020     1.12614408368786
C   31   6   -10.35481709231879     6.21833079391143    -1.30905206253246
H   32   1    10.58815905329501    -1.61074586756696    -6.49512691622620
H   33   1    10.23506248045667     0.32468009384095    -9.23072870921204
H   34   1     8.47665842847139    -2.53598436989925    -8.94921964622535
H   35   1    -9.48948872868064     7.90013588951020    -2.18823918416067
H   36   1   -11.93332513000955     6.86460487874102    -0.11255798845995
H   37   1   -11.15126291841033     5.04495968327630    -2.83849898862534
[GTO]
1 0
 s    8 1.00
                 11720  0.00070964594651845
                  1759  0.0054672722921914
                 400.8   0.027823118610189
                 113.7    0.10474773971146
                 37.03    0.28292084635691
                 13.27    0.44849523869833
                 5.025    0.27081688521277
                 1.013    0.01545029160744
 s    8 1.00
                 11720  -0.00031444341168873
                  1759  -0.0024821376810179
                 400.8  -0.012316355381583
                 113.7  -0.050538917343672
                 37.03   -0.13938490331632
                 13.27   -0.32507749481778
                 5.025   -0.22984830758785
                 1.013     1.0953793467883
 s    1 1.00
                0.3023                   1
 p    3 1.00
                  17.7   0.062679166281506
                 3.854    0.33353656587936
                 1.046    0.74123964163973
 p    1 1.00
                0.2753                   1
 d    1 1.00
                 1.185                   1

2 0
 s    3 1.00
                 13.01   0.033498726389998
                 1.962    0.23480080117413
                0.4446     0.8136829578829
 s    1 1.00
                 0.122                   1
 p    1 1.00
                 0.727                   1

3 0
 s    3 1.00
                 13.01   0.033498726389998
                 1.962    0.23480080117413
                0.4446     0.8136829578829
 s    1 1.00
                 0.122                   1
 p    1 1.00
                 0.727                   1

4 0
 s    8 1.00
                 11720  0.00070964594651845
                  1759  0.0054672722921914
                 400.8   0.027823118610189
                 113.7    0.10474773971146
                 37.03    0.28292084635691
                 13.27    0.44849523869833
                 5.025    0.27081688521277
                 1.013    0.01545029160744
 s    8 1.00
                 11720  -0.00031444341168873
                  1759  -0.0024821376810179
                 400.8  -0.012316355381583
                 113.7  -0.050538917343672
                 37.03   -0.13938490331632
                 13.27   -0.32507749481778
                 5.025   -0.22984830758785
                 1.013     1.0953793467883
 s    1 1.00
                0.3023                   1
 p    3 1.00
                  17.7   0.062679166281506
                 3.854    0.33353656587936
                 1.046    0.74123964163973
 p    1 1.00
                0.2753                   1
 d    1 1.00
                 1.185                   1

5 0
 s    8 1.00
                  6665  0.00069158396281299
                  1000  0.0053257961529341
                   228   0.027060721042034
                 64.71    0.10165684614077
                 21.06     0.2745748236174
                 7.495    0.44829431892377
                 2.797    0.28490261071525
                0.5215   0.015194859206082
 s    8 1.00
                  6665  -0.00029326965268655
                  1000  -0.0023180354739745
                   228  -0.011499786038565
                 64.71  -0.046826727009787
                 21.06   -0.12846616875047
                 7.495   -0.30126627246289
                 2.797   -0.25563070233011
                0.5215      1.093793361012
 s    1 1.00
                0.1596                   1
 p    3 1.00
                 9.439   0.056979251590039
                 2.002    0.31320721150073
                0.5456    0.76037674173753
 p    1 1.00
                0.1517                   1
 d    1 1.00
                  0.55                   1

6 0
 s    8 1.00
                  6665  0.00069158396281299
                  1000  0.0053257961529341
                   228   0.027060721042034
                 64.71    0.10165684614077
                 21.06     0.2745748236174
                 7.495    0.44829431892377
                 2.797    0.28490261071525
                0.5215   0.015194859206082
 s    8 1.00
                  6665  -0.00029326965268655
                  1000  -0.0023180354739745
                   228  -0.011499786038565
                 64.71  -0.046826727009787
                 21.06   -0.12846616875047
                 7.495   -0.30126627246289
                 2.797   -0.25563070233011
                0.5215      1.093793361012
 s    1 1.00
                0.1596                   1
 p    3 1.00
                 9.439   0.056979251590039
                 2.002    0.31320721150073
                0.5456    0.76037674173753
 p    1 1.00
                0.1517                   1
 d    1 1.00
                  0.55                   1

7 0
 s    8 1.00
                  6665  0.00069158396281299
                  1000  0.0053257961529341
                   228   0.027060721042034
                 64.71    0.10165684614077
                 21.06     0.2745748236174
                 7.495    0.44829431892377
                 2.797    0.28490261071525
                0.5215   0.015194859206082
 s    8 1.00
                  6665  -0.00029326965268655
                  1000  -0.0023180354739745
                   228  -0.011499786038565
                 64.71  -0.046826727009787
                 21.06   -0.12846616875047
                 7.495   -0.30126627246289
                 2.797   -0.25563070233011
                0.5215      1.093793361012
 s    1 1.00
                0.1596                   1
 p    3 1.00
                 9.439   0.056979251590039
                 2.002    0.31320721150073
                0.5456    0.76037674173753
 p    1 1.00
                0.1517                   1
 d    1 1.00
                  0.55                   1

8 0
 s    3 1.00
                 13.01   0.033498726389998
                 1.962    0.23480080117413
                0.4446     0.8136829578829
 s    1 1.00
                 0.122                   1
 p    1 1.00
                 0.727                   1

9 0
 s    8 1.00
                  6665  0.00069158396281299
                  1000  0.0053257961529341
                   228   0.027060721042034
                 64.71    0.10165684614077
                 21.06     0.2745748236174
                 7.495    0.44829431892377
                 2.797    0.28490261071525
                0.5215   0.015194859206082
 s    8 1.00
                  6665  -0.00029326965268655
                  1000  -0.0023180354739745
                   228  -0.011499786038565
                 64.71  -0.046826727009787
                 21.06   -0.12846616875047
                 7.495   -0.30126627246289
                 2.797   -0.25563070233011
                0.5215      1.093793361012
 s    1 1.00
                0.1596                   1
 p    3 1.00
                 9.439   0.056979251590039
                 2.002    0.31320721150073
                0.5456    0.76037674173753
 p    1 1.00
                0.1517                   1
 d    1 1.00
                  0.55                   1

10 0
 s    3 1.00
                 13.01   0.033498726389998
                 1.962    0.23480080117413
                0.4446     0.8136829578829
 s    1 1.00
                 0.122                   1
 p    1 1.00
                 0.727                   1

11 0
 s    3 1.00
                 13.01   0.033498726389998
                 1.962    0.23480080117413
                0.4446     0.8136829578829
 s    1 1.00
                 0.122                   1
 p    1 1.00
                 0.727                   1

12 0
 s    3 1.00
                 13.01   0.033498726389998
                 1.962    0.23480080117413
                0.4446     0.8136829578829
 s    1 1.00
                 0.122                   1
 p    1 1.00
                 0.727                   1

13 0
 s    8 1.00
                  6665  0.00069158396281299
                  1000  0.0053257961529341
                   228   0.027060721042034
                 64.71    0.10165684614077
                 21.06     0.2745748236174
                 7.495    0.44829431892377
                 2.797    0.28490261071525
                0.5215   0.015194859206082
 s    8 1.00
                  6665  -0.00029326965268655
                  1000  -0.0023180354739745
                   228  -0.011499786038565
                 64.71  -0.046826727009787
                 21.06   -0.12846616875047
                 7.495   -0.30126627246289
                 2.797   -0.25563070233011
                0.5215      1.093793361012
 s    1 1.00
                0.1596                   1
 p    3 1.00
                 9.439   0.056979251590039
                 2.002    0.31320721150073
                0.5456    0.76037674173753
 p    1 1.00
                0.1517                   1
 d    1 1.00
                  0.55                   1

14 0
 s    3 1.00
                 13.01   0.033498726389998
                 1.962    0.23480080117413
                0.4446     0.8136829578829
 s    1 1.00
                 0.122                   1
 p    1 1.00
                 0.727                   1

15 0
 s    3 1.00
                 13.01   0.033498726389998
                 1.962    0.23480080117413
                0.4446     0.8136829578829
 s    1 1.00
                 0.122                   1
 p    1 1.00
                 0.727                   1

16 0
 s    8 1.00
                  6665  0.00069158396281299
                  1000  0.0053257961529341
                   228   0.027060721042034
                 64.71    0.10165684614077
                 21.06     0.2745748236174
                 7.495    0.44829431892377
                 2.797    0.28490261071525
                0.5215   0.015194859206082
 s    8 1.00
                  6665  -0.00029326965268655
                  1000  -0.0023180354739745
                   228  -0.011499786038565
                 64.71  -0.046826727009787
                 21.06   -0.12846616875047
                 7.495   -0.30126627246289
                 2.797   -0.25563070233011
                0.5215      1.093793361012
 s    1 1.00
                0.1596                   1
 p    3 1.00
                 9.439   0.056979251590039
                 2.002    0.31320721150073
                0.5456    0.76037674173753
 p    1 1.00
                0.1517                   1
 d    1 1.00
                  0.55                   1

17 0
 s    3 1.00
                 13.01   0.033498726389998
                 1.962    0.23480080117413
                0.4446     0.8136829578829
 s    1 1.00
                 0.122                   1
 p    1 1.00
                 0.727                   1

18 0
 s    3 1.00
                 13.01   0.033498726389998
                 1.962    0.23480080117413
                0.4446     0.8136829578829
 s    1 1.00
                 0.122                   1
 p    1 1.00
                 0.727                   1

19 0
 s    8 1.00
                  6665  0.00069158396281299
                  1000  0.0053257961529341
                   228   0.027060721042034
                 64.71    0.10165684614077
                 21.06     0.2745748236174
                 7.495    0.44829431892377
                 2.797    0.28490261071525
                0.5215   0.015194859206082
 s    8 1.00
                  6665  -0.00029326965268655
                  1000  -0.0023180354739745
                   228  -0.011499786038565
                 64.71  -0.046826727009787
                 21.06   -0.12846616875047
                 7.495   -0.30126627246289
                 2.797   -0.25563070233011
                0.5215      1.093793361012
 s    1 1.00
                0.1596                   1
 p    3 1.00
                 9.439   0.056979251590039
                 2.002    0.31320721150073
                0.5456    0.76037674173753
 p    1 1.00
                0.1517                   1
 d    1 1.00
                  0.55                   1

20 0
 s    3 1.00
                 13.01   0.033498726389998
                 1.962    0.23480080117413
                0.4446     0.8136829578829
 s    1 1.00
                 0.122                   1
 p    1 1.00
                 0.727                   1

21 0
 s    8 1.00
                  6665  0.00069158396281299
                  1000  0.0053257961529341
                   228   0.027060721042034
                 64.71    0.10165684614077
                 21.06     0.2745748236174
                 7.495    0.44829431892377
                 2.797    0.28490261071525
                0.5215   0.015194859206082
 s    8 1.00
                  6665  -0.00029326965268655
                  1000  -0.0023180354739745
                   228  -0.011499786038565
                 64.71  -0.046826727009787
                 21.06   -0.12846616875047
                 7.495   -0.30126627246289
                 2.797   -0.25563070233011
                0.5215      1.093793361012
 s    1 1.00
                0.1596                   1
 p    3 1.00
                 9.439   0.056979251590039
                 2.002    0.31320721150073
                0.5456    0.76037674173753
 p    1 1.00
                0.1517                   1
 d    1 1.00
                  0.55                   1

22 0
 s    3 1.00
                 13.01   0.033498726389998
                 1.962    0.23480080117413
                0.4446     0.8136829578829
 s    1 1.00
                 0.122                   1
 p    1 1.00
                 0.727                   1

23 0
 s    3 1.00
                 13.01   0.033498726389998
                 1.962    0.23480080117413
                0.4446     0.8136829578829
 s    1 1.00
                 0.122                   1
 p    1 1.00
                 0.727                   1

24 0
 s    3 1.00
                 13.01   0.033498726389998
                 1.962    0.23480080117413
                0.4446     0.8136829578829
 s    1 1.00
                 0.122                   1
 p    1 1.00
                 0.727                   1

25 0
 s    8 1.00
                  6665  0.00069158396281299
                  1000  0.0053257961529341
                   228   0.027060721042034
                 64.71    0.10165684614077
                 21.06     0.2745748236174
                 7.495    0.44829431892377
                 2.797    0.28490261071525
                0.5215   0.015194859206082
 s    8 1.00
                  6665  -0.00029326965268655
                  1000  -0.0023180354739745
                   228  -0.011499786038565
                 64.71  -0.046826727009787
                 21.06   -0.12846616875047
                 7.495   -0.30126627246289
                 2.797   -0.25563070233011
                0.5215      1.093793361012
 s    1 1.00
                0.1596                   1
 p    3 1.00
                 9.439   0.056979251590039
                 2.002    0.31320721150073
                0.5456    0.76037674173753
 p    1 1.00
                0.1517                   1
 d    1 1.00
                  0.55                   1

26 0
 s    3 1.00
                 13.01   0.033498726389998
                 1.962    0.23480080117413
                0.4446     0.8136829578829
 s    1 1.00
                 0.122                   1
 p    1 1.00
                 0.727                   1

27 0
 s    3 1.00
                 13.01   0.033498726389998
                 1.962    0.23480080117413
                0.4446     0.8136829578829
 s    1 1.00
                 0.122                   1
 p    1 1.00
                 0.727                   1

28 0
 s    8 1.00
                  6665  0.00069158396281299
                  1000  0.0053257961529341
                   228   0.027060721042034
                 64.71    0.10165684614077
                 21.06     0.2745748236174
                 7.495    0.44829431892377
                 2.797    0.28490261071525
                0.5215   0.015194859206082
 s    8 1.00
                  6665  -0.00029326965268655
                  1000  -0.0023180354739745
                   228  -0.011499786038565
                 64.71  -0.046826727009787
                 21.06   -0.12846616875047
                 7.495   -0.30126627246289
                 2.797   -0.25563070233011
                0.5215      1.093793361012
 s    1 1.00
                0.1596                   1
 p    3 1.00
                 9.439   0.056979251590039
                 2.002    0.31320721150073
                0.5456    0.76037674173753
 p    1 1.00
                0.1517                   1
 d    1 1.00
                  0.55                   1

29 0
 s    3 1.00
                 13.01   0.033498726389998
                 1.962    0.23480080117413
                0.4446     0.8136829578829
 s    1 1.00
                 0.122                   1
 p    1 1.00
                 0.727                   1

30 0
 s    3 1.00
                 13.01   0.033498726389998
                 1.962    0.23480080117413
                0.4446     0.8136829578829
 s    1 1.00
                 0.122                   1
 p    1 1.00
                 0.727                   1

31 0
 s    8 1.00
                  6665  0.00069158396281299
                  1000  0.0053257961529341
                   228   0.027060721042034
                 64.71    0.10165684614077
                 21.06     0.2745748236174
                 7.495    0.44829431892377
                 2.797    0.28490261071525
                0.5215   0.015194859206082
 s    8 1.00
                  6665  -0.00029326965268655
                  1000  -0.0023180354739745
                   228  -0.011499786038565
                 64.71  -0.046826727009787
                 21.06   -0.12846616875047
                 7.495   -0.30126627246289
                 2.797   -0.25563070233011
                0.5215      1.093793361012
 s    1 1.00
                0.1596                   1
 p    3 1.00
                 9.439   0.056979251590039
                 2.002    0.31320721150073
                0.5456    0.76037674173753
 p    1 1.00
                0.1517                   1
 d    1 1.00
                  0.55                   1

32 0
 s    3 1.00
                 13.01   0.033498726389998
                 1.962    0.23480080117413
                0.4446     0.8136829578829
 s    1 1.00
                 0.122                   1
 p    1 1.00
                 0.727                   1

33 0
 s    3 1.00
                 13.01   0.033498726389998
                 1.962    0.23480080117413
                0.4446     0.8136829578829
 s    1 1.00
                 0.122                   1
 p    1 1.00
                 0.727                   1

34 0
 s    3 1.00
                 13.01   0.033498726389998
                 1.962    0.23480080117413
                0.4446     0.8136829578829
 s    1 1.00
                 0.122                   1
 p    1 1.00
                 0.727                   1

35 0
 s    3 1.00
                 13.01   0.033498726389998
                 1.962    0.23480080117413
                0.4446     0.8136829578829
 s    1 1.00
                 0.122                   1
 p    1 1.00
                 0.727                   1

36 0
 s    3 1.00
                 13.01   0.033498726389998
                 1.962    0.23480080117413
                0.4446     0.8136829578829
 s    1 1.00
                 0.122                   1
 p    1 1.00
                 0.727                   1

37 0
 s    3 1.00
                 13.01   0.033498726389998
                 1.962    0.23480080117413
                0.4446     0.8136829578829
 s    1 1.00
                 0.122                   1
 p    1 1.00
                 0.727                   1

[5d]
[7f]
[9g]

[MO]
 Sym= A
 Ene=               0
 Spin= Alpha
 Occup=    1.00000
   1    6.7205587425773e-05
   2    4.4002340482348e-05
   3    -0.00013871883616477
   4    -2.7703744551692e-07
   5    -5.2623885996347e-06
   6    -5.3996233390604e-06
   7    8.7025025648096e-08
   8    2.3758997329852e-05
   9    5.5006939790046e-05
  10    -6.0846721690257e-06
  11    2.2108192291347e-07
  12    -1.8497065147289e-06
  13    -1.2044440777356e-06
  14    -2.4474923492088e-08
  15    5.872226077455e-05
  16    0.00023107403799161
  17    8.1396241971068e-07
  18    -2.8319419560563e-06
  19    -1.3547854953217e-05
  20    4.6732517061672e-07
  21    -5.3634431357809e-05
  22    -1.5001307672984e-07
  23    -5.4337077455902e-07
  24    5.1055675613111e-06
  25      -1.0013869374844
  26    -0.0020127327298412
  27    0.0069970386802494
  28    5.4170270905828e-06
  29    -1.2492039693314e-05
  30    0.0016270795769236
  31    2.5050745200073e-07
  32    3.7689399124795e-06
  33    -0.002007356315116
  34    -0.00010532726865856
  35    2.7617944722113e-06
  36    -1.5354575354315e-06
  37    -6.5667626786426e-05
  38     0.000170946881451
  39    -0.00029523388405816
  40    -0.00041815869948186
  41    -0.0015823009630377
  42    -1.6304707656571e-05
  43    1.0034699952642e-05
  44    -3.5990887860395e-05
  45    -8.4758773928524e-05
  46    6.7318415453067e-05
  47    -0.0037271645341061
  48    0.00049431725679265
  49    8.2013024126786e-06
  50    -2.7429491061846e-06
  51    -3.0494138453561e-05
  52    0.0001119993010937
  53    8.3994459136023e-05
  54    0.00016441812560526
  55    -0.0013934042346056
  56    -7.8833535386591e-05
  57    7.1107373536117e-06
  58    3.3687645309475e-05
  59    0.00043097399760241
  60    -0.00048514454667066
  61    0.00099202691661388
  62    0.00011555314489873
  63    -0.00014963704392066
  64    0.00014347811235061
  65    -5.3944087286796e-05
  66     0.000125983350976
  67    3.780957706586e-05
  68    9.4009293848401e-05
  69    -0.00052367883663939
  70    6.2428463628264e-05
  71    -4.1659459877393e-05
  72    6.1469829415039e-05
  73    -0.001024979674288
  74    0.00078781794771139
  75    0.00067192542966149
  76    0.00013897055028547
  77    0.00012148745475187
  78    -8.9762291775274e-05
  79    -5.813808277445e-05
  80    0.00014915347985481
  81    5.7412339236242e-05
  82    -0.00022200427447663
  83    -6.7333146906327e-05
  84    4.9420997201248e-05
  85    -4.6494067104967e-05
  86    -2.5011669673849e-05
  87    -4.8935479784592e-05
  88    0.00062834794534183
  89    1.558417831654e-05
  90    1.7357582862079e-05
  91    -1.0981361488152e-05
  92    -0.00026421502703581
  93    -0.00065747555720785
  94    9.2463886774371e-06
  95    -1.9321492105502e-05
  96    -1.1641923956841e-05
  97    -8.2563737649309e-06
  98    1.9025770806204e-05
  99    4.9377865005265e-05
 100    4.2110957058393e-05
 101    0.00016784788654249
 102    -5.6937118825157e-06
 103    1.0984003796614e-05
 104    -7.8193790715266e-05
 105    2.0125093179307e-05
 106    0.00020908937542249
 107    6.3762808430441e-05
 108    -7.3337632668614e-06
 109    -7.7094359878161e-05
 110    -7.8591845479368e-05
 111    6.8012791381453e-05
 112    4.3790999629753e-05
 113    -2.0594694520101e-05
 114    -7.2132323934741e-05
 115    4.7956722603747e-05
 116    9.7846687823147e-05
 117    -0.00085833146788634
 118    2.3826854459721e-05
 119    1.1730799102228e-05
 120    -3.1975684599582e-05
 121    -0.00028363504412866
 122    -3.9446889987327e-05
 123    0.00015883707324626
 124    5.9129931646585e-06
 125    -1.0341758146047e-05
 126    -1.4923798415784e-05
 127    3.2418108144914e-05
 128    -5.1589975630122e-05
 129    2.0331826890567e-05
 130    0.00034134862151929
 131    -8.2542820987848e-06
 132    -6.0211294390472e-06
 133    -2.9770801790732e-05
 134    -2.5630140063785e-05
 135    0.00011717462705614
 136    1.3895131126646e-05
 137    2.5570876269392e-05
 138    2.7799868542739e-05
 139    2.2257530128367e-05
 140    4.0531319617146e-05
 141    -0.00030976963660732
 142    -7.7117255636187e-06
 143    3.0816383980329e-06
 144    6.0042551985207e-06
 145    0.00023259580744178
 146    -6.0924989647819e-05
 147    -5.8863117067776e-05
 148    2.6228623936849e-06
 149    -3.3788557250689e-06
 150    4.8118838035308e-06
 151    -1.2897968330875e-05
 152    4.7618118696221e-06
 153    9.8379775737143e-05
 154    9.4195276628734e-05
 155    2.6813733162146e-05
 156    -2.7692579760673e-05
 157    -1.9181912348725e-05
 158    2.6348901126116e-05
 159    8.5397327632428e-05
 160    5.9209138493612e-05
 161    7.4809973808527e-06
 162    -6.8420446145128e-06
 163    4.3344877767175e-07
 164    2.5952280676797e-06
 165    0.00026502650331505
 166    1.8585811551216e-05
 167    -1.4451677824125e-05
 168    -7.3647491628635e-06
 169    -0.00023347209038453
 170    0.00021041182465558
 171    0.00014162864741934
 172    2.400232692658e-06
 173    -1.0111069346441e-05
 174    1.3617908297307e-05
 175    -3.0769380460553e-06
 176    1.7985403684663e-05
 177    1.6651203730696e-05
 178    -8.6936741651331e-05
 179    1.2448553976381e-06
 180    -1.5636773889696e-06
 181    4.6150203086844e-06
 182    -1.6406859299286e-05
 183    -2.9057627377574e-05
 184    8.0945894495845e-05
 185    4.5347213880371e-06
 186    -3.9140591000416e-06
 187    -5.3528836397952e-06
 188    -0.00013213047098399
 189    0.00010210919767241
 190    9.2279423931327e-05
 191    -1.2127475555878e-06
 192    -2.396055514139e-06
 193    7.6034071285738e-06
 194    3.0260584704995e-06
 195    5.7364601386348e-06
 196    1.3150973124112e-05
 197    1.9730627493338e-05
 198    -5.6801216894616e-06
 199    -1.9283935276662e-06
 200    3.1547711833514e-06
 201    1.285650164959e-05
 202    -1.2075968467875e-06
 203    1.3516081595383e-05
 204    -9.8490451683403e-06
 205    -1.1812358266459e-05
 206    -9.1266684452078e-06
 207    -6.8931063657866e-05
 208    1.6099145533577e-05
 209    -3.9076173297314e-06
 210    -1.6042078530097e-05
 211    1.8744124186365e-05
 212    3.2427361707401e-05
 213    -0.00027040460095742
 214    -5.8862488056024e-06
 215    2.4243753905556e-06
 216    6.1636500314135e-06
 217    -0.00019420142329948
 218    5.1429748127712e-05
 219    8.0408538679393e-05
 220    2.3891937676267e-06
 221    1.6629812017903e-05
 222    -5.5462940865833e-06
 223    -9.5179397258924e-06
 224    2.1343881859465e-06
 225    -2.6839414714286e-05
 226    -5.7189619472769e-05
 227     1.26632608055e-05
 228    2.2022517361472e-06
 229    9.7516351638726e-07
 230    -1.0311013737987e-05
 231    -5.461044057372e-05
 232    4.1267501146201e-06
 233    -6.5287041350478e-06
 234    -1.2247117644952e-05
 235    -5.2452453743282e-07
 236    -9.0835530583972e-07
 237    7.9665968991892e-05
 238    -2.2178275785792e-06
 239    -2.0985466283726e-06
 240    3.7773880982368e-06
 241    -3.6739776032244e-05
 242    6.4050979891214e-05
 243    -1.8407990085326e-05
 244    -2.0019313274659e-06
 245    -1.9276268061813e-06
 246    1.8770478974736e-06
 247    -1.4105035633635e-07
 248    -9.2818347151832e-07
 249    1.8280405754382e-05
 250    -8.9041370666702e-06
 251    4.3367937494288e-06
 252    8.7459011559846e-07
 253    -1.9413474187533e-07
 254    1.6632013033472e-05
 255    -5.5876963239813e-05
 256    -3.1632201107126e-07
 257    -4.2180410066133e-06
 258    7.6084255522274e-07
 259    9.5549091794648e-06
 260    1.7930146375329e-05
 261    -7.1777887294074e-05
 262    7.2516406459744e-06