[Molden Format]
made by pyscf v[2.0.1]
[Atoms] (AU)
O   1   8     0.00000000000000     0.00000000000000     9.42996968581551
H   2   1     0.00000000000000     0.00000000000000     7.60656786391454
H   3   1    -0.05031916615174     1.78353065140343     9.80584138228218
O   4   8     0.00000000000000     0.00000000000000     2.31533471513237
C   5   6     0.00000000000000     0.00000000000000     0.00000000000000
C   6   6     2.01118073026938    -1.40227222164369    -1.50774939176400
C   7   6    -2.01249334291722     1.41331050329955    -1.50315905028694
H   8   1     3.32037363730244    -2.26721897153159    -0.13599698591495
C   9   6     3.45899267434009     0.28739631745591    -3.37437943254505
H   10   1     1.07662969841332    -2.94725144642667    -2.56541439481080
H   11   1    -2.67503415753480     0.18421555839588    -3.06194479365997
H   12   1    -1.07974048864772     3.03851734677796    -2.43674295017013
C   13   6    -4.21607110578555     2.32938802552922     0.11994162256091
H   14   1     4.24440173074564     1.93368664142019    -2.34976285512790
H   15   1     2.15020713235517     1.04714335134846    -4.81494497423699
C   16   6     5.60746363007797    -1.12419643481196    -4.70268606082550
H   17   1    -3.46838323670267     3.50951302338067     1.66946842715333
H   18   1    -5.11873485366228     0.68575958301209     1.04047743976495
C   19   6    -6.18314754751344     3.80909592987882    -1.39656589068747
H   20   1     6.93011263717176    -1.87550812453645    -3.26656317360070
C   21   6     7.06356622236532     0.52877932406334    -6.57829775293605
H   22   1     4.82318879258361    -2.78573437948532    -5.70504560381835
H   23   1    -6.91582688743803     2.61304780074712    -2.95074552451969
H   24   1    -5.26532430573853     5.45420349051338    -2.31005832200284
C   25   6    -8.39941882261433     4.73263980500213     0.21800571437956
H   26   1     7.83338371486801     2.19084139882824    -5.57093109900697
H   27   1     5.73544244039420     1.27376866537418    -8.01071492370229
C   28   6     9.21124858443101    -0.89699110072176    -7.88926949186242
H   29   1    -7.66272760055236     5.92277078003992     1.77035591474408
H   30   1    -9.31497248082589     3.08753015622020     1.12614408368786
C   31   6   -10.35481709231879     6.21833079391143    -1.30905206253246
H   32   1    10.58815905329501    -1.61074586756696    -6.49512691622620
H   33   1    10.23506248045667     0.32468009384095    -9.23072870921204
H   34   1     8.47665842847139    -2.53598436989925    -8.94921964622535
H   35   1    -9.48948872868064     7.90013588951020    -2.18823918416067
H   36   1   -11.93332513000955     6.86460487874102    -0.11255798845995
H   37   1   -11.15126291841033     5.04495968327630    -2.83849898862534
[GTO]
1 0
 s    8 1.00
                 11720  0.00070964594651845
                  1759  0.0054672722921914
                 400.8   0.027823118610189
                 113.7    0.10474773971146
                 37.03    0.28292084635691
                 13.27    0.44849523869833
                 5.025    0.27081688521277
                 1.013    0.01545029160744
 s    8 1.00
                 11720  -0.00031444341168873
                  1759  -0.0024821376810179
                 400.8  -0.012316355381583
                 113.7  -0.050538917343672
                 37.03   -0.13938490331632
                 13.27   -0.32507749481778
                 5.025   -0.22984830758785
                 1.013     1.0953793467883
 s    1 1.00
                0.3023                   1
 p    3 1.00
                  17.7   0.062679166281506
                 3.854    0.33353656587936
                 1.046    0.74123964163973
 p    1 1.00
                0.2753                   1
 d    1 1.00
                 1.185                   1

2 0
 s    3 1.00
                 13.01   0.033498726389998
                 1.962    0.23480080117413
                0.4446     0.8136829578829
 s    1 1.00
                 0.122                   1
 p    1 1.00
                 0.727                   1

3 0
 s    3 1.00
                 13.01   0.033498726389998
                 1.962    0.23480080117413
                0.4446     0.8136829578829
 s    1 1.00
                 0.122                   1
 p    1 1.00
                 0.727                   1

4 0
 s    8 1.00
                 11720  0.00070964594651845
                  1759  0.0054672722921914
                 400.8   0.027823118610189
                 113.7    0.10474773971146
                 37.03    0.28292084635691
                 13.27    0.44849523869833
                 5.025    0.27081688521277
                 1.013    0.01545029160744
 s    8 1.00
                 11720  -0.00031444341168873
                  1759  -0.0024821376810179
                 400.8  -0.012316355381583
                 113.7  -0.050538917343672
                 37.03   -0.13938490331632
                 13.27   -0.32507749481778
                 5.025   -0.22984830758785
                 1.013     1.0953793467883
 s    1 1.00
                0.3023                   1
 p    3 1.00
                  17.7   0.062679166281506
                 3.854    0.33353656587936
                 1.046    0.74123964163973
 p    1 1.00
                0.2753                   1
 d    1 1.00
                 1.185                   1

5 0
 s    8 1.00
                  6665  0.00069158396281299
                  1000  0.0053257961529341
                   228   0.027060721042034
                 64.71    0.10165684614077
                 21.06     0.2745748236174
                 7.495    0.44829431892377
                 2.797    0.28490261071525
                0.5215   0.015194859206082
 s    8 1.00
                  6665  -0.00029326965268655
                  1000  -0.0023180354739745
                   228  -0.011499786038565
                 64.71  -0.046826727009787
                 21.06   -0.12846616875047
                 7.495   -0.30126627246289
                 2.797   -0.25563070233011
                0.5215      1.093793361012
 s    1 1.00
                0.1596                   1
 p    3 1.00
                 9.439   0.056979251590039
                 2.002    0.31320721150073
                0.5456    0.76037674173753
 p    1 1.00
                0.1517                   1
 d    1 1.00
                  0.55                   1

6 0
 s    8 1.00
                  6665  0.00069158396281299
                  1000  0.0053257961529341
                   228   0.027060721042034
                 64.71    0.10165684614077
                 21.06     0.2745748236174
                 7.495    0.44829431892377
                 2.797    0.28490261071525
                0.5215   0.015194859206082
 s    8 1.00
                  6665  -0.00029326965268655
                  1000  -0.0023180354739745
                   228  -0.011499786038565
                 64.71  -0.046826727009787
                 21.06   -0.12846616875047
                 7.495   -0.30126627246289
                 2.797   -0.25563070233011
                0.5215      1.093793361012
 s    1 1.00
                0.1596                   1
 p    3 1.00
                 9.439   0.056979251590039
                 2.002    0.31320721150073
                0.5456    0.76037674173753
 p    1 1.00
                0.1517                   1
 d    1 1.00
                  0.55                   1

7 0
 s    8 1.00
                  6665  0.00069158396281299
                  1000  0.0053257961529341
                   228   0.027060721042034
                 64.71    0.10165684614077
                 21.06     0.2745748236174
                 7.495    0.44829431892377
                 2.797    0.28490261071525
                0.5215   0.015194859206082
 s    8 1.00
                  6665  -0.00029326965268655
                  1000  -0.0023180354739745
                   228  -0.011499786038565
                 64.71  -0.046826727009787
                 21.06   -0.12846616875047
                 7.495   -0.30126627246289
                 2.797   -0.25563070233011
                0.5215      1.093793361012
 s    1 1.00
                0.1596                   1
 p    3 1.00
                 9.439   0.056979251590039
                 2.002    0.31320721150073
                0.5456    0.76037674173753
 p    1 1.00
                0.1517                   1
 d    1 1.00
                  0.55                   1

8 0
 s    3 1.00
                 13.01   0.033498726389998
                 1.962    0.23480080117413
                0.4446     0.8136829578829
 s    1 1.00
                 0.122                   1
 p    1 1.00
                 0.727                   1

9 0
 s    8 1.00
                  6665  0.00069158396281299
                  1000  0.0053257961529341
                   228   0.027060721042034
                 64.71    0.10165684614077
                 21.06     0.2745748236174
                 7.495    0.44829431892377
                 2.797    0.28490261071525
                0.5215   0.015194859206082
 s    8 1.00
                  6665  -0.00029326965268655
                  1000  -0.0023180354739745
                   228  -0.011499786038565
                 64.71  -0.046826727009787
                 21.06   -0.12846616875047
                 7.495   -0.30126627246289
                 2.797   -0.25563070233011
                0.5215      1.093793361012
 s    1 1.00
                0.1596                   1
 p    3 1.00
                 9.439   0.056979251590039
                 2.002    0.31320721150073
                0.5456    0.76037674173753
 p    1 1.00
                0.1517                   1
 d    1 1.00
                  0.55                   1

10 0
 s    3 1.00
                 13.01   0.033498726389998
                 1.962    0.23480080117413
                0.4446     0.8136829578829
 s    1 1.00
                 0.122                   1
 p    1 1.00
                 0.727                   1

11 0
 s    3 1.00
                 13.01   0.033498726389998
                 1.962    0.23480080117413
                0.4446     0.8136829578829
 s    1 1.00
                 0.122                   1
 p    1 1.00
                 0.727                   1

12 0
 s    3 1.00
                 13.01   0.033498726389998
                 1.962    0.23480080117413
                0.4446     0.8136829578829
 s    1 1.00
                 0.122                   1
 p    1 1.00
                 0.727                   1

13 0
 s    8 1.00
                  6665  0.00069158396281299
                  1000  0.0053257961529341
                   228   0.027060721042034
                 64.71    0.10165684614077
                 21.06     0.2745748236174
                 7.495    0.44829431892377
                 2.797    0.28490261071525
                0.5215   0.015194859206082
 s    8 1.00
                  6665  -0.00029326965268655
                  1000  -0.0023180354739745
                   228  -0.011499786038565
                 64.71  -0.046826727009787
                 21.06   -0.12846616875047
                 7.495   -0.30126627246289
                 2.797   -0.25563070233011
                0.5215      1.093793361012
 s    1 1.00
                0.1596                   1
 p    3 1.00
                 9.439   0.056979251590039
                 2.002    0.31320721150073
                0.5456    0.76037674173753
 p    1 1.00
                0.1517                   1
 d    1 1.00
                  0.55                   1

14 0
 s    3 1.00
                 13.01   0.033498726389998
                 1.962    0.23480080117413
                0.4446     0.8136829578829
 s    1 1.00
                 0.122                   1
 p    1 1.00
                 0.727                   1

15 0
 s    3 1.00
                 13.01   0.033498726389998
                 1.962    0.23480080117413
                0.4446     0.8136829578829
 s    1 1.00
                 0.122                   1
 p    1 1.00
                 0.727                   1

16 0
 s    8 1.00
                  6665  0.00069158396281299
                  1000  0.0053257961529341
                   228   0.027060721042034
                 64.71    0.10165684614077
                 21.06     0.2745748236174
                 7.495    0.44829431892377
                 2.797    0.28490261071525
                0.5215   0.015194859206082
 s    8 1.00
                  6665  -0.00029326965268655
                  1000  -0.0023180354739745
                   228  -0.011499786038565
                 64.71  -0.046826727009787
                 21.06   -0.12846616875047
                 7.495   -0.30126627246289
                 2.797   -0.25563070233011
                0.5215      1.093793361012
 s    1 1.00
                0.1596                   1
 p    3 1.00
                 9.439   0.056979251590039
                 2.002    0.31320721150073
                0.5456    0.76037674173753
 p    1 1.00
                0.1517                   1
 d    1 1.00
                  0.55                   1

17 0
 s    3 1.00
                 13.01   0.033498726389998
                 1.962    0.23480080117413
                0.4446     0.8136829578829
 s    1 1.00
                 0.122                   1
 p    1 1.00
                 0.727                   1

18 0
 s    3 1.00
                 13.01   0.033498726389998
                 1.962    0.23480080117413
                0.4446     0.8136829578829
 s    1 1.00
                 0.122                   1
 p    1 1.00
                 0.727                   1

19 0
 s    8 1.00
                  6665  0.00069158396281299
                  1000  0.0053257961529341
                   228   0.027060721042034
                 64.71    0.10165684614077
                 21.06     0.2745748236174
                 7.495    0.44829431892377
                 2.797    0.28490261071525
                0.5215   0.015194859206082
 s    8 1.00
                  6665  -0.00029326965268655
                  1000  -0.0023180354739745
                   228  -0.011499786038565
                 64.71  -0.046826727009787
                 21.06   -0.12846616875047
                 7.495   -0.30126627246289
                 2.797   -0.25563070233011
                0.5215      1.093793361012
 s    1 1.00
                0.1596                   1
 p    3 1.00
                 9.439   0.056979251590039
                 2.002    0.31320721150073
                0.5456    0.76037674173753
 p    1 1.00
                0.1517                   1
 d    1 1.00
                  0.55                   1

20 0
 s    3 1.00
                 13.01   0.033498726389998
                 1.962    0.23480080117413
                0.4446     0.8136829578829
 s    1 1.00
                 0.122                   1
 p    1 1.00
                 0.727                   1

21 0
 s    8 1.00
                  6665  0.00069158396281299
                  1000  0.0053257961529341
                   228   0.027060721042034
                 64.71    0.10165684614077
                 21.06     0.2745748236174
                 7.495    0.44829431892377
                 2.797    0.28490261071525
                0.5215   0.015194859206082
 s    8 1.00
                  6665  -0.00029326965268655
                  1000  -0.0023180354739745
                   228  -0.011499786038565
                 64.71  -0.046826727009787
                 21.06   -0.12846616875047
                 7.495   -0.30126627246289
                 2.797   -0.25563070233011
                0.5215      1.093793361012
 s    1 1.00
                0.1596                   1
 p    3 1.00
                 9.439   0.056979251590039
                 2.002    0.31320721150073
                0.5456    0.76037674173753
 p    1 1.00
                0.1517                   1
 d    1 1.00
                  0.55                   1

22 0
 s    3 1.00
                 13.01   0.033498726389998
                 1.962    0.23480080117413
                0.4446     0.8136829578829
 s    1 1.00
                 0.122                   1
 p    1 1.00
                 0.727                   1

23 0
 s    3 1.00
                 13.01   0.033498726389998
                 1.962    0.23480080117413
                0.4446     0.8136829578829
 s    1 1.00
                 0.122                   1
 p    1 1.00
                 0.727                   1

24 0
 s    3 1.00
                 13.01   0.033498726389998
                 1.962    0.23480080117413
                0.4446     0.8136829578829
 s    1 1.00
                 0.122                   1
 p    1 1.00
                 0.727                   1

25 0
 s    8 1.00
                  6665  0.00069158396281299
                  1000  0.0053257961529341
                   228   0.027060721042034
                 64.71    0.10165684614077
                 21.06     0.2745748236174
                 7.495    0.44829431892377
                 2.797    0.28490261071525
                0.5215   0.015194859206082
 s    8 1.00
                  6665  -0.00029326965268655
                  1000  -0.0023180354739745
                   228  -0.011499786038565
                 64.71  -0.046826727009787
                 21.06   -0.12846616875047
                 7.495   -0.30126627246289
                 2.797   -0.25563070233011
                0.5215      1.093793361012
 s    1 1.00
                0.1596                   1
 p    3 1.00
                 9.439   0.056979251590039
                 2.002    0.31320721150073
                0.5456    0.76037674173753
 p    1 1.00
                0.1517                   1
 d    1 1.00
                  0.55                   1

26 0
 s    3 1.00
                 13.01   0.033498726389998
                 1.962    0.23480080117413
                0.4446     0.8136829578829
 s    1 1.00
                 0.122                   1
 p    1 1.00
                 0.727                   1

27 0
 s    3 1.00
                 13.01   0.033498726389998
                 1.962    0.23480080117413
                0.4446     0.8136829578829
 s    1 1.00
                 0.122                   1
 p    1 1.00
                 0.727                   1

28 0
 s    8 1.00
                  6665  0.00069158396281299
                  1000  0.0053257961529341
                   228   0.027060721042034
                 64.71    0.10165684614077
                 21.06     0.2745748236174
                 7.495    0.44829431892377
                 2.797    0.28490261071525
                0.5215   0.015194859206082
 s    8 1.00
                  6665  -0.00029326965268655
                  1000  -0.0023180354739745
                   228  -0.011499786038565
                 64.71  -0.046826727009787
                 21.06   -0.12846616875047
                 7.495   -0.30126627246289
                 2.797   -0.25563070233011
                0.5215      1.093793361012
 s    1 1.00
                0.1596                   1
 p    3 1.00
                 9.439   0.056979251590039
                 2.002    0.31320721150073
                0.5456    0.76037674173753
 p    1 1.00
                0.1517                   1
 d    1 1.00
                  0.55                   1

29 0
 s    3 1.00
                 13.01   0.033498726389998
                 1.962    0.23480080117413
                0.4446     0.8136829578829
 s    1 1.00
                 0.122                   1
 p    1 1.00
                 0.727                   1

30 0
 s    3 1.00
                 13.01   0.033498726389998
                 1.962    0.23480080117413
                0.4446     0.8136829578829
 s    1 1.00
                 0.122                   1
 p    1 1.00
                 0.727                   1

31 0
 s    8 1.00
                  6665  0.00069158396281299
                  1000  0.0053257961529341
                   228   0.027060721042034
                 64.71    0.10165684614077
                 21.06     0.2745748236174
                 7.495    0.44829431892377
                 2.797    0.28490261071525
                0.5215   0.015194859206082
 s    8 1.00
                  6665  -0.00029326965268655
                  1000  -0.0023180354739745
                   228  -0.011499786038565
                 64.71  -0.046826727009787
                 21.06   -0.12846616875047
                 7.495   -0.30126627246289
                 2.797   -0.25563070233011
                0.5215      1.093793361012
 s    1 1.00
                0.1596                   1
 p    3 1.00
                 9.439   0.056979251590039
                 2.002    0.31320721150073
                0.5456    0.76037674173753
 p    1 1.00
                0.1517                   1
 d    1 1.00
                  0.55                   1

32 0
 s    3 1.00
                 13.01   0.033498726389998
                 1.962    0.23480080117413
                0.4446     0.8136829578829
 s    1 1.00
                 0.122                   1
 p    1 1.00
                 0.727                   1

33 0
 s    3 1.00
                 13.01   0.033498726389998
                 1.962    0.23480080117413
                0.4446     0.8136829578829
 s    1 1.00
                 0.122                   1
 p    1 1.00
                 0.727                   1

34 0
 s    3 1.00
                 13.01   0.033498726389998
                 1.962    0.23480080117413
                0.4446     0.8136829578829
 s    1 1.00
                 0.122                   1
 p    1 1.00
                 0.727                   1

35 0
 s    3 1.00
                 13.01   0.033498726389998
                 1.962    0.23480080117413
                0.4446     0.8136829578829
 s    1 1.00
                 0.122                   1
 p    1 1.00
                 0.727                   1

36 0
 s    3 1.00
                 13.01   0.033498726389998
                 1.962    0.23480080117413
                0.4446     0.8136829578829
 s    1 1.00
                 0.122                   1
 p    1 1.00
                 0.727                   1

37 0
 s    3 1.00
                 13.01   0.033498726389998
                 1.962    0.23480080117413
                0.4446     0.8136829578829
 s    1 1.00
                 0.122                   1
 p    1 1.00
                 0.727                   1

[5d]
[7f]
[9g]

[MO]
 Sym= A
 Ene=               0
 Spin= Alpha
 Occup=    1.00000
   1    -6.0117780223625e-05
   2    -4.3189243734943e-05
   3    0.00013066517950402
   4    -7.9972956569375e-08
   5    5.4711106386448e-06
   6    8.0068919621898e-06
   7    5.9027144968306e-07
   8    -2.51716238293e-05
   9    -8.5728547509056e-05
  10    1.1191748720011e-05
  11    -2.0948076514415e-08
  12    -6.0131465036302e-07
  13    3.3723554370163e-07
  14    9.3250516661502e-09
  15    -1.6589327703691e-05
  16    -0.00019445929794635
  17    -1.930812490888e-07
  18    1.7543624953888e-06
  19    -2.2313934876931e-05
  20    -8.0718892088678e-06
  21    6.947792511692e-05
  22    1.7815250232604e-07
  23    -5.1398144847668e-06
  24    2.3703555155913e-06
  25       1.0013693611162
  26    0.0019677214394386
  27    -0.0068555882536414
  28    -4.8717446187122e-06
  29    9.1624122140229e-06
  30    -0.0016495216257002
  31    -2.9268307933264e-07
  32    -1.9113129174879e-06
  33    0.0018775722105914
  34    0.00011964002958752
  35    -2.9142676240771e-06
  36    1.4183070349992e-06
  37    6.716550048709e-05
  38    -0.00017485933373906
  39    0.00028014158443054
  40    0.00038616929692888
  41    0.0014635145704284
  42    1.5505598013585e-05
  43    -9.9917644484922e-06
  44    4.4553408760573e-06
  45    8.1849430117025e-05
  46    -6.4460358768936e-05
  47    0.0036006398010458
  48    -0.00052283033560094
  49    -8.3452584240052e-06
  50    2.5194611244369e-06
  51    2.9302635445445e-05
  52    -0.00010875500637009
  53    -8.4801594055605e-05
  54    -0.00016589283582053
  55    0.0013774418157581
  56    7.8307531988412e-05
  57    -7.3688890144491e-06
  58    -3.5291083438615e-05
  59    -0.00042494352232836
  60    0.00047903456502217
  61    -0.00094616829225736
  62    -0.00011692410493142
  63    0.00014995293240755
  64    -0.00014304573593149
  65    5.4722107989685e-05
  66    -0.00012877129563016
  67    -3.9572742001325e-05
  68    -9.712159244074e-05
  69    0.00051512758136378
  70    -6.1402329541357e-05
  71    4.0431245142184e-05
  72    -6.227080056076e-05
  73    0.0010071308678689
  74    -0.00077451332369972
  75    -0.00064706447771521
  76    -0.00014031144524327
  77    -0.00012100062617954
  78    8.9745006269705e-05
  79    5.8679839608351e-05
  80    -0.0001509755339974
  81    -6.2393449869027e-05
  82     0.000210728818362
  83    6.6404870457195e-05
  84    -4.8799097209145e-05
  85    4.8285686749086e-05
  86    2.5062493372223e-05
  87    4.9056342950701e-05
  88    -0.00061282342539365
  89    -1.5748626507496e-05
  90    -1.7158904083731e-05
  91     1.17170334899e-05
  92    0.00025881118562089
  93    0.0006350462866238
  94    -1.5729558486314e-05
  95    1.8424407279578e-05
  96    1.1340084522299e-05
  97    7.5956219830661e-06
  98    -2.0159525533367e-05
  99    -4.675857660007e-05
 100    -3.8770776719207e-05
 101    -0.00016095924529612
 102    8.1486876381008e-06
 103    -1.0180535182315e-05
 104    7.5550717677572e-05
 105    -1.859955080399e-05
 106    -0.00020317364684484
 107    -6.4182533280953e-05
 108    9.929215479907e-06
 109    7.5253148875884e-05
 110    7.7536942852896e-05
 111    -6.2043662241732e-05
 112    -4.4937074010944e-05
 113    1.9133488870577e-05
 114    7.0287521524272e-05
 115    -4.900520005535e-05
 116    -9.9847500375188e-05
 117    0.00084456085077524
 118    -2.5219496167234e-05
 119    -1.0622662227223e-05
 120    3.2543733415244e-05
 121    0.00028947667211266
 122    3.2936903688438e-05
 123    -0.00014548079501606
 124    -6.3587090468916e-06
 125    1.1823968599875e-05
 126    1.5209912806044e-05
 127    -3.2092174457928e-05
 128    5.0130417461574e-05
 129    -1.9417009804882e-05
 130    -0.00032789370392343
 131    7.7470396159657e-06
 132    5.926648981902e-06
 133    2.9370980179582e-05
 134    2.5866256282918e-05
 135    -0.00011771038467121
 136    -1.3585506342366e-05
 137    -2.4569950413113e-05
 138    -2.6923185965049e-05
 139    -2.1495056787215e-05
 140    -3.9157800197813e-05
 141    0.00029430877818455
 142    7.8502545300307e-06
 143    -2.6607125021753e-06
 144    -6.1073648695608e-06
 145    -0.00023070920865248
 146    5.4914215910684e-05
 147    6.2334088006524e-05
 148    -2.4716362433405e-06
 149     3.12626019174e-06
 150    -3.8874192139067e-06
 151    1.2234554587588e-05
 152    -4.9060862739454e-06
 153    -9.6840935316177e-05
 154    -0.0001042752282003
 155    -2.6317018825746e-05
 156    2.8867712479567e-05
 157    1.9600427581253e-05
 158    -2.5782404984611e-05
 159    -8.8198726525005e-05
 160    -5.9165104680046e-05
 161    -7.173175003574e-06
 162    6.486266484568e-06
 163    -1.5033793460408e-06
 164    -4.5350342038497e-06
 165    -0.00024865153425352
 166    -1.8292620415842e-05
 167    1.4352987395733e-05
 168    6.9619902865614e-06
 169    0.00023527201662549
 170    -0.00021094431285799
 171    -0.00013534162937698
 172    -2.7107603847993e-06
 173    9.9738294850048e-06
 174    -1.3486247283104e-05
 175    3.2120551847794e-06
 176    -1.8035969310661e-05
 177    -1.6163938179216e-05
 178    8.4804010744325e-05
 179    -9.4312817207074e-07
 180    1.8493618780486e-06
 181    -4.869257026233e-06
 182    1.5547505706252e-05
 183    2.7592723390011e-05
 184    -7.0617810379123e-05
 185    -4.7456882397808e-06
 186    3.6337508527926e-06
 187    5.506068412829e-06
 188    0.00012838087115309
 189    -0.00010206593559339
 190    -8.7090714203846e-05
 191    1.2625514049854e-06
 192    2.1399170656929e-06
 193    -7.6552747745339e-06
 194    -3.066709720803e-06
 195    -5.2972127733511e-06
 196    -1.3599035576327e-05
 197    -1.8921452417544e-05
 198    5.6550499756708e-06
 199    1.9434634049255e-06
 200    -3.4232365623754e-06
 201    -1.2987319803346e-05
 202    2.9277959486509e-06
 203    -1.3160212677455e-05
 204    9.9390154529169e-06
 205    1.178500799128e-05
 206    8.6408456351475e-06
 207    6.8083341899618e-05
 208    -1.611774598769e-05
 209    3.8946864920025e-06
 210    1.5701153013382e-05
 211    -1.8152878296973e-05
 212    -3.1464213309883e-05
 213    0.00026003484695975
 214    5.2316062941262e-06
 215    -2.1307255086321e-06
 216    -6.1419849860227e-06
 217    0.00019490519730103
 218    -5.3088831167543e-05
 219    -7.783421227251e-05
 220    -2.3062014550353e-06
 221    -1.6671756445707e-05
 222    5.5659845321894e-06
 223    9.3523057071711e-06
 224    -2.0410117283226e-06
 225    2.5773229272453e-05
 226    5.502709971853e-05
 227    -1.2374021382944e-05
 228    -1.9841676846267e-06
 229    -9.7746055686594e-07
 230    9.8907781045242e-06
 231    5.4338673140197e-05
 232    -4.0142579261064e-06
 233    6.3697591379952e-06
 234    1.2032924145288e-05
 235    4.3544298392313e-07
 236    7.2847479346835e-07
 237    -7.8708887184727e-05
 238    2.2998370863869e-06
 239    2.0337848699631e-06
 240    -3.7915612036797e-06
 241    3.5699189298264e-05
 242    -6.3048326445431e-05
 243    1.7965557975901e-05
 244    1.9287480268345e-06
 245    1.8437703084684e-06
 246    -1.9098640485797e-06
 247    1.6566661569006e-07
 248    9.3311603460507e-07
 249    -1.8318950202779e-05
 250    1.1048531967424e-05
 251    -4.4958909248314e-06
 252    -8.9532996101689e-07
 253    -7.0017885021024e-08
 254    -1.6304787836182e-05
 255    5.5655713663741e-05
 256    4.9890951784167e-08
 257    4.3382808072954e-06
 258    -8.7875426571663e-07
 259    -1.0376084593999e-05
 260    -1.8827755681752e-05
 261    7.7214536715598e-05
 262    -6.815674421124e-06