[Molden Format]
made by pyscf v[2.0.1]
[Atoms] (AU)
O   1   8     0.00000000000000     0.00000000000000     7.16229833633744
H   2   1     0.00000000000000     0.00000000000000     5.33889651443647
H   3   1    -0.05031916615174     1.78353065140343     7.53817003280410
O   4   8     0.00000000000000     0.00000000000000     2.31533471513237
C   5   6     0.00000000000000     0.00000000000000     0.00000000000000
C   6   6     2.01118073026938    -1.40227222164369    -1.50774939176400
C   7   6    -2.01249334291722     1.41331050329955    -1.50315905028694
H   8   1     3.32037363730244    -2.26721897153159    -0.13599698591495
C   9   6     3.45899267434009     0.28739631745591    -3.37437943254505
H   10   1     1.07662969841332    -2.94725144642667    -2.56541439481080
H   11   1    -2.67503415753480     0.18421555839588    -3.06194479365997
H   12   1    -1.07974048864772     3.03851734677796    -2.43674295017013
C   13   6    -4.21607110578555     2.32938802552922     0.11994162256091
H   14   1     4.24440173074564     1.93368664142019    -2.34976285512790
H   15   1     2.15020713235517     1.04714335134846    -4.81494497423699
C   16   6     5.60746363007797    -1.12419643481196    -4.70268606082550
H   17   1    -3.46838323670267     3.50951302338067     1.66946842715333
H   18   1    -5.11873485366228     0.68575958301209     1.04047743976495
C   19   6    -6.18314754751344     3.80909592987882    -1.39656589068747
H   20   1     6.93011263717176    -1.87550812453645    -3.26656317360070
C   21   6     7.06356622236532     0.52877932406334    -6.57829775293605
H   22   1     4.82318879258361    -2.78573437948532    -5.70504560381835
H   23   1    -6.91582688743803     2.61304780074712    -2.95074552451969
H   24   1    -5.26532430573853     5.45420349051338    -2.31005832200284
C   25   6    -8.39941882261433     4.73263980500213     0.21800571437956
H   26   1     7.83338371486801     2.19084139882824    -5.57093109900697
H   27   1     5.73544244039420     1.27376866537418    -8.01071492370229
C   28   6     9.21124858443101    -0.89699110072176    -7.88926949186242
H   29   1    -7.66272760055236     5.92277078003992     1.77035591474408
H   30   1    -9.31497248082589     3.08753015622020     1.12614408368786
C   31   6   -10.35481709231879     6.21833079391143    -1.30905206253246
H   32   1    10.58815905329501    -1.61074586756696    -6.49512691622620
H   33   1    10.23506248045667     0.32468009384095    -9.23072870921204
H   34   1     8.47665842847139    -2.53598436989925    -8.94921964622535
H   35   1    -9.48948872868064     7.90013588951020    -2.18823918416067
H   36   1   -11.93332513000955     6.86460487874102    -0.11255798845995
H   37   1   -11.15126291841033     5.04495968327630    -2.83849898862534
[GTO]
1 0
 s    8 1.00
                 11720  0.00070964594651845
                  1759  0.0054672722921914
                 400.8   0.027823118610189
                 113.7    0.10474773971146
                 37.03    0.28292084635691
                 13.27    0.44849523869833
                 5.025    0.27081688521277
                 1.013    0.01545029160744
 s    8 1.00
                 11720  -0.00031444341168873
                  1759  -0.0024821376810179
                 400.8  -0.012316355381583
                 113.7  -0.050538917343672
                 37.03   -0.13938490331632
                 13.27   -0.32507749481778
                 5.025   -0.22984830758785
                 1.013     1.0953793467883
 s    1 1.00
                0.3023                   1
 p    3 1.00
                  17.7   0.062679166281506
                 3.854    0.33353656587936
                 1.046    0.74123964163973
 p    1 1.00
                0.2753                   1
 d    1 1.00
                 1.185                   1

2 0
 s    3 1.00
                 13.01   0.033498726389998
                 1.962    0.23480080117413
                0.4446     0.8136829578829
 s    1 1.00
                 0.122                   1
 p    1 1.00
                 0.727                   1

3 0
 s    3 1.00
                 13.01   0.033498726389998
                 1.962    0.23480080117413
                0.4446     0.8136829578829
 s    1 1.00
                 0.122                   1
 p    1 1.00
                 0.727                   1

4 0
 s    8 1.00
                 11720  0.00070964594651845
                  1759  0.0054672722921914
                 400.8   0.027823118610189
                 113.7    0.10474773971146
                 37.03    0.28292084635691
                 13.27    0.44849523869833
                 5.025    0.27081688521277
                 1.013    0.01545029160744
 s    8 1.00
                 11720  -0.00031444341168873
                  1759  -0.0024821376810179
                 400.8  -0.012316355381583
                 113.7  -0.050538917343672
                 37.03   -0.13938490331632
                 13.27   -0.32507749481778
                 5.025   -0.22984830758785
                 1.013     1.0953793467883
 s    1 1.00
                0.3023                   1
 p    3 1.00
                  17.7   0.062679166281506
                 3.854    0.33353656587936
                 1.046    0.74123964163973
 p    1 1.00
                0.2753                   1
 d    1 1.00
                 1.185                   1

5 0
 s    8 1.00
                  6665  0.00069158396281299
                  1000  0.0053257961529341
                   228   0.027060721042034
                 64.71    0.10165684614077
                 21.06     0.2745748236174
                 7.495    0.44829431892377
                 2.797    0.28490261071525
                0.5215   0.015194859206082
 s    8 1.00
                  6665  -0.00029326965268655
                  1000  -0.0023180354739745
                   228  -0.011499786038565
                 64.71  -0.046826727009787
                 21.06   -0.12846616875047
                 7.495   -0.30126627246289
                 2.797   -0.25563070233011
                0.5215      1.093793361012
 s    1 1.00
                0.1596                   1
 p    3 1.00
                 9.439   0.056979251590039
                 2.002    0.31320721150073
                0.5456    0.76037674173753
 p    1 1.00
                0.1517                   1
 d    1 1.00
                  0.55                   1

6 0
 s    8 1.00
                  6665  0.00069158396281299
                  1000  0.0053257961529341
                   228   0.027060721042034
                 64.71    0.10165684614077
                 21.06     0.2745748236174
                 7.495    0.44829431892377
                 2.797    0.28490261071525
                0.5215   0.015194859206082
 s    8 1.00
                  6665  -0.00029326965268655
                  1000  -0.0023180354739745
                   228  -0.011499786038565
                 64.71  -0.046826727009787
                 21.06   -0.12846616875047
                 7.495   -0.30126627246289
                 2.797   -0.25563070233011
                0.5215      1.093793361012
 s    1 1.00
                0.1596                   1
 p    3 1.00
                 9.439   0.056979251590039
                 2.002    0.31320721150073
                0.5456    0.76037674173753
 p    1 1.00
                0.1517                   1
 d    1 1.00
                  0.55                   1

7 0
 s    8 1.00
                  6665  0.00069158396281299
                  1000  0.0053257961529341
                   228   0.027060721042034
                 64.71    0.10165684614077
                 21.06     0.2745748236174
                 7.495    0.44829431892377
                 2.797    0.28490261071525
                0.5215   0.015194859206082
 s    8 1.00
                  6665  -0.00029326965268655
                  1000  -0.0023180354739745
                   228  -0.011499786038565
                 64.71  -0.046826727009787
                 21.06   -0.12846616875047
                 7.495   -0.30126627246289
                 2.797   -0.25563070233011
                0.5215      1.093793361012
 s    1 1.00
                0.1596                   1
 p    3 1.00
                 9.439   0.056979251590039
                 2.002    0.31320721150073
                0.5456    0.76037674173753
 p    1 1.00
                0.1517                   1
 d    1 1.00
                  0.55                   1

8 0
 s    3 1.00
                 13.01   0.033498726389998
                 1.962    0.23480080117413
                0.4446     0.8136829578829
 s    1 1.00
                 0.122                   1
 p    1 1.00
                 0.727                   1

9 0
 s    8 1.00
                  6665  0.00069158396281299
                  1000  0.0053257961529341
                   228   0.027060721042034
                 64.71    0.10165684614077
                 21.06     0.2745748236174
                 7.495    0.44829431892377
                 2.797    0.28490261071525
                0.5215   0.015194859206082
 s    8 1.00
                  6665  -0.00029326965268655
                  1000  -0.0023180354739745
                   228  -0.011499786038565
                 64.71  -0.046826727009787
                 21.06   -0.12846616875047
                 7.495   -0.30126627246289
                 2.797   -0.25563070233011
                0.5215      1.093793361012
 s    1 1.00
                0.1596                   1
 p    3 1.00
                 9.439   0.056979251590039
                 2.002    0.31320721150073
                0.5456    0.76037674173753
 p    1 1.00
                0.1517                   1
 d    1 1.00
                  0.55                   1

10 0
 s    3 1.00
                 13.01   0.033498726389998
                 1.962    0.23480080117413
                0.4446     0.8136829578829
 s    1 1.00
                 0.122                   1
 p    1 1.00
                 0.727                   1

11 0
 s    3 1.00
                 13.01   0.033498726389998
                 1.962    0.23480080117413
                0.4446     0.8136829578829
 s    1 1.00
                 0.122                   1
 p    1 1.00
                 0.727                   1

12 0
 s    3 1.00
                 13.01   0.033498726389998
                 1.962    0.23480080117413
                0.4446     0.8136829578829
 s    1 1.00
                 0.122                   1
 p    1 1.00
                 0.727                   1

13 0
 s    8 1.00
                  6665  0.00069158396281299
                  1000  0.0053257961529341
                   228   0.027060721042034
                 64.71    0.10165684614077
                 21.06     0.2745748236174
                 7.495    0.44829431892377
                 2.797    0.28490261071525
                0.5215   0.015194859206082
 s    8 1.00
                  6665  -0.00029326965268655
                  1000  -0.0023180354739745
                   228  -0.011499786038565
                 64.71  -0.046826727009787
                 21.06   -0.12846616875047
                 7.495   -0.30126627246289
                 2.797   -0.25563070233011
                0.5215      1.093793361012
 s    1 1.00
                0.1596                   1
 p    3 1.00
                 9.439   0.056979251590039
                 2.002    0.31320721150073
                0.5456    0.76037674173753
 p    1 1.00
                0.1517                   1
 d    1 1.00
                  0.55                   1

14 0
 s    3 1.00
                 13.01   0.033498726389998
                 1.962    0.23480080117413
                0.4446     0.8136829578829
 s    1 1.00
                 0.122                   1
 p    1 1.00
                 0.727                   1

15 0
 s    3 1.00
                 13.01   0.033498726389998
                 1.962    0.23480080117413
                0.4446     0.8136829578829
 s    1 1.00
                 0.122                   1
 p    1 1.00
                 0.727                   1

16 0
 s    8 1.00
                  6665  0.00069158396281299
                  1000  0.0053257961529341
                   228   0.027060721042034
                 64.71    0.10165684614077
                 21.06     0.2745748236174
                 7.495    0.44829431892377
                 2.797    0.28490261071525
                0.5215   0.015194859206082
 s    8 1.00
                  6665  -0.00029326965268655
                  1000  -0.0023180354739745
                   228  -0.011499786038565
                 64.71  -0.046826727009787
                 21.06   -0.12846616875047
                 7.495   -0.30126627246289
                 2.797   -0.25563070233011
                0.5215      1.093793361012
 s    1 1.00
                0.1596                   1
 p    3 1.00
                 9.439   0.056979251590039
                 2.002    0.31320721150073
                0.5456    0.76037674173753
 p    1 1.00
                0.1517                   1
 d    1 1.00
                  0.55                   1

17 0
 s    3 1.00
                 13.01   0.033498726389998
                 1.962    0.23480080117413
                0.4446     0.8136829578829
 s    1 1.00
                 0.122                   1
 p    1 1.00
                 0.727                   1

18 0
 s    3 1.00
                 13.01   0.033498726389998
                 1.962    0.23480080117413
                0.4446     0.8136829578829
 s    1 1.00
                 0.122                   1
 p    1 1.00
                 0.727                   1

19 0
 s    8 1.00
                  6665  0.00069158396281299
                  1000  0.0053257961529341
                   228   0.027060721042034
                 64.71    0.10165684614077
                 21.06     0.2745748236174
                 7.495    0.44829431892377
                 2.797    0.28490261071525
                0.5215   0.015194859206082
 s    8 1.00
                  6665  -0.00029326965268655
                  1000  -0.0023180354739745
                   228  -0.011499786038565
                 64.71  -0.046826727009787
                 21.06   -0.12846616875047
                 7.495   -0.30126627246289
                 2.797   -0.25563070233011
                0.5215      1.093793361012
 s    1 1.00
                0.1596                   1
 p    3 1.00
                 9.439   0.056979251590039
                 2.002    0.31320721150073
                0.5456    0.76037674173753
 p    1 1.00
                0.1517                   1
 d    1 1.00
                  0.55                   1

20 0
 s    3 1.00
                 13.01   0.033498726389998
                 1.962    0.23480080117413
                0.4446     0.8136829578829
 s    1 1.00
                 0.122                   1
 p    1 1.00
                 0.727                   1

21 0
 s    8 1.00
                  6665  0.00069158396281299
                  1000  0.0053257961529341
                   228   0.027060721042034
                 64.71    0.10165684614077
                 21.06     0.2745748236174
                 7.495    0.44829431892377
                 2.797    0.28490261071525
                0.5215   0.015194859206082
 s    8 1.00
                  6665  -0.00029326965268655
                  1000  -0.0023180354739745
                   228  -0.011499786038565
                 64.71  -0.046826727009787
                 21.06   -0.12846616875047
                 7.495   -0.30126627246289
                 2.797   -0.25563070233011
                0.5215      1.093793361012
 s    1 1.00
                0.1596                   1
 p    3 1.00
                 9.439   0.056979251590039
                 2.002    0.31320721150073
                0.5456    0.76037674173753
 p    1 1.00
                0.1517                   1
 d    1 1.00
                  0.55                   1

22 0
 s    3 1.00
                 13.01   0.033498726389998
                 1.962    0.23480080117413
                0.4446     0.8136829578829
 s    1 1.00
                 0.122                   1
 p    1 1.00
                 0.727                   1

23 0
 s    3 1.00
                 13.01   0.033498726389998
                 1.962    0.23480080117413
                0.4446     0.8136829578829
 s    1 1.00
                 0.122                   1
 p    1 1.00
                 0.727                   1

24 0
 s    3 1.00
                 13.01   0.033498726389998
                 1.962    0.23480080117413
                0.4446     0.8136829578829
 s    1 1.00
                 0.122                   1
 p    1 1.00
                 0.727                   1

25 0
 s    8 1.00
                  6665  0.00069158396281299
                  1000  0.0053257961529341
                   228   0.027060721042034
                 64.71    0.10165684614077
                 21.06     0.2745748236174
                 7.495    0.44829431892377
                 2.797    0.28490261071525
                0.5215   0.015194859206082
 s    8 1.00
                  6665  -0.00029326965268655
                  1000  -0.0023180354739745
                   228  -0.011499786038565
                 64.71  -0.046826727009787
                 21.06   -0.12846616875047
                 7.495   -0.30126627246289
                 2.797   -0.25563070233011
                0.5215      1.093793361012
 s    1 1.00
                0.1596                   1
 p    3 1.00
                 9.439   0.056979251590039
                 2.002    0.31320721150073
                0.5456    0.76037674173753
 p    1 1.00
                0.1517                   1
 d    1 1.00
                  0.55                   1

26 0
 s    3 1.00
                 13.01   0.033498726389998
                 1.962    0.23480080117413
                0.4446     0.8136829578829
 s    1 1.00
                 0.122                   1
 p    1 1.00
                 0.727                   1

27 0
 s    3 1.00
                 13.01   0.033498726389998
                 1.962    0.23480080117413
                0.4446     0.8136829578829
 s    1 1.00
                 0.122                   1
 p    1 1.00
                 0.727                   1

28 0
 s    8 1.00
                  6665  0.00069158396281299
                  1000  0.0053257961529341
                   228   0.027060721042034
                 64.71    0.10165684614077
                 21.06     0.2745748236174
                 7.495    0.44829431892377
                 2.797    0.28490261071525
                0.5215   0.015194859206082
 s    8 1.00
                  6665  -0.00029326965268655
                  1000  -0.0023180354739745
                   228  -0.011499786038565
                 64.71  -0.046826727009787
                 21.06   -0.12846616875047
                 7.495   -0.30126627246289
                 2.797   -0.25563070233011
                0.5215      1.093793361012
 s    1 1.00
                0.1596                   1
 p    3 1.00
                 9.439   0.056979251590039
                 2.002    0.31320721150073
                0.5456    0.76037674173753
 p    1 1.00
                0.1517                   1
 d    1 1.00
                  0.55                   1

29 0
 s    3 1.00
                 13.01   0.033498726389998
                 1.962    0.23480080117413
                0.4446     0.8136829578829
 s    1 1.00
                 0.122                   1
 p    1 1.00
                 0.727                   1

30 0
 s    3 1.00
                 13.01   0.033498726389998
                 1.962    0.23480080117413
                0.4446     0.8136829578829
 s    1 1.00
                 0.122                   1
 p    1 1.00
                 0.727                   1

31 0
 s    8 1.00
                  6665  0.00069158396281299
                  1000  0.0053257961529341
                   228   0.027060721042034
                 64.71    0.10165684614077
                 21.06     0.2745748236174
                 7.495    0.44829431892377
                 2.797    0.28490261071525
                0.5215   0.015194859206082
 s    8 1.00
                  6665  -0.00029326965268655
                  1000  -0.0023180354739745
                   228  -0.011499786038565
                 64.71  -0.046826727009787
                 21.06   -0.12846616875047
                 7.495   -0.30126627246289
                 2.797   -0.25563070233011
                0.5215      1.093793361012
 s    1 1.00
                0.1596                   1
 p    3 1.00
                 9.439   0.056979251590039
                 2.002    0.31320721150073
                0.5456    0.76037674173753
 p    1 1.00
                0.1517                   1
 d    1 1.00
                  0.55                   1

32 0
 s    3 1.00
                 13.01   0.033498726389998
                 1.962    0.23480080117413
                0.4446     0.8136829578829
 s    1 1.00
                 0.122                   1
 p    1 1.00
                 0.727                   1

33 0
 s    3 1.00
                 13.01   0.033498726389998
                 1.962    0.23480080117413
                0.4446     0.8136829578829
 s    1 1.00
                 0.122                   1
 p    1 1.00
                 0.727                   1

34 0
 s    3 1.00
                 13.01   0.033498726389998
                 1.962    0.23480080117413
                0.4446     0.8136829578829
 s    1 1.00
                 0.122                   1
 p    1 1.00
                 0.727                   1

35 0
 s    3 1.00
                 13.01   0.033498726389998
                 1.962    0.23480080117413
                0.4446     0.8136829578829
 s    1 1.00
                 0.122                   1
 p    1 1.00
                 0.727                   1

36 0
 s    3 1.00
                 13.01   0.033498726389998
                 1.962    0.23480080117413
                0.4446     0.8136829578829
 s    1 1.00
                 0.122                   1
 p    1 1.00
                 0.727                   1

37 0
 s    3 1.00
                 13.01   0.033498726389998
                 1.962    0.23480080117413
                0.4446     0.8136829578829
 s    1 1.00
                 0.122                   1
 p    1 1.00
                 0.727                   1

[5d]
[7f]
[9g]

[MO]
 Sym= A
 Ene=               0
 Spin= Alpha
 Occup=    1.00000
   1    6.5655078015299e-05
   2    1.032372927514e-05
   3    -3.6049117502279e-05
   4    -7.9198855794303e-07
   5    -2.5503208816739e-06
   6    -8.6133231687045e-06
   7    1.2179064968668e-06
   8    1.7812735040127e-05
   9    -2.947089700006e-05
  10    1.5652076266122e-05
  11    3.1763020239932e-07
  12    -2.9300736812567e-06
  13    -2.9052106892733e-06
  14    -1.0050779826463e-07
  15    3.6088603233246e-05
  16    0.00018805107317332
  17    1.3455426469971e-06
  18    -4.069828027493e-06
  19    -3.510096488077e-05
  20    -1.3856299050871e-05
  21    -1.9101733170673e-05
  22    -1.9775180301589e-07
  23    -4.017002705158e-06
  24    9.3531888726545e-06
  25      -1.0014027337372
  26    -0.002069739940857
  27    0.0070477378563656
  28    5.6502345215216e-06
  29    -1.5255378251759e-05
  30    0.0015975820633877
  31    -4.5237391832515e-07
  32    4.6395065186304e-06
  33    -0.0020618037541179
  34    -0.0001089210648771
  35    2.709854640626e-06
  36    -1.3943103532217e-06
  37    -6.3699503819385e-05
  38    0.00016622037691526
  39    -0.00029927752954093
  40    -0.00042646926354335
  41    -0.0016424132405131
  42    -1.65691960463e-05
  43    1.0176822688966e-05
  44    -4.6746833543262e-05
  45    -8.208842119249e-05
  46    6.5777472342383e-05
  47    -0.0037720092069846
  48    0.00048501017261215
  49    8.086932854921e-06
  50    -2.4681602006044e-06
  51    -3.1307911392649e-05
  52    0.00011414194137981
  53    8.3799737983076e-05
  54    0.00016413121544752
  55    -0.0013976833519035
  56    -7.9237900702428e-05
  57    7.2193138993876e-06
  58    3.3607430515129e-05
  59    0.00043011466949918
  60    -0.00048596562200524
  61    0.0010048802616521
  62    0.00011505425560594
  63    -0.00015021584488702
  64    0.00014410532942274
  65    -5.38488787104e-05
  66    0.00012530366911199
  67    3.6728449681198e-05
  68    9.2270557704685e-05
  69    -0.00051402212894145
  70    6.3069774070115e-05
  71    -4.2299105621508e-05
  72    6.1713965467133e-05
  73    -0.0010301091473392
  74    0.0007911245830825
  75    0.00068446247860736
  76    0.00013847715922093
  77    0.00012213819962154
  78    -9.0052385566673e-05
  79    -5.7928049573779e-05
  80    0.0001485036299639
  81    5.6684212044201e-05
  82    -0.00022377891085709
  83    -6.7865964260584e-05
  84    4.981025556755e-05
  85    -4.6352438445412e-05
  86    -2.4869972972977e-05
  87    -4.8708948259402e-05
  88    0.00063055282166874
  89    1.5532312805007e-05
  90    1.7416122843273e-05
  91    -1.1003628785896e-05
  92    -0.00026546858778183
  93    -0.00066290777954642
  94    9.6102174308578e-06
  95    -1.9569502420623e-05
  96    -1.1604641154082e-05
  97    -8.4171907805637e-06
  98    1.8545505102497e-05
  99    5.0334299106705e-05
 100    4.2545409441232e-05
 101    0.00016961629210163
 102    -4.8272997841655e-06
 103    1.1052514329112e-05
 104    -7.895494101948e-05
 105    2.010713094006e-05
 106    0.00021053247162625
 107    6.3542272360555e-05
 108    -6.4393516395592e-06
 109    -7.7993543338374e-05
 110    -7.9529271464311e-05
 111    7.0011334858985e-05
 112    4.3428148932466e-05
 113    -2.1025142263436e-05
 114    -7.2864619363648e-05
 115    4.8759034870762e-05
 116    9.9209121536989e-05
 117    -0.00087619162387391
 118    2.3504082453787e-05
 119    1.2078891067604e-05
 120    -3.1969354825924e-05
 121    -0.00028311822745267
 122    -4.2071851342238e-05
 123    0.00016440312244179
 124    5.6179922423541e-06
 125    -1.0011838686737e-05
 126    -1.4901737968268e-05
 127    3.2619551033111e-05
 128    -5.2126637340216e-05
 129    2.0085401317789e-05
 130    0.00034493022296315
 131    -8.3872444613776e-06
 132    -5.9740718649092e-06
 133    -2.9936079397605e-05
 134    -2.5144758492239e-05
 135    0.00011749495843708
 136    1.4123806959966e-05
 137    2.5786851799701e-05
 138    2.7855921682061e-05
 139    2.2285605617133e-05
 140    4.0601553807574e-05
 141    -0.00031209676780397
 142    -7.6422965682977e-06
 143    3.2875856044933e-06
 144    6.0522657795016e-06
 145    0.00023096817353838
 146    -6.2826079564029e-05
 147    -5.7876220836649e-05
 148    2.6050532291638e-06
 149    -3.5460293356677e-06
 150    5.1250200424669e-06
 151    -1.3008541980227e-05
 152     4.61608346549e-06
 153    9.9231532155809e-05
 154    9.4143635283188e-05
 155    2.6696280346324e-05
 156    -2.7581136116856e-05
 157    -1.9636455534392e-05
 158    2.6624219482871e-05
 159    8.6722378457824e-05
 160    5.9438111477745e-05
 161    7.9330606571553e-06
 162    -7.2366793278684e-06
 163    -2.47679821518e-07
 164    1.4188162852255e-06
 165    0.0002752505039234
 166    1.8701130493566e-05
 167    -1.4551496882258e-05
 168    -7.3422402340952e-06
 169    -0.00023045527820167
 170    0.00020916243534232
 171    0.00014449291999197
 172    2.2129730485765e-06
 173    -1.0029933111255e-05
 174    1.3599196305044e-05
 175    -2.9554815862825e-06
 176    1.7823222268969e-05
 177    1.6921795774488e-05
 178    -8.7404665475472e-05
 179    1.4398581585178e-06
 180    -1.4338210690451e-06
 181    4.5022761456885e-06
 182    -1.6670881558647e-05
 183    -2.9513075480042e-05
 184    8.3954807404998e-05
 185    4.4622148245345e-06
 186    -4.0073612632413e-06
 187    -5.3405948331792e-06
 188    -0.00013309017779664
 189    0.00010243433848497
 190    9.4646963270816e-05
 191    -1.142654449771e-06
 192    -2.4619956639113e-06
 193    7.5562169881197e-06
 194    2.9935157083181e-06
 195    5.8620958381057e-06
 196    1.2659828014477e-05
 197    1.9607996227657e-05
 198    -5.6372745684634e-06
 199    -1.9369253392861e-06
 200    3.0828047906712e-06
 201    1.2569268435056e-05
 202    -6.2560324428655e-07
 203    1.3519490497104e-05
 204    -9.7824980431077e-06
 205    -1.1834865537625e-05
 206    -9.5975288398631e-06
 207    -6.9616962205706e-05
 208    1.6017157506308e-05
 209    -3.8336866416942e-06
 210    -1.6181868935988e-05
 211    1.8875990975809e-05
 212    3.2638101151187e-05
 213    -0.0002727301885575
 214    -5.972964722315e-06
 215    2.4384040394893e-06
 216    6.2356243137271e-06
 217    -0.00019524220010922
 218    5.1501760226589e-05
 219    8.1305413274954e-05
 220    2.4248980893394e-06
 221    1.6735369929552e-05
 222    -5.5756498712041e-06
 223    -9.6171712383216e-06
 224    2.1731704563608e-06
 225    -2.7265107517646e-05
 226    -5.8150387794413e-05
 227    1.2762198765658e-05
 228    2.2860673559806e-06
 229    9.5626377255905e-07
 230    -1.0374664848417e-05
 231    -5.4403446970258e-05
 232    4.1772300228744e-06
 233    -6.6008064424798e-06
 234    -1.2336813947116e-05
 235    -6.2191441477045e-07
 236    -1.0875349788069e-06
 237    8.0495972661421e-05
 238    -2.1856716954607e-06
 239    -2.0947996945895e-06
 240    3.7628207142624e-06
 241    -3.7573358993351e-05
 242    6.4265745499146e-05
 243    -1.8374271577097e-05
 244    -2.0395428647651e-06
 245    -1.9738996350234e-06
 246    1.8496405865393e-06
 247    -9.069306826917e-08
 248    -9.5437685381527e-07
 249    1.8349174770403e-05
 250    -8.9462317675677e-06
 251    4.3385156127239e-06
 252    9.1095884284359e-07
 253    -1.8617738655246e-07
 254    1.6795690973484e-05
 255    -5.6611805507188e-05
 256    -4.0308434395478e-07
 257    -4.2578068206418e-06
 258    7.753194792593e-07
 259    9.3873996695946e-06
 260    1.7720256018635e-05
 261    -7.0867297939372e-05
 262    7.2549423103915e-06
 263    -4.9284047454866e-06