[Molden Format]
made by pyscf v[2.0.1]
[Atoms] (AU)
O   1   8     0.00000000000000     0.00000000000000     8.67407923598948
H   2   1     0.00000000000000     0.00000000000000     6.85067741408852
H   3   1    -0.05031916615174     1.78353065140343     9.04995093245615
O   4   8     0.00000000000000     0.00000000000000     2.31533471513237
C   5   6     0.00000000000000     0.00000000000000     0.00000000000000
C   6   6     2.01118073026938    -1.40227222164369    -1.50774939176400
C   7   6    -2.01249334291722     1.41331050329955    -1.50315905028694
H   8   1     3.32037363730244    -2.26721897153159    -0.13599698591495
C   9   6     3.45899267434009     0.28739631745591    -3.37437943254505
H   10   1     1.07662969841332    -2.94725144642667    -2.56541439481080
H   11   1    -2.67503415753480     0.18421555839588    -3.06194479365997
H   12   1    -1.07974048864772     3.03851734677796    -2.43674295017013
C   13   6    -4.21607110578555     2.32938802552922     0.11994162256091
H   14   1     4.24440173074564     1.93368664142019    -2.34976285512790
H   15   1     2.15020713235517     1.04714335134846    -4.81494497423699
C   16   6     5.60746363007797    -1.12419643481196    -4.70268606082550
H   17   1    -3.46838323670267     3.50951302338067     1.66946842715333
H   18   1    -5.11873485366228     0.68575958301209     1.04047743976495
C   19   6    -6.18314754751344     3.80909592987882    -1.39656589068747
H   20   1     6.93011263717176    -1.87550812453645    -3.26656317360070
C   21   6     7.06356622236532     0.52877932406334    -6.57829775293605
H   22   1     4.82318879258361    -2.78573437948532    -5.70504560381835
H   23   1    -6.91582688743803     2.61304780074712    -2.95074552451969
H   24   1    -5.26532430573853     5.45420349051338    -2.31005832200284
C   25   6    -8.39941882261433     4.73263980500213     0.21800571437956
H   26   1     7.83338371486801     2.19084139882824    -5.57093109900697
H   27   1     5.73544244039420     1.27376866537418    -8.01071492370229
C   28   6     9.21124858443101    -0.89699110072176    -7.88926949186242
H   29   1    -7.66272760055236     5.92277078003992     1.77035591474408
H   30   1    -9.31497248082589     3.08753015622020     1.12614408368786
C   31   6   -10.35481709231879     6.21833079391143    -1.30905206253246
H   32   1    10.58815905329501    -1.61074586756696    -6.49512691622620
H   33   1    10.23506248045667     0.32468009384095    -9.23072870921204
H   34   1     8.47665842847139    -2.53598436989925    -8.94921964622535
H   35   1    -9.48948872868064     7.90013588951020    -2.18823918416067
H   36   1   -11.93332513000955     6.86460487874102    -0.11255798845995
H   37   1   -11.15126291841033     5.04495968327630    -2.83849898862534
[GTO]
1 0
 s    8 1.00
                 11720  0.00070964594651845
                  1759  0.0054672722921914
                 400.8   0.027823118610189
                 113.7    0.10474773971146
                 37.03    0.28292084635691
                 13.27    0.44849523869833
                 5.025    0.27081688521277
                 1.013    0.01545029160744
 s    8 1.00
                 11720  -0.00031444341168873
                  1759  -0.0024821376810179
                 400.8  -0.012316355381583
                 113.7  -0.050538917343672
                 37.03   -0.13938490331632
                 13.27   -0.32507749481778
                 5.025   -0.22984830758785
                 1.013     1.0953793467883
 s    1 1.00
                0.3023                   1
 p    3 1.00
                  17.7   0.062679166281506
                 3.854    0.33353656587936
                 1.046    0.74123964163973
 p    1 1.00
                0.2753                   1
 d    1 1.00
                 1.185                   1

2 0
 s    3 1.00
                 13.01   0.033498726389998
                 1.962    0.23480080117413
                0.4446     0.8136829578829
 s    1 1.00
                 0.122                   1
 p    1 1.00
                 0.727                   1

3 0
 s    3 1.00
                 13.01   0.033498726389998
                 1.962    0.23480080117413
                0.4446     0.8136829578829
 s    1 1.00
                 0.122                   1
 p    1 1.00
                 0.727                   1

4 0
 s    8 1.00
                 11720  0.00070964594651845
                  1759  0.0054672722921914
                 400.8   0.027823118610189
                 113.7    0.10474773971146
                 37.03    0.28292084635691
                 13.27    0.44849523869833
                 5.025    0.27081688521277
                 1.013    0.01545029160744
 s    8 1.00
                 11720  -0.00031444341168873
                  1759  -0.0024821376810179
                 400.8  -0.012316355381583
                 113.7  -0.050538917343672
                 37.03   -0.13938490331632
                 13.27   -0.32507749481778
                 5.025   -0.22984830758785
                 1.013     1.0953793467883
 s    1 1.00
                0.3023                   1
 p    3 1.00
                  17.7   0.062679166281506
                 3.854    0.33353656587936
                 1.046    0.74123964163973
 p    1 1.00
                0.2753                   1
 d    1 1.00
                 1.185                   1

5 0
 s    8 1.00
                  6665  0.00069158396281299
                  1000  0.0053257961529341
                   228   0.027060721042034
                 64.71    0.10165684614077
                 21.06     0.2745748236174
                 7.495    0.44829431892377
                 2.797    0.28490261071525
                0.5215   0.015194859206082
 s    8 1.00
                  6665  -0.00029326965268655
                  1000  -0.0023180354739745
                   228  -0.011499786038565
                 64.71  -0.046826727009787
                 21.06   -0.12846616875047
                 7.495   -0.30126627246289
                 2.797   -0.25563070233011
                0.5215      1.093793361012
 s    1 1.00
                0.1596                   1
 p    3 1.00
                 9.439   0.056979251590039
                 2.002    0.31320721150073
                0.5456    0.76037674173753
 p    1 1.00
                0.1517                   1
 d    1 1.00
                  0.55                   1

6 0
 s    8 1.00
                  6665  0.00069158396281299
                  1000  0.0053257961529341
                   228   0.027060721042034
                 64.71    0.10165684614077
                 21.06     0.2745748236174
                 7.495    0.44829431892377
                 2.797    0.28490261071525
                0.5215   0.015194859206082
 s    8 1.00
                  6665  -0.00029326965268655
                  1000  -0.0023180354739745
                   228  -0.011499786038565
                 64.71  -0.046826727009787
                 21.06   -0.12846616875047
                 7.495   -0.30126627246289
                 2.797   -0.25563070233011
                0.5215      1.093793361012
 s    1 1.00
                0.1596                   1
 p    3 1.00
                 9.439   0.056979251590039
                 2.002    0.31320721150073
                0.5456    0.76037674173753
 p    1 1.00
                0.1517                   1
 d    1 1.00
                  0.55                   1

7 0
 s    8 1.00
                  6665  0.00069158396281299
                  1000  0.0053257961529341
                   228   0.027060721042034
                 64.71    0.10165684614077
                 21.06     0.2745748236174
                 7.495    0.44829431892377
                 2.797    0.28490261071525
                0.5215   0.015194859206082
 s    8 1.00
                  6665  -0.00029326965268655
                  1000  -0.0023180354739745
                   228  -0.011499786038565
                 64.71  -0.046826727009787
                 21.06   -0.12846616875047
                 7.495   -0.30126627246289
                 2.797   -0.25563070233011
                0.5215      1.093793361012
 s    1 1.00
                0.1596                   1
 p    3 1.00
                 9.439   0.056979251590039
                 2.002    0.31320721150073
                0.5456    0.76037674173753
 p    1 1.00
                0.1517                   1
 d    1 1.00
                  0.55                   1

8 0
 s    3 1.00
                 13.01   0.033498726389998
                 1.962    0.23480080117413
                0.4446     0.8136829578829
 s    1 1.00
                 0.122                   1
 p    1 1.00
                 0.727                   1

9 0
 s    8 1.00
                  6665  0.00069158396281299
                  1000  0.0053257961529341
                   228   0.027060721042034
                 64.71    0.10165684614077
                 21.06     0.2745748236174
                 7.495    0.44829431892377
                 2.797    0.28490261071525
                0.5215   0.015194859206082
 s    8 1.00
                  6665  -0.00029326965268655
                  1000  -0.0023180354739745
                   228  -0.011499786038565
                 64.71  -0.046826727009787
                 21.06   -0.12846616875047
                 7.495   -0.30126627246289
                 2.797   -0.25563070233011
                0.5215      1.093793361012
 s    1 1.00
                0.1596                   1
 p    3 1.00
                 9.439   0.056979251590039
                 2.002    0.31320721150073
                0.5456    0.76037674173753
 p    1 1.00
                0.1517                   1
 d    1 1.00
                  0.55                   1

10 0
 s    3 1.00
                 13.01   0.033498726389998
                 1.962    0.23480080117413
                0.4446     0.8136829578829
 s    1 1.00
                 0.122                   1
 p    1 1.00
                 0.727                   1

11 0
 s    3 1.00
                 13.01   0.033498726389998
                 1.962    0.23480080117413
                0.4446     0.8136829578829
 s    1 1.00
                 0.122                   1
 p    1 1.00
                 0.727                   1

12 0
 s    3 1.00
                 13.01   0.033498726389998
                 1.962    0.23480080117413
                0.4446     0.8136829578829
 s    1 1.00
                 0.122                   1
 p    1 1.00
                 0.727                   1

13 0
 s    8 1.00
                  6665  0.00069158396281299
                  1000  0.0053257961529341
                   228   0.027060721042034
                 64.71    0.10165684614077
                 21.06     0.2745748236174
                 7.495    0.44829431892377
                 2.797    0.28490261071525
                0.5215   0.015194859206082
 s    8 1.00
                  6665  -0.00029326965268655
                  1000  -0.0023180354739745
                   228  -0.011499786038565
                 64.71  -0.046826727009787
                 21.06   -0.12846616875047
                 7.495   -0.30126627246289
                 2.797   -0.25563070233011
                0.5215      1.093793361012
 s    1 1.00
                0.1596                   1
 p    3 1.00
                 9.439   0.056979251590039
                 2.002    0.31320721150073
                0.5456    0.76037674173753
 p    1 1.00
                0.1517                   1
 d    1 1.00
                  0.55                   1

14 0
 s    3 1.00
                 13.01   0.033498726389998
                 1.962    0.23480080117413
                0.4446     0.8136829578829
 s    1 1.00
                 0.122                   1
 p    1 1.00
                 0.727                   1

15 0
 s    3 1.00
                 13.01   0.033498726389998
                 1.962    0.23480080117413
                0.4446     0.8136829578829
 s    1 1.00
                 0.122                   1
 p    1 1.00
                 0.727                   1

16 0
 s    8 1.00
                  6665  0.00069158396281299
                  1000  0.0053257961529341
                   228   0.027060721042034
                 64.71    0.10165684614077
                 21.06     0.2745748236174
                 7.495    0.44829431892377
                 2.797    0.28490261071525
                0.5215   0.015194859206082
 s    8 1.00
                  6665  -0.00029326965268655
                  1000  -0.0023180354739745
                   228  -0.011499786038565
                 64.71  -0.046826727009787
                 21.06   -0.12846616875047
                 7.495   -0.30126627246289
                 2.797   -0.25563070233011
                0.5215      1.093793361012
 s    1 1.00
                0.1596                   1
 p    3 1.00
                 9.439   0.056979251590039
                 2.002    0.31320721150073
                0.5456    0.76037674173753
 p    1 1.00
                0.1517                   1
 d    1 1.00
                  0.55                   1

17 0
 s    3 1.00
                 13.01   0.033498726389998
                 1.962    0.23480080117413
                0.4446     0.8136829578829
 s    1 1.00
                 0.122                   1
 p    1 1.00
                 0.727                   1

18 0
 s    3 1.00
                 13.01   0.033498726389998
                 1.962    0.23480080117413
                0.4446     0.8136829578829
 s    1 1.00
                 0.122                   1
 p    1 1.00
                 0.727                   1

19 0
 s    8 1.00
                  6665  0.00069158396281299
                  1000  0.0053257961529341
                   228   0.027060721042034
                 64.71    0.10165684614077
                 21.06     0.2745748236174
                 7.495    0.44829431892377
                 2.797    0.28490261071525
                0.5215   0.015194859206082
 s    8 1.00
                  6665  -0.00029326965268655
                  1000  -0.0023180354739745
                   228  -0.011499786038565
                 64.71  -0.046826727009787
                 21.06   -0.12846616875047
                 7.495   -0.30126627246289
                 2.797   -0.25563070233011
                0.5215      1.093793361012
 s    1 1.00
                0.1596                   1
 p    3 1.00
                 9.439   0.056979251590039
                 2.002    0.31320721150073
                0.5456    0.76037674173753
 p    1 1.00
                0.1517                   1
 d    1 1.00
                  0.55                   1

20 0
 s    3 1.00
                 13.01   0.033498726389998
                 1.962    0.23480080117413
                0.4446     0.8136829578829
 s    1 1.00
                 0.122                   1
 p    1 1.00
                 0.727                   1

21 0
 s    8 1.00
                  6665  0.00069158396281299
                  1000  0.0053257961529341
                   228   0.027060721042034
                 64.71    0.10165684614077
                 21.06     0.2745748236174
                 7.495    0.44829431892377
                 2.797    0.28490261071525
                0.5215   0.015194859206082
 s    8 1.00
                  6665  -0.00029326965268655
                  1000  -0.0023180354739745
                   228  -0.011499786038565
                 64.71  -0.046826727009787
                 21.06   -0.12846616875047
                 7.495   -0.30126627246289
                 2.797   -0.25563070233011
                0.5215      1.093793361012
 s    1 1.00
                0.1596                   1
 p    3 1.00
                 9.439   0.056979251590039
                 2.002    0.31320721150073
                0.5456    0.76037674173753
 p    1 1.00
                0.1517                   1
 d    1 1.00
                  0.55                   1

22 0
 s    3 1.00
                 13.01   0.033498726389998
                 1.962    0.23480080117413
                0.4446     0.8136829578829
 s    1 1.00
                 0.122                   1
 p    1 1.00
                 0.727                   1

23 0
 s    3 1.00
                 13.01   0.033498726389998
                 1.962    0.23480080117413
                0.4446     0.8136829578829
 s    1 1.00
                 0.122                   1
 p    1 1.00
                 0.727                   1

24 0
 s    3 1.00
                 13.01   0.033498726389998
                 1.962    0.23480080117413
                0.4446     0.8136829578829
 s    1 1.00
                 0.122                   1
 p    1 1.00
                 0.727                   1

25 0
 s    8 1.00
                  6665  0.00069158396281299
                  1000  0.0053257961529341
                   228   0.027060721042034
                 64.71    0.10165684614077
                 21.06     0.2745748236174
                 7.495    0.44829431892377
                 2.797    0.28490261071525
                0.5215   0.015194859206082
 s    8 1.00
                  6665  -0.00029326965268655
                  1000  -0.0023180354739745
                   228  -0.011499786038565
                 64.71  -0.046826727009787
                 21.06   -0.12846616875047
                 7.495   -0.30126627246289
                 2.797   -0.25563070233011
                0.5215      1.093793361012
 s    1 1.00
                0.1596                   1
 p    3 1.00
                 9.439   0.056979251590039
                 2.002    0.31320721150073
                0.5456    0.76037674173753
 p    1 1.00
                0.1517                   1
 d    1 1.00
                  0.55                   1

26 0
 s    3 1.00
                 13.01   0.033498726389998
                 1.962    0.23480080117413
                0.4446     0.8136829578829
 s    1 1.00
                 0.122                   1
 p    1 1.00
                 0.727                   1

27 0
 s    3 1.00
                 13.01   0.033498726389998
                 1.962    0.23480080117413
                0.4446     0.8136829578829
 s    1 1.00
                 0.122                   1
 p    1 1.00
                 0.727                   1

28 0
 s    8 1.00
                  6665  0.00069158396281299
                  1000  0.0053257961529341
                   228   0.027060721042034
                 64.71    0.10165684614077
                 21.06     0.2745748236174
                 7.495    0.44829431892377
                 2.797    0.28490261071525
                0.5215   0.015194859206082
 s    8 1.00
                  6665  -0.00029326965268655
                  1000  -0.0023180354739745
                   228  -0.011499786038565
                 64.71  -0.046826727009787
                 21.06   -0.12846616875047
                 7.495   -0.30126627246289
                 2.797   -0.25563070233011
                0.5215      1.093793361012
 s    1 1.00
                0.1596                   1
 p    3 1.00
                 9.439   0.056979251590039
                 2.002    0.31320721150073
                0.5456    0.76037674173753
 p    1 1.00
                0.1517                   1
 d    1 1.00
                  0.55                   1

29 0
 s    3 1.00
                 13.01   0.033498726389998
                 1.962    0.23480080117413
                0.4446     0.8136829578829
 s    1 1.00
                 0.122                   1
 p    1 1.00
                 0.727                   1

30 0
 s    3 1.00
                 13.01   0.033498726389998
                 1.962    0.23480080117413
                0.4446     0.8136829578829
 s    1 1.00
                 0.122                   1
 p    1 1.00
                 0.727                   1

31 0
 s    8 1.00
                  6665  0.00069158396281299
                  1000  0.0053257961529341
                   228   0.027060721042034
                 64.71    0.10165684614077
                 21.06     0.2745748236174
                 7.495    0.44829431892377
                 2.797    0.28490261071525
                0.5215   0.015194859206082
 s    8 1.00
                  6665  -0.00029326965268655
                  1000  -0.0023180354739745
                   228  -0.011499786038565
                 64.71  -0.046826727009787
                 21.06   -0.12846616875047
                 7.495   -0.30126627246289
                 2.797   -0.25563070233011
                0.5215      1.093793361012
 s    1 1.00
                0.1596                   1
 p    3 1.00
                 9.439   0.056979251590039
                 2.002    0.31320721150073
                0.5456    0.76037674173753
 p    1 1.00
                0.1517                   1
 d    1 1.00
                  0.55                   1

32 0
 s    3 1.00
                 13.01   0.033498726389998
                 1.962    0.23480080117413
                0.4446     0.8136829578829
 s    1 1.00
                 0.122                   1
 p    1 1.00
                 0.727                   1

33 0
 s    3 1.00
                 13.01   0.033498726389998
                 1.962    0.23480080117413
                0.4446     0.8136829578829
 s    1 1.00
                 0.122                   1
 p    1 1.00
                 0.727                   1

34 0
 s    3 1.00
                 13.01   0.033498726389998
                 1.962    0.23480080117413
                0.4446     0.8136829578829
 s    1 1.00
                 0.122                   1
 p    1 1.00
                 0.727                   1

35 0
 s    3 1.00
                 13.01   0.033498726389998
                 1.962    0.23480080117413
                0.4446     0.8136829578829
 s    1 1.00
                 0.122                   1
 p    1 1.00
                 0.727                   1

36 0
 s    3 1.00
                 13.01   0.033498726389998
                 1.962    0.23480080117413
                0.4446     0.8136829578829
 s    1 1.00
                 0.122                   1
 p    1 1.00
                 0.727                   1

37 0
 s    3 1.00
                 13.01   0.033498726389998
                 1.962    0.23480080117413
                0.4446     0.8136829578829
 s    1 1.00
                 0.122                   1
 p    1 1.00
                 0.727                   1

[5d]
[7f]
[9g]

[MO]
 Sym= A
 Ene=               0
 Spin= Alpha
 Occup=    1.00000
   1    -7.0509774863226e-05
   2    -5.2570839654724e-05
   3    0.00013266018521661
   4    2.061077696117e-08
   5    5.9470121779912e-06
   6    1.576466298243e-05
   7    4.1721685216522e-07
   8    -2.5936888560006e-05
   9    -7.3495231212766e-05
  10    4.2417254032884e-06
  11    -9.8404425313133e-08
  12    3.6594333968602e-07
  13    5.7599573216784e-07
  14    9.9984753613161e-09
  15    -2.171734994318e-05
  16    -0.00021615345787825
  17    -4.151058285504e-07
  18    2.2447586271667e-06
  19    1.4900300951085e-05
  20    -5.637899939259e-06
  21    6.6862006357358e-05
  22    1.5091320931175e-07
  23    -2.5635105032984e-06
  24    -2.9774617211335e-07
  25       1.0013774612029
  26    0.0019865745256096
  27    -0.0069251555030283
  28    -5.1027016406291e-06
  29    1.048569929666e-05
  30    -0.0016411526971687
  31    -3.2738267590952e-07
  32    -2.6699045373152e-06
  33    0.0019358140302632
  34    0.00011218416411914
  35    -2.8361204686541e-06
  36    1.4858104952243e-06
  37    6.6643513752162e-05
  38    -0.00017346158344292
  39    0.00028721021009463
  40    0.00040123714642193
  41    0.0015184930965266
  42    1.5921589631367e-05
  43    -1.0022367734456e-05
  44    1.9416618022016e-05
  45    8.2802161301822e-05
  46    -6.5694905855683e-05
  47    0.0036581819485581
  48    -0.00050945907032985
  49    -8.2359187351764e-06
  50    2.609913782106e-06
  51    2.9878928562473e-05
  52    -0.00011029164011201
  53    -8.4481009407281e-05
  54    -0.00016530289744196
  55    0.0013854017054171
  56    7.8538153336153e-05
  57    -7.2551687824598e-06
  58    -3.4512957046193e-05
  59    -0.00042729148081322
  60    0.00048174929611589
  61    -0.00096746446943833
  62    -0.00011622828878537
  63    0.00014978823049051
  64    -0.00014324559235753
  65    5.4331058072521e-05
  66    -0.00012740961482513
  67    -3.8782705332067e-05
  68    -9.5724051509265e-05
  69    0.00051934064640097
  70    -6.1902936401494e-05
  71    4.1007020299169e-05
  72    -6.1890212612093e-05
  73    0.0010149053982232
  74    -0.00078018189291599
  75    -0.00065828522649994
  76    -0.00013960185455084
  77    -0.00012127539093053
  78    8.9779604948985e-05
  79    5.8393796063814e-05
  80    -0.00015004082448852
  81    -6.0037522227777e-05
  82    0.00021541878580183
  83    6.6847998354226e-05
  84    -4.9107404482003e-05
  85    4.7485404099111e-05
  86    2.5067762603752e-05
  87    4.9043626738743e-05
  88    -0.00062054665796567
  89    -1.5654382924789e-05
  90    -1.7240352438095e-05
  91    1.134739945745e-05
  92    0.00026136376126778
  93    0.00064568747114474
  94    -1.2617486904899e-05
  95    1.8835409727006e-05
  96    1.1499289392776e-05
  97    7.9337942153782e-06
  98    -1.9640334236597e-05
  99    -4.7963334922689e-05
 100    -4.0392638145302e-05
 101    -0.00016414519446202
 102    6.9848226585847e-06
 103    -1.0567016312541e-05
 104    7.6770951134896e-05
 105    -1.9340988930946e-05
 106    -0.00020589565710018
 107    -6.3964735316953e-05
 108    8.6933295107586e-06
 109    7.6053369037179e-05
 110    7.7957644463813e-05
 111    -6.4956904879084e-05
 112    -4.437669273545e-05
 113    1.982646885458e-05
 114    7.1106669466275e-05
 115    -4.8439405090476e-05
 116    -9.87701311688e-05
 117    0.00085058921097664
 118    -2.451952647745e-05
 119    -1.1168228941712e-05
 120    3.2314350725281e-05
 121    0.00028533676008053
 122    3.6367255507364e-05
 123    -0.00015261599642752
 124    -6.1759427061152e-06
 125    1.1183282801664e-05
 126    1.4954381631828e-05
 127    -3.2196922876773e-05
 128    5.0711174047176e-05
 129    -1.9862176706962e-05
 130    -0.00033424149275864
 131    7.9928319241071e-06
 132    5.983339960865e-06
 133    2.9566932163542e-05
 134    2.5785229586434e-05
 135    -0.00011727661204607
 136    -1.3728780790651e-05
 137    -2.5059455590529e-05
 138    -2.7313280121156e-05
 139    -2.1852564949926e-05
 140    -3.9799597766229e-05
 141    0.00030170536166103
 142    7.7776030676841e-06
 143    -2.8531453270549e-06
 144    -6.0529347999244e-06
 145    -0.0002316836827808
 146    5.7870231497856e-05
 147    6.0620594618691e-05
 148    -2.5519878259489e-06
 149    3.2305124375543e-06
 150    -4.311548554387e-06
 151    1.2548181291923e-05
 152    -4.8438732299726e-06
 153    -9.7354181912507e-05
 154    -9.8934181837269e-05
 155    -2.6594322354477e-05
 156    2.8230570980552e-05
 157    1.927157928337e-05
 158    -2.594290048864e-05
 159    -8.6905016977165e-05
 160    -5.910230546795e-05
 161    -7.307325715209e-06
 162    6.6789729801222e-06
 163    -9.2012488616816e-07
 164    -3.4888107733357e-06
 165    -0.0002575654574932
 166    -1.8453942646889e-05
 167    1.4404121843926e-05
 168    7.1225032388953e-06
 169    0.00023387215764397
 170    -0.00021002615566202
 171    -0.00013859357298763
 172    -2.5427526332241e-06
 173    9.9949136055841e-06
 174    -1.3501886108737e-05
 175    3.142394193757e-06
 176    -1.7940602199244e-05
 177    -1.6383713567038e-05
 178    8.595519643779e-05
 179    -1.1008772645822e-06
 180    1.7154841908127e-06
 181    -4.7582666955248e-06
 182    1.5958183405661e-05
 183    2.8293730666114e-05
 184    -7.5546142225859e-05
 185    -4.6491439378393e-06
 186    3.7648745694726e-06
 187    5.4338825188389e-06
 188    0.00013020418690686
 189    -0.00010203804949811
 190    -8.9592567363571e-05
 191    1.2390038970578e-06
 192    2.2661730457734e-06
 193    -7.6287755333437e-06
 194    -3.0477002424059e-06
 195    -5.5093755781444e-06
 196    -1.3388073525134e-05
 197    -1.9298772257872e-05
 198    5.6678579351797e-06
 199    1.9320854995028e-06
 200    -3.2877733382158e-06
 201    -1.2862971473262e-05
 202    2.116737535767e-06
 203    -1.3319968948923e-05
 204    9.8732653609061e-06
 205    1.1791849526148e-05
 206    8.8755207374447e-06
 207    6.8362486208647e-05
 208    -1.6080276428155e-05
 209    3.8881202982029e-06
 210    1.5854285967248e-05
 211    -1.8437117134074e-05
 212    -3.192579614514e-05
 213    0.00026505499596901
 214    5.5532178952357e-06
 215    -2.2695454847883e-06
 216    -6.1483769808978e-06
 217    0.00019439395079544
 218    -5.2302933611096e-05
 219    -7.9074650003538e-05
 220    -2.34005592321e-06
 221    -1.6636701585863e-05
 222    5.5577101234291e-06
 223    9.4221392018171e-06
 224    -2.0863866981211e-06
 225    2.6275532482485e-05
 226    5.6031036786081e-05
 227    -1.2512203738335e-05
 228    -2.0861564569949e-06
 229    -9.7325655032059e-07
 230    1.0094838962264e-05
 231    5.4410939846844e-05
 232    -4.0701042806096e-06
 233    6.4476450313465e-06
 234    1.2125331274338e-05
 235    4.7470034841953e-07
 236    8.0851641478065e-07
 237    -7.9147179535884e-05
 238    2.2624095170138e-06
 239    2.0651167647046e-06
 240    -3.7841966579265e-06
 241    3.6184491095736e-05
 242    -6.3547612012195e-05
 243    1.8180254793615e-05
 244    1.9647496540338e-06
 245    1.8827226012027e-06
 246    -1.8961633004675e-06
 247    1.5607326927503e-07
 248    9.3301455106888e-07
 249    -1.8282517518971e-05
 250    9.9701468174241e-06
 251    -4.4165151062501e-06
 252    -8.7492936554831e-07
 253    6.1118715097878e-08
 254    -1.6473550025697e-05
 255    5.5715862005993e-05
 256    1.8246808372183e-07
 257    4.2774264485616e-06
 258    -8.2222643824701e-07
 259    -9.9594706463086e-06
 260    -1.8333765396533e-05
 261    7.4385112569508e-05
 262    -7.0173096059054e-06