[Molden Format]
made by pyscf v[2.0.1]
[Atoms] (AU)
O   1   8     0.00000000000000     0.00000000000000    11.69764103529358
H   2   1     0.00000000000000     0.00000000000000     9.87423921339262
H   3   1    -0.05031916615174     1.78353065140343    12.07351273176025
O   4   8     0.00000000000000     0.00000000000000     2.31533471513237
C   5   6     0.00000000000000     0.00000000000000     0.00000000000000
C   6   6     2.01118073026938    -1.40227222164369    -1.50774939176400
C   7   6    -2.01249334291722     1.41331050329955    -1.50315905028694
H   8   1     3.32037363730244    -2.26721897153159    -0.13599698591495
C   9   6     3.45899267434009     0.28739631745591    -3.37437943254505
H   10   1     1.07662969841332    -2.94725144642667    -2.56541439481080
H   11   1    -2.67503415753480     0.18421555839588    -3.06194479365997
H   12   1    -1.07974048864772     3.03851734677796    -2.43674295017013
C   13   6    -4.21607110578555     2.32938802552922     0.11994162256091
H   14   1     4.24440173074564     1.93368664142019    -2.34976285512790
H   15   1     2.15020713235517     1.04714335134846    -4.81494497423699
C   16   6     5.60746363007797    -1.12419643481196    -4.70268606082550
H   17   1    -3.46838323670267     3.50951302338067     1.66946842715333
H   18   1    -5.11873485366228     0.68575958301209     1.04047743976495
C   19   6    -6.18314754751344     3.80909592987882    -1.39656589068747
H   20   1     6.93011263717176    -1.87550812453645    -3.26656317360070
C   21   6     7.06356622236532     0.52877932406334    -6.57829775293605
H   22   1     4.82318879258361    -2.78573437948532    -5.70504560381835
H   23   1    -6.91582688743803     2.61304780074712    -2.95074552451969
H   24   1    -5.26532430573853     5.45420349051338    -2.31005832200284
C   25   6    -8.39941882261433     4.73263980500213     0.21800571437956
H   26   1     7.83338371486801     2.19084139882824    -5.57093109900697
H   27   1     5.73544244039420     1.27376866537418    -8.01071492370229
C   28   6     9.21124858443101    -0.89699110072176    -7.88926949186242
H   29   1    -7.66272760055236     5.92277078003992     1.77035591474408
H   30   1    -9.31497248082589     3.08753015622020     1.12614408368786
C   31   6   -10.35481709231879     6.21833079391143    -1.30905206253246
H   32   1    10.58815905329501    -1.61074586756696    -6.49512691622620
H   33   1    10.23506248045667     0.32468009384095    -9.23072870921204
H   34   1     8.47665842847139    -2.53598436989925    -8.94921964622535
H   35   1    -9.48948872868064     7.90013588951020    -2.18823918416067
H   36   1   -11.93332513000955     6.86460487874102    -0.11255798845995
H   37   1   -11.15126291841033     5.04495968327630    -2.83849898862534
[GTO]
1 0
 s    8 1.00
                 11720  0.00070964594651845
                  1759  0.0054672722921914
                 400.8   0.027823118610189
                 113.7    0.10474773971146
                 37.03    0.28292084635691
                 13.27    0.44849523869833
                 5.025    0.27081688521277
                 1.013    0.01545029160744
 s    8 1.00
                 11720  -0.00031444341168873
                  1759  -0.0024821376810179
                 400.8  -0.012316355381583
                 113.7  -0.050538917343672
                 37.03   -0.13938490331632
                 13.27   -0.32507749481778
                 5.025   -0.22984830758785
                 1.013     1.0953793467883
 s    1 1.00
                0.3023                   1
 p    3 1.00
                  17.7   0.062679166281506
                 3.854    0.33353656587936
                 1.046    0.74123964163973
 p    1 1.00
                0.2753                   1
 d    1 1.00
                 1.185                   1

2 0
 s    3 1.00
                 13.01   0.033498726389998
                 1.962    0.23480080117413
                0.4446     0.8136829578829
 s    1 1.00
                 0.122                   1
 p    1 1.00
                 0.727                   1

3 0
 s    3 1.00
                 13.01   0.033498726389998
                 1.962    0.23480080117413
                0.4446     0.8136829578829
 s    1 1.00
                 0.122                   1
 p    1 1.00
                 0.727                   1

4 0
 s    8 1.00
                 11720  0.00070964594651845
                  1759  0.0054672722921914
                 400.8   0.027823118610189
                 113.7    0.10474773971146
                 37.03    0.28292084635691
                 13.27    0.44849523869833
                 5.025    0.27081688521277
                 1.013    0.01545029160744
 s    8 1.00
                 11720  -0.00031444341168873
                  1759  -0.0024821376810179
                 400.8  -0.012316355381583
                 113.7  -0.050538917343672
                 37.03   -0.13938490331632
                 13.27   -0.32507749481778
                 5.025   -0.22984830758785
                 1.013     1.0953793467883
 s    1 1.00
                0.3023                   1
 p    3 1.00
                  17.7   0.062679166281506
                 3.854    0.33353656587936
                 1.046    0.74123964163973
 p    1 1.00
                0.2753                   1
 d    1 1.00
                 1.185                   1

5 0
 s    8 1.00
                  6665  0.00069158396281299
                  1000  0.0053257961529341
                   228   0.027060721042034
                 64.71    0.10165684614077
                 21.06     0.2745748236174
                 7.495    0.44829431892377
                 2.797    0.28490261071525
                0.5215   0.015194859206082
 s    8 1.00
                  6665  -0.00029326965268655
                  1000  -0.0023180354739745
                   228  -0.011499786038565
                 64.71  -0.046826727009787
                 21.06   -0.12846616875047
                 7.495   -0.30126627246289
                 2.797   -0.25563070233011
                0.5215      1.093793361012
 s    1 1.00
                0.1596                   1
 p    3 1.00
                 9.439   0.056979251590039
                 2.002    0.31320721150073
                0.5456    0.76037674173753
 p    1 1.00
                0.1517                   1
 d    1 1.00
                  0.55                   1

6 0
 s    8 1.00
                  6665  0.00069158396281299
                  1000  0.0053257961529341
                   228   0.027060721042034
                 64.71    0.10165684614077
                 21.06     0.2745748236174
                 7.495    0.44829431892377
                 2.797    0.28490261071525
                0.5215   0.015194859206082
 s    8 1.00
                  6665  -0.00029326965268655
                  1000  -0.0023180354739745
                   228  -0.011499786038565
                 64.71  -0.046826727009787
                 21.06   -0.12846616875047
                 7.495   -0.30126627246289
                 2.797   -0.25563070233011
                0.5215      1.093793361012
 s    1 1.00
                0.1596                   1
 p    3 1.00
                 9.439   0.056979251590039
                 2.002    0.31320721150073
                0.5456    0.76037674173753
 p    1 1.00
                0.1517                   1
 d    1 1.00
                  0.55                   1

7 0
 s    8 1.00
                  6665  0.00069158396281299
                  1000  0.0053257961529341
                   228   0.027060721042034
                 64.71    0.10165684614077
                 21.06     0.2745748236174
                 7.495    0.44829431892377
                 2.797    0.28490261071525
                0.5215   0.015194859206082
 s    8 1.00
                  6665  -0.00029326965268655
                  1000  -0.0023180354739745
                   228  -0.011499786038565
                 64.71  -0.046826727009787
                 21.06   -0.12846616875047
                 7.495   -0.30126627246289
                 2.797   -0.25563070233011
                0.5215      1.093793361012
 s    1 1.00
                0.1596                   1
 p    3 1.00
                 9.439   0.056979251590039
                 2.002    0.31320721150073
                0.5456    0.76037674173753
 p    1 1.00
                0.1517                   1
 d    1 1.00
                  0.55                   1

8 0
 s    3 1.00
                 13.01   0.033498726389998
                 1.962    0.23480080117413
                0.4446     0.8136829578829
 s    1 1.00
                 0.122                   1
 p    1 1.00
                 0.727                   1

9 0
 s    8 1.00
                  6665  0.00069158396281299
                  1000  0.0053257961529341
                   228   0.027060721042034
                 64.71    0.10165684614077
                 21.06     0.2745748236174
                 7.495    0.44829431892377
                 2.797    0.28490261071525
                0.5215   0.015194859206082
 s    8 1.00
                  6665  -0.00029326965268655
                  1000  -0.0023180354739745
                   228  -0.011499786038565
                 64.71  -0.046826727009787
                 21.06   -0.12846616875047
                 7.495   -0.30126627246289
                 2.797   -0.25563070233011
                0.5215      1.093793361012
 s    1 1.00
                0.1596                   1
 p    3 1.00
                 9.439   0.056979251590039
                 2.002    0.31320721150073
                0.5456    0.76037674173753
 p    1 1.00
                0.1517                   1
 d    1 1.00
                  0.55                   1

10 0
 s    3 1.00
                 13.01   0.033498726389998
                 1.962    0.23480080117413
                0.4446     0.8136829578829
 s    1 1.00
                 0.122                   1
 p    1 1.00
                 0.727                   1

11 0
 s    3 1.00
                 13.01   0.033498726389998
                 1.962    0.23480080117413
                0.4446     0.8136829578829
 s    1 1.00
                 0.122                   1
 p    1 1.00
                 0.727                   1

12 0
 s    3 1.00
                 13.01   0.033498726389998
                 1.962    0.23480080117413
                0.4446     0.8136829578829
 s    1 1.00
                 0.122                   1
 p    1 1.00
                 0.727                   1

13 0
 s    8 1.00
                  6665  0.00069158396281299
                  1000  0.0053257961529341
                   228   0.027060721042034
                 64.71    0.10165684614077
                 21.06     0.2745748236174
                 7.495    0.44829431892377
                 2.797    0.28490261071525
                0.5215   0.015194859206082
 s    8 1.00
                  6665  -0.00029326965268655
                  1000  -0.0023180354739745
                   228  -0.011499786038565
                 64.71  -0.046826727009787
                 21.06   -0.12846616875047
                 7.495   -0.30126627246289
                 2.797   -0.25563070233011
                0.5215      1.093793361012
 s    1 1.00
                0.1596                   1
 p    3 1.00
                 9.439   0.056979251590039
                 2.002    0.31320721150073
                0.5456    0.76037674173753
 p    1 1.00
                0.1517                   1
 d    1 1.00
                  0.55                   1

14 0
 s    3 1.00
                 13.01   0.033498726389998
                 1.962    0.23480080117413
                0.4446     0.8136829578829
 s    1 1.00
                 0.122                   1
 p    1 1.00
                 0.727                   1

15 0
 s    3 1.00
                 13.01   0.033498726389998
                 1.962    0.23480080117413
                0.4446     0.8136829578829
 s    1 1.00
                 0.122                   1
 p    1 1.00
                 0.727                   1

16 0
 s    8 1.00
                  6665  0.00069158396281299
                  1000  0.0053257961529341
                   228   0.027060721042034
                 64.71    0.10165684614077
                 21.06     0.2745748236174
                 7.495    0.44829431892377
                 2.797    0.28490261071525
                0.5215   0.015194859206082
 s    8 1.00
                  6665  -0.00029326965268655
                  1000  -0.0023180354739745
                   228  -0.011499786038565
                 64.71  -0.046826727009787
                 21.06   -0.12846616875047
                 7.495   -0.30126627246289
                 2.797   -0.25563070233011
                0.5215      1.093793361012
 s    1 1.00
                0.1596                   1
 p    3 1.00
                 9.439   0.056979251590039
                 2.002    0.31320721150073
                0.5456    0.76037674173753
 p    1 1.00
                0.1517                   1
 d    1 1.00
                  0.55                   1

17 0
 s    3 1.00
                 13.01   0.033498726389998
                 1.962    0.23480080117413
                0.4446     0.8136829578829
 s    1 1.00
                 0.122                   1
 p    1 1.00
                 0.727                   1

18 0
 s    3 1.00
                 13.01   0.033498726389998
                 1.962    0.23480080117413
                0.4446     0.8136829578829
 s    1 1.00
                 0.122                   1
 p    1 1.00
                 0.727                   1

19 0
 s    8 1.00
                  6665  0.00069158396281299
                  1000  0.0053257961529341
                   228   0.027060721042034
                 64.71    0.10165684614077
                 21.06     0.2745748236174
                 7.495    0.44829431892377
                 2.797    0.28490261071525
                0.5215   0.015194859206082
 s    8 1.00
                  6665  -0.00029326965268655
                  1000  -0.0023180354739745
                   228  -0.011499786038565
                 64.71  -0.046826727009787
                 21.06   -0.12846616875047
                 7.495   -0.30126627246289
                 2.797   -0.25563070233011
                0.5215      1.093793361012
 s    1 1.00
                0.1596                   1
 p    3 1.00
                 9.439   0.056979251590039
                 2.002    0.31320721150073
                0.5456    0.76037674173753
 p    1 1.00
                0.1517                   1
 d    1 1.00
                  0.55                   1

20 0
 s    3 1.00
                 13.01   0.033498726389998
                 1.962    0.23480080117413
                0.4446     0.8136829578829
 s    1 1.00
                 0.122                   1
 p    1 1.00
                 0.727                   1

21 0
 s    8 1.00
                  6665  0.00069158396281299
                  1000  0.0053257961529341
                   228   0.027060721042034
                 64.71    0.10165684614077
                 21.06     0.2745748236174
                 7.495    0.44829431892377
                 2.797    0.28490261071525
                0.5215   0.015194859206082
 s    8 1.00
                  6665  -0.00029326965268655
                  1000  -0.0023180354739745
                   228  -0.011499786038565
                 64.71  -0.046826727009787
                 21.06   -0.12846616875047
                 7.495   -0.30126627246289
                 2.797   -0.25563070233011
                0.5215      1.093793361012
 s    1 1.00
                0.1596                   1
 p    3 1.00
                 9.439   0.056979251590039
                 2.002    0.31320721150073
                0.5456    0.76037674173753
 p    1 1.00
                0.1517                   1
 d    1 1.00
                  0.55                   1

22 0
 s    3 1.00
                 13.01   0.033498726389998
                 1.962    0.23480080117413
                0.4446     0.8136829578829
 s    1 1.00
                 0.122                   1
 p    1 1.00
                 0.727                   1

23 0
 s    3 1.00
                 13.01   0.033498726389998
                 1.962    0.23480080117413
                0.4446     0.8136829578829
 s    1 1.00
                 0.122                   1
 p    1 1.00
                 0.727                   1

24 0
 s    3 1.00
                 13.01   0.033498726389998
                 1.962    0.23480080117413
                0.4446     0.8136829578829
 s    1 1.00
                 0.122                   1
 p    1 1.00
                 0.727                   1

25 0
 s    8 1.00
                  6665  0.00069158396281299
                  1000  0.0053257961529341
                   228   0.027060721042034
                 64.71    0.10165684614077
                 21.06     0.2745748236174
                 7.495    0.44829431892377
                 2.797    0.28490261071525
                0.5215   0.015194859206082
 s    8 1.00
                  6665  -0.00029326965268655
                  1000  -0.0023180354739745
                   228  -0.011499786038565
                 64.71  -0.046826727009787
                 21.06   -0.12846616875047
                 7.495   -0.30126627246289
                 2.797   -0.25563070233011
                0.5215      1.093793361012
 s    1 1.00
                0.1596                   1
 p    3 1.00
                 9.439   0.056979251590039
                 2.002    0.31320721150073
                0.5456    0.76037674173753
 p    1 1.00
                0.1517                   1
 d    1 1.00
                  0.55                   1

26 0
 s    3 1.00
                 13.01   0.033498726389998
                 1.962    0.23480080117413
                0.4446     0.8136829578829
 s    1 1.00
                 0.122                   1
 p    1 1.00
                 0.727                   1

27 0
 s    3 1.00
                 13.01   0.033498726389998
                 1.962    0.23480080117413
                0.4446     0.8136829578829
 s    1 1.00
                 0.122                   1
 p    1 1.00
                 0.727                   1

28 0
 s    8 1.00
                  6665  0.00069158396281299
                  1000  0.0053257961529341
                   228   0.027060721042034
                 64.71    0.10165684614077
                 21.06     0.2745748236174
                 7.495    0.44829431892377
                 2.797    0.28490261071525
                0.5215   0.015194859206082
 s    8 1.00
                  6665  -0.00029326965268655
                  1000  -0.0023180354739745
                   228  -0.011499786038565
                 64.71  -0.046826727009787
                 21.06   -0.12846616875047
                 7.495   -0.30126627246289
                 2.797   -0.25563070233011
                0.5215      1.093793361012
 s    1 1.00
                0.1596                   1
 p    3 1.00
                 9.439   0.056979251590039
                 2.002    0.31320721150073
                0.5456    0.76037674173753
 p    1 1.00
                0.1517                   1
 d    1 1.00
                  0.55                   1

29 0
 s    3 1.00
                 13.01   0.033498726389998
                 1.962    0.23480080117413
                0.4446     0.8136829578829
 s    1 1.00
                 0.122                   1
 p    1 1.00
                 0.727                   1

30 0
 s    3 1.00
                 13.01   0.033498726389998
                 1.962    0.23480080117413
                0.4446     0.8136829578829
 s    1 1.00
                 0.122                   1
 p    1 1.00
                 0.727                   1

31 0
 s    8 1.00
                  6665  0.00069158396281299
                  1000  0.0053257961529341
                   228   0.027060721042034
                 64.71    0.10165684614077
                 21.06     0.2745748236174
                 7.495    0.44829431892377
                 2.797    0.28490261071525
                0.5215   0.015194859206082
 s    8 1.00
                  6665  -0.00029326965268655
                  1000  -0.0023180354739745
                   228  -0.011499786038565
                 64.71  -0.046826727009787
                 21.06   -0.12846616875047
                 7.495   -0.30126627246289
                 2.797   -0.25563070233011
                0.5215      1.093793361012
 s    1 1.00
                0.1596                   1
 p    3 1.00
                 9.439   0.056979251590039
                 2.002    0.31320721150073
                0.5456    0.76037674173753
 p    1 1.00
                0.1517                   1
 d    1 1.00
                  0.55                   1

32 0
 s    3 1.00
                 13.01   0.033498726389998
                 1.962    0.23480080117413
                0.4446     0.8136829578829
 s    1 1.00
                 0.122                   1
 p    1 1.00
                 0.727                   1

33 0
 s    3 1.00
                 13.01   0.033498726389998
                 1.962    0.23480080117413
                0.4446     0.8136829578829
 s    1 1.00
                 0.122                   1
 p    1 1.00
                 0.727                   1

34 0
 s    3 1.00
                 13.01   0.033498726389998
                 1.962    0.23480080117413
                0.4446     0.8136829578829
 s    1 1.00
                 0.122                   1
 p    1 1.00
                 0.727                   1

35 0
 s    3 1.00
                 13.01   0.033498726389998
                 1.962    0.23480080117413
                0.4446     0.8136829578829
 s    1 1.00
                 0.122                   1
 p    1 1.00
                 0.727                   1

36 0
 s    3 1.00
                 13.01   0.033498726389998
                 1.962    0.23480080117413
                0.4446     0.8136829578829
 s    1 1.00
                 0.122                   1
 p    1 1.00
                 0.727                   1

37 0
 s    3 1.00
                 13.01   0.033498726389998
                 1.962    0.23480080117413
                0.4446     0.8136829578829
 s    1 1.00
                 0.122                   1
 p    1 1.00
                 0.727                   1

[5d]
[7f]
[9g]

[MO]
 Sym= A
 Ene=               0
 Spin= Alpha
 Occup=    1.00000
   1    -8.5801993313225e-08
   2    -5.3048027199605e-07
   3    1.166133298025e-06
   4    -6.1479074444284e-08
   5    1.2874435897464e-07
   6    -4.9854591104807e-07
   7    -3.4863176728159e-08
   8    -1.3901934447604e-07
   9    -1.3472491610728e-06
  10    8.7557481067741e-08
  11    1.5272091447257e-09
  12    -1.5584404442229e-08
  13    -3.1879440738373e-09
  14    -1.2751852856657e-09
  15    3.0285311078635e-07
  16    -3.3216859074097e-06
  17    -2.5358896385012e-09
  18    1.7277611937267e-08
  19    -3.5840721815083e-07
  20    -1.6493694524228e-07
  21    9.7038753216134e-07
  22    -4.4774563535914e-09
  23    2.2683995295325e-08
  24    2.1834586401172e-08
  25    2.2948753090081e-06
  26    4.3215849758051e-05
  27    6.7772005619797e-05
  28    -9.9817950178196e-05
  29    -3.6926778851571e-06
  30    -1.8714326684135e-05
  31    -0.00013887880131717
  32    3.046485245652e-05
  33    -5.2067222410472e-05
  34    5.6442058430496e-06
  35    7.6694712022114e-06
  36    -3.9252096967585e-06
  37    -4.3808415999044e-06
  38    6.6235735509934e-06
  39    6.3103341567736e-05
  40    0.00023262334319407
  41    -0.00070690972847047
  42    -0.00017460836432992
  43    0.00014481422442486
  44    -0.00014720951643603
  45    0.00038764853092981
  46    -0.00027384272145709
  47    0.00024513684707024
  48    3.1762671128882e-05
  49    -2.8962693086077e-05
  50    8.761676414837e-06
  51    -3.395269550907e-05
  52    7.055496349322e-05
  53    1.6051692823022e-05
  54    -4.1917563581142e-05
  55    -0.00026410958800473
  56    9.873689134507e-05
  57    -7.4295838153149e-05
  58    -3.9355265552044e-05
  59    0.00013412491213405
  60    -0.00013345491322299
  61    -0.00019321380714058
  62    -1.2856372421899e-05
  63    1.4777830522528e-05
  64    -8.9369308889185e-06
  65    3.185175892046e-06
  66    -1.5298159236421e-05
  67    -0.00010567201666237
  68    -0.000512461682325
  69    0.00036304941801138
  70    0.00056290615023479
  71    -0.00022015692260029
  72    -0.00046347843098518
  73    0.0012377170476808
  74    -0.00072736494891308
  75    0.00029380537939812
  76    -7.1263167160714e-05
  77    7.8798396636223e-05
  78    -3.033511133471e-05
  79    3.7948672137085e-05
  80    -8.6583620033244e-05
  81    8.3181911495645e-05
  82    6.3359511853394e-05
  83    1.5209424209135e-05
  84    -8.9892555633159e-06
  85    -2.8931454429306e-06
  86    -4.5761584424606e-07
  87    -2.0336393844989e-05
  88    -5.1732340495697e-05
  89    2.1859497987976e-05
  90    4.3621677728474e-06
  91    -4.297147056964e-06
  92    7.2518792864148e-05
  93    4.2467561023803e-05
  94    7.8791712751706e-05
  95    -2.0723287833908e-06
  96    -2.2105417781399e-06
  97    4.4126827879184e-06
  98    -6.1652312949073e-07
  99    -3.1711725469793e-06
 100    -2.0316175629567e-05
 101    -3.7660785073249e-05
 102    -6.0349824581566e-06
 103    -8.0462513076208e-07
 104    4.6478635710191e-06
 105    -4.6752958196241e-05
 106    1.9397684568744e-05
 107    -1.3384239729121e-05
 108    2.5921325079152e-05
 109    -3.4127977256075e-05
 110    -6.8368058150796e-05
 111    -1.6645246778247e-05
 112    -1.8138603554012e-05
 113    5.1295570068767e-06
 114    -3.7104173011594e-05
 115    0.00016175356382503
 116    0.0011607441343032
 117    0.0009925481630862
 118    -0.0013620333023931
 119    0.00093455448236264
 120    -0.00063163014813626
 121      -0.0013976386035
 122    0.00074550347919226
 123    4.7434285085207e-05
 124    1.5390538414812e-05
 125    6.1953000018996e-05
 126    -9.5341932231328e-07
 127    -6.1466132688509e-05
 128    9.0448084670164e-05
 129    -5.6371437560654e-06
 130    -2.6605647927572e-05
 131    -3.4117974429489e-06
 132    3.9935847338519e-06
 133    -1.1946082549796e-06
 134    7.1596013969189e-06
 135    5.2499257001335e-05
 136     2.80506624588e-06
 137    -3.3711419237865e-06
 138    -3.0832945856301e-10
 139    5.9917164931096e-06
 140    3.100677290571e-06
 141    -3.7799003968121e-05
 142    -2.2041935483359e-06
 143    3.3548481328385e-06
 144    -5.1372975458273e-06
 145    -2.099594226218e-05
 146    3.5421367705665e-06
 147    -5.3977689813848e-05
 148    -9.309336114542e-07
 149    9.2143281108662e-07
 150    -2.4878589853589e-06
 151    -5.0742942294577e-07
 152    2.567420553076e-06
 153    0.00026765595573128
 154    9.6588885674537e-05
 155    -4.7440749197288e-05
 156    5.4823648672605e-06
 157    -6.8558619226493e-05
 158    0.00021421102497191
 159    -9.978939056855e-08
 160    -1.0531168458721e-05
 161    5.8091446368733e-05
 162    -5.486588193406e-05
 163    -0.00024283333508197
 164    -0.0015079998927153
 165    -0.003345286689132
 166    0.0018809557651338
 167    -0.0010304475583001
 168    -0.00077980270534456
 169    0.0038099158134782
 170    -0.0021936014161607
 171    -0.0003383493812204
 172    -0.0005917148112578
 173    0.00047966418357211
 174    -7.0766197792274e-05
 175    0.00012000895013876
 176    -0.0004869056365593
 177    -5.4813244816376e-06
 178    3.2701285990518e-05
 179    -2.3282335024984e-06
 180    1.6431842627649e-09
 181    1.1309959022434e-06
 182    4.6944254387543e-07
 183    3.575170586089e-06
 184    6.7390528272475e-06
 185    -3.508411766944e-06
 186    -5.008130971711e-06
 187    3.1383554399297e-06
 188    9.3201947661378e-06
 189    -8.0121804479551e-07
 190    3.6938543490974e-06
 191    7.9680089433383e-07
 192    3.5684734499484e-07
 193    -7.0329866679137e-08
 194    8.7701670198801e-08
 195    -1.75177551755e-06
 196    -9.4362467316693e-07
 197    -9.7497400692446e-06
 198    -3.3026057826442e-07
 199    -1.8153846549533e-06
 200    1.6531464720719e-06
 201    -0.00096973593727414
 202    -0.00064031122664129
 203    -3.4876982283933e-05
 204    -2.5871627889551e-05
 205    -0.0001116713200808
 206    -0.0013209464724063
 207    -0.0010466547447843
 208    2.9942644977878e-05
 209    7.1308357270635e-05
 210    -0.00010135017188526
 211    0.00077539170790071
 212    0.0074523065374781
 213    0.0065300144428876
 214    -0.013636047844605
 215      0.01256231655625
 216    -0.012807928702961
 217    -0.0054442850673709
 218    0.0055935616534938
 219    -0.007109163590662
 220    -0.00010418138849327
 221    0.0013269380775378
 222    -0.00095463837149919
 223    0.00044786864610291
 224    -0.0014482761335466
 225    -9.8240454695056e-07
 226    -2.8260657190894e-06
 227    -4.7680737186586e-07
 228    -4.5756527993255e-07
 229    5.0647500139091e-07
 230    -4.4209452455537e-07
 231    -7.0384003755081e-06
 232    -3.7563003654415e-07
 233    -9.1453811495577e-08
 234    -1.0713975932038e-06
 235    7.5255901533622e-07
 236    1.055208629887e-06
 237    -6.8111319551332e-06
 238    2.3360336515175e-07
 239    6.6857137053631e-07
 240    6.2398064539552e-07
 241    6.0813980925246e-06
 242    -1.2608671717185e-06
 243    -5.7327932947145e-06
 244    5.113175579237e-08
 245    6.9930553360386e-07
 246    -6.1593626013461e-07
 247    3.7653151431155e-07
 248    5.1816906493163e-08
 249    -0.0027600783526815
 250    -0.0023390515327759
 251    -0.00022703300662667
 252    0.00030555779945046
 253    -0.00015541621502564
 254    -0.0049462533812908
 255    -0.0033215581924396
 256    -0.00038721239333428
 257    2.9177907769336e-05
 258    -9.4505899335545e-05
 259      -1.0013152534631
 260    0.0079609976537665
 261      0.01817151635345
 262     0.013999482791415
 263    -0.010395613484999