[Molden Format]
made by pyscf v[2.0.1]
[Atoms] (AU)
O   1   8     0.00000000000000     0.00000000000000    11.31969581038057
H   2   1     0.00000000000000     0.00000000000000     9.49629398847960
H   3   1    -0.05031916615174     1.78353065140343    11.69556750684724
O   4   8     0.00000000000000     0.00000000000000     2.31533471513237
C   5   6     0.00000000000000     0.00000000000000     0.00000000000000
C   6   6     2.01118073026938    -1.40227222164369    -1.50774939176400
C   7   6    -2.01249334291722     1.41331050329955    -1.50315905028694
H   8   1     3.32037363730244    -2.26721897153159    -0.13599698591495
C   9   6     3.45899267434009     0.28739631745591    -3.37437943254505
H   10   1     1.07662969841332    -2.94725144642667    -2.56541439481080
H   11   1    -2.67503415753480     0.18421555839588    -3.06194479365997
H   12   1    -1.07974048864772     3.03851734677796    -2.43674295017013
C   13   6    -4.21607110578555     2.32938802552922     0.11994162256091
H   14   1     4.24440173074564     1.93368664142019    -2.34976285512790
H   15   1     2.15020713235517     1.04714335134846    -4.81494497423699
C   16   6     5.60746363007797    -1.12419643481196    -4.70268606082550
H   17   1    -3.46838323670267     3.50951302338067     1.66946842715333
H   18   1    -5.11873485366228     0.68575958301209     1.04047743976495
C   19   6    -6.18314754751344     3.80909592987882    -1.39656589068747
H   20   1     6.93011263717176    -1.87550812453645    -3.26656317360070
C   21   6     7.06356622236532     0.52877932406334    -6.57829775293605
H   22   1     4.82318879258361    -2.78573437948532    -5.70504560381835
H   23   1    -6.91582688743803     2.61304780074712    -2.95074552451969
H   24   1    -5.26532430573853     5.45420349051338    -2.31005832200284
C   25   6    -8.39941882261433     4.73263980500213     0.21800571437956
H   26   1     7.83338371486801     2.19084139882824    -5.57093109900697
H   27   1     5.73544244039420     1.27376866537418    -8.01071492370229
C   28   6     9.21124858443101    -0.89699110072176    -7.88926949186242
H   29   1    -7.66272760055236     5.92277078003992     1.77035591474408
H   30   1    -9.31497248082589     3.08753015622020     1.12614408368786
C   31   6   -10.35481709231879     6.21833079391143    -1.30905206253246
H   32   1    10.58815905329501    -1.61074586756696    -6.49512691622620
H   33   1    10.23506248045667     0.32468009384095    -9.23072870921204
H   34   1     8.47665842847139    -2.53598436989925    -8.94921964622535
H   35   1    -9.48948872868064     7.90013588951020    -2.18823918416067
H   36   1   -11.93332513000955     6.86460487874102    -0.11255798845995
H   37   1   -11.15126291841033     5.04495968327630    -2.83849898862534
[GTO]
1 0
 s    8 1.00
                 11720  0.00070964594651845
                  1759  0.0054672722921914
                 400.8   0.027823118610189
                 113.7    0.10474773971146
                 37.03    0.28292084635691
                 13.27    0.44849523869833
                 5.025    0.27081688521277
                 1.013    0.01545029160744
 s    8 1.00
                 11720  -0.00031444341168873
                  1759  -0.0024821376810179
                 400.8  -0.012316355381583
                 113.7  -0.050538917343672
                 37.03   -0.13938490331632
                 13.27   -0.32507749481778
                 5.025   -0.22984830758785
                 1.013     1.0953793467883
 s    1 1.00
                0.3023                   1
 p    3 1.00
                  17.7   0.062679166281506
                 3.854    0.33353656587936
                 1.046    0.74123964163973
 p    1 1.00
                0.2753                   1
 d    1 1.00
                 1.185                   1

2 0
 s    3 1.00
                 13.01   0.033498726389998
                 1.962    0.23480080117413
                0.4446     0.8136829578829
 s    1 1.00
                 0.122                   1
 p    1 1.00
                 0.727                   1

3 0
 s    3 1.00
                 13.01   0.033498726389998
                 1.962    0.23480080117413
                0.4446     0.8136829578829
 s    1 1.00
                 0.122                   1
 p    1 1.00
                 0.727                   1

4 0
 s    8 1.00
                 11720  0.00070964594651845
                  1759  0.0054672722921914
                 400.8   0.027823118610189
                 113.7    0.10474773971146
                 37.03    0.28292084635691
                 13.27    0.44849523869833
                 5.025    0.27081688521277
                 1.013    0.01545029160744
 s    8 1.00
                 11720  -0.00031444341168873
                  1759  -0.0024821376810179
                 400.8  -0.012316355381583
                 113.7  -0.050538917343672
                 37.03   -0.13938490331632
                 13.27   -0.32507749481778
                 5.025   -0.22984830758785
                 1.013     1.0953793467883
 s    1 1.00
                0.3023                   1
 p    3 1.00
                  17.7   0.062679166281506
                 3.854    0.33353656587936
                 1.046    0.74123964163973
 p    1 1.00
                0.2753                   1
 d    1 1.00
                 1.185                   1

5 0
 s    8 1.00
                  6665  0.00069158396281299
                  1000  0.0053257961529341
                   228   0.027060721042034
                 64.71    0.10165684614077
                 21.06     0.2745748236174
                 7.495    0.44829431892377
                 2.797    0.28490261071525
                0.5215   0.015194859206082
 s    8 1.00
                  6665  -0.00029326965268655
                  1000  -0.0023180354739745
                   228  -0.011499786038565
                 64.71  -0.046826727009787
                 21.06   -0.12846616875047
                 7.495   -0.30126627246289
                 2.797   -0.25563070233011
                0.5215      1.093793361012
 s    1 1.00
                0.1596                   1
 p    3 1.00
                 9.439   0.056979251590039
                 2.002    0.31320721150073
                0.5456    0.76037674173753
 p    1 1.00
                0.1517                   1
 d    1 1.00
                  0.55                   1

6 0
 s    8 1.00
                  6665  0.00069158396281299
                  1000  0.0053257961529341
                   228   0.027060721042034
                 64.71    0.10165684614077
                 21.06     0.2745748236174
                 7.495    0.44829431892377
                 2.797    0.28490261071525
                0.5215   0.015194859206082
 s    8 1.00
                  6665  -0.00029326965268655
                  1000  -0.0023180354739745
                   228  -0.011499786038565
                 64.71  -0.046826727009787
                 21.06   -0.12846616875047
                 7.495   -0.30126627246289
                 2.797   -0.25563070233011
                0.5215      1.093793361012
 s    1 1.00
                0.1596                   1
 p    3 1.00
                 9.439   0.056979251590039
                 2.002    0.31320721150073
                0.5456    0.76037674173753
 p    1 1.00
                0.1517                   1
 d    1 1.00
                  0.55                   1

7 0
 s    8 1.00
                  6665  0.00069158396281299
                  1000  0.0053257961529341
                   228   0.027060721042034
                 64.71    0.10165684614077
                 21.06     0.2745748236174
                 7.495    0.44829431892377
                 2.797    0.28490261071525
                0.5215   0.015194859206082
 s    8 1.00
                  6665  -0.00029326965268655
                  1000  -0.0023180354739745
                   228  -0.011499786038565
                 64.71  -0.046826727009787
                 21.06   -0.12846616875047
                 7.495   -0.30126627246289
                 2.797   -0.25563070233011
                0.5215      1.093793361012
 s    1 1.00
                0.1596                   1
 p    3 1.00
                 9.439   0.056979251590039
                 2.002    0.31320721150073
                0.5456    0.76037674173753
 p    1 1.00
                0.1517                   1
 d    1 1.00
                  0.55                   1

8 0
 s    3 1.00
                 13.01   0.033498726389998
                 1.962    0.23480080117413
                0.4446     0.8136829578829
 s    1 1.00
                 0.122                   1
 p    1 1.00
                 0.727                   1

9 0
 s    8 1.00
                  6665  0.00069158396281299
                  1000  0.0053257961529341
                   228   0.027060721042034
                 64.71    0.10165684614077
                 21.06     0.2745748236174
                 7.495    0.44829431892377
                 2.797    0.28490261071525
                0.5215   0.015194859206082
 s    8 1.00
                  6665  -0.00029326965268655
                  1000  -0.0023180354739745
                   228  -0.011499786038565
                 64.71  -0.046826727009787
                 21.06   -0.12846616875047
                 7.495   -0.30126627246289
                 2.797   -0.25563070233011
                0.5215      1.093793361012
 s    1 1.00
                0.1596                   1
 p    3 1.00
                 9.439   0.056979251590039
                 2.002    0.31320721150073
                0.5456    0.76037674173753
 p    1 1.00
                0.1517                   1
 d    1 1.00
                  0.55                   1

10 0
 s    3 1.00
                 13.01   0.033498726389998
                 1.962    0.23480080117413
                0.4446     0.8136829578829
 s    1 1.00
                 0.122                   1
 p    1 1.00
                 0.727                   1

11 0
 s    3 1.00
                 13.01   0.033498726389998
                 1.962    0.23480080117413
                0.4446     0.8136829578829
 s    1 1.00
                 0.122                   1
 p    1 1.00
                 0.727                   1

12 0
 s    3 1.00
                 13.01   0.033498726389998
                 1.962    0.23480080117413
                0.4446     0.8136829578829
 s    1 1.00
                 0.122                   1
 p    1 1.00
                 0.727                   1

13 0
 s    8 1.00
                  6665  0.00069158396281299
                  1000  0.0053257961529341
                   228   0.027060721042034
                 64.71    0.10165684614077
                 21.06     0.2745748236174
                 7.495    0.44829431892377
                 2.797    0.28490261071525
                0.5215   0.015194859206082
 s    8 1.00
                  6665  -0.00029326965268655
                  1000  -0.0023180354739745
                   228  -0.011499786038565
                 64.71  -0.046826727009787
                 21.06   -0.12846616875047
                 7.495   -0.30126627246289
                 2.797   -0.25563070233011
                0.5215      1.093793361012
 s    1 1.00
                0.1596                   1
 p    3 1.00
                 9.439   0.056979251590039
                 2.002    0.31320721150073
                0.5456    0.76037674173753
 p    1 1.00
                0.1517                   1
 d    1 1.00
                  0.55                   1

14 0
 s    3 1.00
                 13.01   0.033498726389998
                 1.962    0.23480080117413
                0.4446     0.8136829578829
 s    1 1.00
                 0.122                   1
 p    1 1.00
                 0.727                   1

15 0
 s    3 1.00
                 13.01   0.033498726389998
                 1.962    0.23480080117413
                0.4446     0.8136829578829
 s    1 1.00
                 0.122                   1
 p    1 1.00
                 0.727                   1

16 0
 s    8 1.00
                  6665  0.00069158396281299
                  1000  0.0053257961529341
                   228   0.027060721042034
                 64.71    0.10165684614077
                 21.06     0.2745748236174
                 7.495    0.44829431892377
                 2.797    0.28490261071525
                0.5215   0.015194859206082
 s    8 1.00
                  6665  -0.00029326965268655
                  1000  -0.0023180354739745
                   228  -0.011499786038565
                 64.71  -0.046826727009787
                 21.06   -0.12846616875047
                 7.495   -0.30126627246289
                 2.797   -0.25563070233011
                0.5215      1.093793361012
 s    1 1.00
                0.1596                   1
 p    3 1.00
                 9.439   0.056979251590039
                 2.002    0.31320721150073
                0.5456    0.76037674173753
 p    1 1.00
                0.1517                   1
 d    1 1.00
                  0.55                   1

17 0
 s    3 1.00
                 13.01   0.033498726389998
                 1.962    0.23480080117413
                0.4446     0.8136829578829
 s    1 1.00
                 0.122                   1
 p    1 1.00
                 0.727                   1

18 0
 s    3 1.00
                 13.01   0.033498726389998
                 1.962    0.23480080117413
                0.4446     0.8136829578829
 s    1 1.00
                 0.122                   1
 p    1 1.00
                 0.727                   1

19 0
 s    8 1.00
                  6665  0.00069158396281299
                  1000  0.0053257961529341
                   228   0.027060721042034
                 64.71    0.10165684614077
                 21.06     0.2745748236174
                 7.495    0.44829431892377
                 2.797    0.28490261071525
                0.5215   0.015194859206082
 s    8 1.00
                  6665  -0.00029326965268655
                  1000  -0.0023180354739745
                   228  -0.011499786038565
                 64.71  -0.046826727009787
                 21.06   -0.12846616875047
                 7.495   -0.30126627246289
                 2.797   -0.25563070233011
                0.5215      1.093793361012
 s    1 1.00
                0.1596                   1
 p    3 1.00
                 9.439   0.056979251590039
                 2.002    0.31320721150073
                0.5456    0.76037674173753
 p    1 1.00
                0.1517                   1
 d    1 1.00
                  0.55                   1

20 0
 s    3 1.00
                 13.01   0.033498726389998
                 1.962    0.23480080117413
                0.4446     0.8136829578829
 s    1 1.00
                 0.122                   1
 p    1 1.00
                 0.727                   1

21 0
 s    8 1.00
                  6665  0.00069158396281299
                  1000  0.0053257961529341
                   228   0.027060721042034
                 64.71    0.10165684614077
                 21.06     0.2745748236174
                 7.495    0.44829431892377
                 2.797    0.28490261071525
                0.5215   0.015194859206082
 s    8 1.00
                  6665  -0.00029326965268655
                  1000  -0.0023180354739745
                   228  -0.011499786038565
                 64.71  -0.046826727009787
                 21.06   -0.12846616875047
                 7.495   -0.30126627246289
                 2.797   -0.25563070233011
                0.5215      1.093793361012
 s    1 1.00
                0.1596                   1
 p    3 1.00
                 9.439   0.056979251590039
                 2.002    0.31320721150073
                0.5456    0.76037674173753
 p    1 1.00
                0.1517                   1
 d    1 1.00
                  0.55                   1

22 0
 s    3 1.00
                 13.01   0.033498726389998
                 1.962    0.23480080117413
                0.4446     0.8136829578829
 s    1 1.00
                 0.122                   1
 p    1 1.00
                 0.727                   1

23 0
 s    3 1.00
                 13.01   0.033498726389998
                 1.962    0.23480080117413
                0.4446     0.8136829578829
 s    1 1.00
                 0.122                   1
 p    1 1.00
                 0.727                   1

24 0
 s    3 1.00
                 13.01   0.033498726389998
                 1.962    0.23480080117413
                0.4446     0.8136829578829
 s    1 1.00
                 0.122                   1
 p    1 1.00
                 0.727                   1

25 0
 s    8 1.00
                  6665  0.00069158396281299
                  1000  0.0053257961529341
                   228   0.027060721042034
                 64.71    0.10165684614077
                 21.06     0.2745748236174
                 7.495    0.44829431892377
                 2.797    0.28490261071525
                0.5215   0.015194859206082
 s    8 1.00
                  6665  -0.00029326965268655
                  1000  -0.0023180354739745
                   228  -0.011499786038565
                 64.71  -0.046826727009787
                 21.06   -0.12846616875047
                 7.495   -0.30126627246289
                 2.797   -0.25563070233011
                0.5215      1.093793361012
 s    1 1.00
                0.1596                   1
 p    3 1.00
                 9.439   0.056979251590039
                 2.002    0.31320721150073
                0.5456    0.76037674173753
 p    1 1.00
                0.1517                   1
 d    1 1.00
                  0.55                   1

26 0
 s    3 1.00
                 13.01   0.033498726389998
                 1.962    0.23480080117413
                0.4446     0.8136829578829
 s    1 1.00
                 0.122                   1
 p    1 1.00
                 0.727                   1

27 0
 s    3 1.00
                 13.01   0.033498726389998
                 1.962    0.23480080117413
                0.4446     0.8136829578829
 s    1 1.00
                 0.122                   1
 p    1 1.00
                 0.727                   1

28 0
 s    8 1.00
                  6665  0.00069158396281299
                  1000  0.0053257961529341
                   228   0.027060721042034
                 64.71    0.10165684614077
                 21.06     0.2745748236174
                 7.495    0.44829431892377
                 2.797    0.28490261071525
                0.5215   0.015194859206082
 s    8 1.00
                  6665  -0.00029326965268655
                  1000  -0.0023180354739745
                   228  -0.011499786038565
                 64.71  -0.046826727009787
                 21.06   -0.12846616875047
                 7.495   -0.30126627246289
                 2.797   -0.25563070233011
                0.5215      1.093793361012
 s    1 1.00
                0.1596                   1
 p    3 1.00
                 9.439   0.056979251590039
                 2.002    0.31320721150073
                0.5456    0.76037674173753
 p    1 1.00
                0.1517                   1
 d    1 1.00
                  0.55                   1

29 0
 s    3 1.00
                 13.01   0.033498726389998
                 1.962    0.23480080117413
                0.4446     0.8136829578829
 s    1 1.00
                 0.122                   1
 p    1 1.00
                 0.727                   1

30 0
 s    3 1.00
                 13.01   0.033498726389998
                 1.962    0.23480080117413
                0.4446     0.8136829578829
 s    1 1.00
                 0.122                   1
 p    1 1.00
                 0.727                   1

31 0
 s    8 1.00
                  6665  0.00069158396281299
                  1000  0.0053257961529341
                   228   0.027060721042034
                 64.71    0.10165684614077
                 21.06     0.2745748236174
                 7.495    0.44829431892377
                 2.797    0.28490261071525
                0.5215   0.015194859206082
 s    8 1.00
                  6665  -0.00029326965268655
                  1000  -0.0023180354739745
                   228  -0.011499786038565
                 64.71  -0.046826727009787
                 21.06   -0.12846616875047
                 7.495   -0.30126627246289
                 2.797   -0.25563070233011
                0.5215      1.093793361012
 s    1 1.00
                0.1596                   1
 p    3 1.00
                 9.439   0.056979251590039
                 2.002    0.31320721150073
                0.5456    0.76037674173753
 p    1 1.00
                0.1517                   1
 d    1 1.00
                  0.55                   1

32 0
 s    3 1.00
                 13.01   0.033498726389998
                 1.962    0.23480080117413
                0.4446     0.8136829578829
 s    1 1.00
                 0.122                   1
 p    1 1.00
                 0.727                   1

33 0
 s    3 1.00
                 13.01   0.033498726389998
                 1.962    0.23480080117413
                0.4446     0.8136829578829
 s    1 1.00
                 0.122                   1
 p    1 1.00
                 0.727                   1

34 0
 s    3 1.00
                 13.01   0.033498726389998
                 1.962    0.23480080117413
                0.4446     0.8136829578829
 s    1 1.00
                 0.122                   1
 p    1 1.00
                 0.727                   1

35 0
 s    3 1.00
                 13.01   0.033498726389998
                 1.962    0.23480080117413
                0.4446     0.8136829578829
 s    1 1.00
                 0.122                   1
 p    1 1.00
                 0.727                   1

36 0
 s    3 1.00
                 13.01   0.033498726389998
                 1.962    0.23480080117413
                0.4446     0.8136829578829
 s    1 1.00
                 0.122                   1
 p    1 1.00
                 0.727                   1

37 0
 s    3 1.00
                 13.01   0.033498726389998
                 1.962    0.23480080117413
                0.4446     0.8136829578829
 s    1 1.00
                 0.122                   1
 p    1 1.00
                 0.727                   1

[5d]
[7f]
[9g]

[MO]
 Sym= A
 Ene=               0
 Spin= Alpha
 Occup=    1.00000
   1    -1.2198569657118e-07
   2    -7.5738879640816e-07
   3    1.6552657886756e-06
   4    -1.1260808381057e-07
   5    2.1039277425685e-07
   6    -6.8019366669918e-07
   7    -6.7820836723641e-08
   8    -1.4120638914789e-07
   9    -1.8419287162883e-06
  10     1.18393708868e-07
  11    2.4889679899179e-09
  12    -2.0680364069519e-08
  13    -8.0305944582031e-09
  14    -2.4837504777708e-09
  15    4.0573699351693e-07
  16    -4.5631196553655e-06
  17    -4.9087495933722e-09
  18    2.2706689879939e-08
  19    -5.0214120748876e-07
  20    -2.0281319638311e-07
  21    1.2245666356608e-06
  22    -8.3020601761556e-09
  23    4.477474091437e-08
  24    3.1704814396315e-08
  25    2.2978858912525e-06
  26    4.3266774575464e-05
  27    6.7898183879065e-05
  28    -9.9846692861585e-05
  29    -3.6782893642507e-06
  30    -1.866245357621e-05
  31    -0.00013890223209512
  32    3.0444724342524e-05
  33    -5.2042355393714e-05
  34    5.6440919185839e-06
  35    7.6665811902959e-06
  36    -3.9300182011798e-06
  37    -4.3829429675835e-06
  38    6.6258831657393e-06
  39    6.3097439863514e-05
  40    0.00023264644663781
  41    -0.00070659028593194
  42    -0.00017463655767382
  43    0.00014494003479568
  44    -0.00014730280764254
  45    0.00038766467671054
  46    -0.00027370507574131
  47    0.0002449507128191
  48    3.1775031399224e-05
  49    -2.8966890999034e-05
  50    8.7676788446635e-06
  51    -3.3967635111414e-05
  52    7.0568934731869e-05
  53    1.6064546046095e-05
  54    -4.1894153758216e-05
  55    -0.00026425409932828
  56    9.8738480910994e-05
  57    -7.4312671367307e-05
  58    -3.9340528036291e-05
  59    0.00013419939429603
  60    -0.00013355785453782
  61    -0.00019315823389686
  62     -1.2857580303e-05
  63    1.4791529404813e-05
  64    -8.9396656318782e-06
  65    3.1806383074908e-06
  66    -1.5298311581544e-05
  67    -0.0001056449009348
  68    -0.00051249226361746
  69    0.00036210863944722
  70    0.00056292571391495
  71    -0.00022014963417953
  72    -0.00046360515382804
  73    0.0012379099010849
  74    -0.0007274637703493
  75    0.00029338618562546
  76    -7.1294612031244e-05
  77    7.8812787729153e-05
  78    -3.0339760307327e-05
  79    3.7966157328293e-05
  80    -8.6604454413804e-05
  81    8.3208499560852e-05
  82    6.3314741272012e-05
  83    1.5208145513298e-05
  84    -8.9865238023806e-06
  85    -2.8902419629303e-06
  86    -4.6427111932705e-07
  87    -2.0358483383383e-05
  88    -5.158511426555e-05
  89    2.1874714818285e-05
  90    4.3779186997357e-06
  91    -4.3121458780734e-06
  92    7.2555709013302e-05
  93    4.2410646297917e-05
  94    7.8735692441832e-05
  95    -2.0731971370553e-06
  96    -2.2137909800772e-06
  97    4.4140043109154e-06
  98    -6.1376643841627e-07
  99    -3.1742015360786e-06
 100    -2.029843719233e-05
 101    -3.7661475924851e-05
 102    -6.0372123046417e-06
 103    -8.0239254119595e-07
 104    4.6462796520877e-06
 105    -4.6748665012959e-05
 106    1.9356976080334e-05
 107    -1.3387657858747e-05
 108    2.5928098793089e-05
 109    -3.412244873316e-05
 110    -6.8396763078274e-05
 111    -1.6690519012354e-05
 112    -1.8140728363708e-05
 113    5.1282612421371e-06
 114    -3.7102513744654e-05
 115    0.0001617599384334
 116    0.0011609659420898
 117    0.00099419700918624
 118    -0.0013620093482591
 119    0.00093461317625026
 120    -0.00063164291041575
 121    -0.0013974105318877
 122    0.00074574850802732
 123    4.6779347853638e-05
 124    1.5430705678012e-05
 125    6.1932877876962e-05
 126    -9.3694729928382e-07
 127    -6.1513892485149e-05
 128    9.0509055184492e-05
 129    -5.6345756902169e-06
 130    -2.6582563388332e-05
 131    -3.4150328947554e-06
 132    3.9938800824216e-06
 133    -1.1939660033588e-06
 134    7.158635574085e-06
 135    5.2452158264846e-05
 136    2.8041897337714e-06
 137    -3.3681178674782e-06
 138    -1.781733708972e-09
 139    5.9979864730997e-06
 140    3.1161278724178e-06
 141    -3.7881624109596e-05
 142    -2.2136272179201e-06
 143    3.356708372726e-06
 144    -5.1316604442707e-06
 145    -2.0935820016438e-05
 146    3.5244857947837e-06
 147    -5.4022032416933e-05
 148    -9.3053968425271e-07
 149    9.2597862440279e-07
 150    -2.4886419498764e-06
 151    -5.1050596669331e-07
 152    2.5694029953577e-06
 153    0.00026786713854278
 154    9.6380209875057e-05
 155    -4.744564490467e-05
 156    5.4816891719453e-06
 157    -6.8550779591225e-05
 158    0.00021436130159433
 159    5.1766672087559e-08
 160    -1.0524684320654e-05
 161    5.8103381771155e-05
 162    -5.4860513413907e-05
 163    -0.00024281078745216
 164    -0.0015081297857512
 165    -0.0033463419420623
 166    0.0018807082830422
 167    -0.0010301796524637
 168    -0.00078011491183361
 169    0.0038093724060602
 170    -0.0021932011134428
 171    -0.00033912718549794
 172    -0.00059178882333839
 173    0.00047967053835235
 174    -7.076367518242e-05
 175    0.0001200490708057
 176    -0.00048697038013158
 177    -5.4758402103536e-06
 178    3.2691845435938e-05
 179    -2.3295027237452e-06
 180    1.8369905282574e-09
 181    1.1326480936966e-06
 182    4.6999505437563e-07
 183    3.5723114422576e-06
 184    6.7167638356971e-06
 185    -3.5029056260206e-06
 186    -5.0050541545721e-06
 187    3.1325539554723e-06
 188    9.3272145272442e-06
 189    -7.9038887472712e-07
 190    3.6921998080377e-06
 191    7.9682618775593e-07
 192    3.5563068833246e-07
 193    -6.9281382744248e-08
 194    8.8557559844471e-08
 195    -1.7521507003664e-06
 196    -9.3826402461136e-07
 197    -9.7533772531753e-06
 198    -3.3199341740445e-07
 199    -1.8154632739985e-06
 200    1.6542806198454e-06
 201    -0.00096976665767066
 202    -0.00064048114562833
 203    -3.4889255029142e-05
 204    -2.5866826647991e-05
 205    -0.00011167424545269
 206    -0.001320940592209
 207    -0.0010468032436147
 208    2.992788639356e-05
 209    7.1318685417803e-05
 210    -0.00010134784269813
 211    0.00077541136664927
 212    0.0074524619370591
 213    0.0065313607817371
 214    -0.013635666942826
 215      0.01256210817712
 216    -0.012808037571877
 217    -0.0054445671445138
 218    0.0055944328554116
 219    -0.0071100170306389
 220    -0.00010403685010156
 221    0.0013268674453423
 222    -0.00095466254365006
 223    0.00044777155070802
 224    -0.0014481279802894
 225    -9.8358954013828e-07
 226    -2.8317289295309e-06
 227    -4.7647514303488e-07
 228    -4.5739051427431e-07
 229    5.0633833324884e-07
 230    -4.4323029316098e-07
 231    -7.0270952643449e-06
 232    -3.7518363093098e-07
 233    -9.1977350723113e-08
 234    -1.0708489018428e-06
 235    7.5397238125634e-07
 236    1.0588671773955e-06
 237    -6.8113385462362e-06
 238    2.2903733014969e-07
 239    6.6871799608095e-07
 240    6.2803896151618e-07
 241    6.0868861372291e-06
 242    -1.2518344335624e-06
 243    -5.7413094470667e-06
 244    5.0797933035898e-08
 245    7.0027886620819e-07
 246    -6.1586088482316e-07
 247    3.7604414267366e-07
 248    5.1489308405019e-08
 249    -0.0027599825524452
 250    -0.0023390536049691
 251    -0.0002270613488375
 252    0.0003055543203262
 253    -0.00015539272939742
 254    -0.0049457407446442
 255    -0.003320209991621
 256    -0.00038719892837421
 257    2.9181435507529e-05
 258    -9.4466630133278e-05
 259      -1.0013153135736
 260    0.0079599755469603
 261     0.018168510743729
 262     0.013998394563275
 263    -0.010394845805639