[Molden Format]
made by pyscf v[2.0.1]
[Atoms] (AU)
O   1   8     0.00000000000000     0.00000000000000     6.78435311142442
H   2   1     0.00000000000000     0.00000000000000     4.96095128952346
H   3   1    -0.05031916615174     1.78353065140343     7.16022480789109
O   4   8     0.00000000000000     0.00000000000000     2.31533471513237
C   5   6     0.00000000000000     0.00000000000000     0.00000000000000
C   6   6     2.01118073026938    -1.40227222164369    -1.50774939176400
C   7   6    -2.01249334291722     1.41331050329955    -1.50315905028694
H   8   1     3.32037363730244    -2.26721897153159    -0.13599698591495
C   9   6     3.45899267434009     0.28739631745591    -3.37437943254505
H   10   1     1.07662969841332    -2.94725144642667    -2.56541439481080
H   11   1    -2.67503415753480     0.18421555839588    -3.06194479365997
H   12   1    -1.07974048864772     3.03851734677796    -2.43674295017013
C   13   6    -4.21607110578555     2.32938802552922     0.11994162256091
H   14   1     4.24440173074564     1.93368664142019    -2.34976285512790
H   15   1     2.15020713235517     1.04714335134846    -4.81494497423699
C   16   6     5.60746363007797    -1.12419643481196    -4.70268606082550
H   17   1    -3.46838323670267     3.50951302338067     1.66946842715333
H   18   1    -5.11873485366228     0.68575958301209     1.04047743976495
C   19   6    -6.18314754751344     3.80909592987882    -1.39656589068747
H   20   1     6.93011263717176    -1.87550812453645    -3.26656317360070
C   21   6     7.06356622236532     0.52877932406334    -6.57829775293605
H   22   1     4.82318879258361    -2.78573437948532    -5.70504560381835
H   23   1    -6.91582688743803     2.61304780074712    -2.95074552451969
H   24   1    -5.26532430573853     5.45420349051338    -2.31005832200284
C   25   6    -8.39941882261433     4.73263980500213     0.21800571437956
H   26   1     7.83338371486801     2.19084139882824    -5.57093109900697
H   27   1     5.73544244039420     1.27376866537418    -8.01071492370229
C   28   6     9.21124858443101    -0.89699110072176    -7.88926949186242
H   29   1    -7.66272760055236     5.92277078003992     1.77035591474408
H   30   1    -9.31497248082589     3.08753015622020     1.12614408368786
C   31   6   -10.35481709231879     6.21833079391143    -1.30905206253246
H   32   1    10.58815905329501    -1.61074586756696    -6.49512691622620
H   33   1    10.23506248045667     0.32468009384095    -9.23072870921204
H   34   1     8.47665842847139    -2.53598436989925    -8.94921964622535
H   35   1    -9.48948872868064     7.90013588951020    -2.18823918416067
H   36   1   -11.93332513000955     6.86460487874102    -0.11255798845995
H   37   1   -11.15126291841033     5.04495968327630    -2.83849898862534
[GTO]
1 0
 s    8 1.00
                 11720  0.00070964594651845
                  1759  0.0054672722921914
                 400.8   0.027823118610189
                 113.7    0.10474773971146
                 37.03    0.28292084635691
                 13.27    0.44849523869833
                 5.025    0.27081688521277
                 1.013    0.01545029160744
 s    8 1.00
                 11720  -0.00031444341168873
                  1759  -0.0024821376810179
                 400.8  -0.012316355381583
                 113.7  -0.050538917343672
                 37.03   -0.13938490331632
                 13.27   -0.32507749481778
                 5.025   -0.22984830758785
                 1.013     1.0953793467883
 s    1 1.00
                0.3023                   1
 p    3 1.00
                  17.7   0.062679166281506
                 3.854    0.33353656587936
                 1.046    0.74123964163973
 p    1 1.00
                0.2753                   1
 d    1 1.00
                 1.185                   1

2 0
 s    3 1.00
                 13.01   0.033498726389998
                 1.962    0.23480080117413
                0.4446     0.8136829578829
 s    1 1.00
                 0.122                   1
 p    1 1.00
                 0.727                   1

3 0
 s    3 1.00
                 13.01   0.033498726389998
                 1.962    0.23480080117413
                0.4446     0.8136829578829
 s    1 1.00
                 0.122                   1
 p    1 1.00
                 0.727                   1

4 0
 s    8 1.00
                 11720  0.00070964594651845
                  1759  0.0054672722921914
                 400.8   0.027823118610189
                 113.7    0.10474773971146
                 37.03    0.28292084635691
                 13.27    0.44849523869833
                 5.025    0.27081688521277
                 1.013    0.01545029160744
 s    8 1.00
                 11720  -0.00031444341168873
                  1759  -0.0024821376810179
                 400.8  -0.012316355381583
                 113.7  -0.050538917343672
                 37.03   -0.13938490331632
                 13.27   -0.32507749481778
                 5.025   -0.22984830758785
                 1.013     1.0953793467883
 s    1 1.00
                0.3023                   1
 p    3 1.00
                  17.7   0.062679166281506
                 3.854    0.33353656587936
                 1.046    0.74123964163973
 p    1 1.00
                0.2753                   1
 d    1 1.00
                 1.185                   1

5 0
 s    8 1.00
                  6665  0.00069158396281299
                  1000  0.0053257961529341
                   228   0.027060721042034
                 64.71    0.10165684614077
                 21.06     0.2745748236174
                 7.495    0.44829431892377
                 2.797    0.28490261071525
                0.5215   0.015194859206082
 s    8 1.00
                  6665  -0.00029326965268655
                  1000  -0.0023180354739745
                   228  -0.011499786038565
                 64.71  -0.046826727009787
                 21.06   -0.12846616875047
                 7.495   -0.30126627246289
                 2.797   -0.25563070233011
                0.5215      1.093793361012
 s    1 1.00
                0.1596                   1
 p    3 1.00
                 9.439   0.056979251590039
                 2.002    0.31320721150073
                0.5456    0.76037674173753
 p    1 1.00
                0.1517                   1
 d    1 1.00
                  0.55                   1

6 0
 s    8 1.00
                  6665  0.00069158396281299
                  1000  0.0053257961529341
                   228   0.027060721042034
                 64.71    0.10165684614077
                 21.06     0.2745748236174
                 7.495    0.44829431892377
                 2.797    0.28490261071525
                0.5215   0.015194859206082
 s    8 1.00
                  6665  -0.00029326965268655
                  1000  -0.0023180354739745
                   228  -0.011499786038565
                 64.71  -0.046826727009787
                 21.06   -0.12846616875047
                 7.495   -0.30126627246289
                 2.797   -0.25563070233011
                0.5215      1.093793361012
 s    1 1.00
                0.1596                   1
 p    3 1.00
                 9.439   0.056979251590039
                 2.002    0.31320721150073
                0.5456    0.76037674173753
 p    1 1.00
                0.1517                   1
 d    1 1.00
                  0.55                   1

7 0
 s    8 1.00
                  6665  0.00069158396281299
                  1000  0.0053257961529341
                   228   0.027060721042034
                 64.71    0.10165684614077
                 21.06     0.2745748236174
                 7.495    0.44829431892377
                 2.797    0.28490261071525
                0.5215   0.015194859206082
 s    8 1.00
                  6665  -0.00029326965268655
                  1000  -0.0023180354739745
                   228  -0.011499786038565
                 64.71  -0.046826727009787
                 21.06   -0.12846616875047
                 7.495   -0.30126627246289
                 2.797   -0.25563070233011
                0.5215      1.093793361012
 s    1 1.00
                0.1596                   1
 p    3 1.00
                 9.439   0.056979251590039
                 2.002    0.31320721150073
                0.5456    0.76037674173753
 p    1 1.00
                0.1517                   1
 d    1 1.00
                  0.55                   1

8 0
 s    3 1.00
                 13.01   0.033498726389998
                 1.962    0.23480080117413
                0.4446     0.8136829578829
 s    1 1.00
                 0.122                   1
 p    1 1.00
                 0.727                   1

9 0
 s    8 1.00
                  6665  0.00069158396281299
                  1000  0.0053257961529341
                   228   0.027060721042034
                 64.71    0.10165684614077
                 21.06     0.2745748236174
                 7.495    0.44829431892377
                 2.797    0.28490261071525
                0.5215   0.015194859206082
 s    8 1.00
                  6665  -0.00029326965268655
                  1000  -0.0023180354739745
                   228  -0.011499786038565
                 64.71  -0.046826727009787
                 21.06   -0.12846616875047
                 7.495   -0.30126627246289
                 2.797   -0.25563070233011
                0.5215      1.093793361012
 s    1 1.00
                0.1596                   1
 p    3 1.00
                 9.439   0.056979251590039
                 2.002    0.31320721150073
                0.5456    0.76037674173753
 p    1 1.00
                0.1517                   1
 d    1 1.00
                  0.55                   1

10 0
 s    3 1.00
                 13.01   0.033498726389998
                 1.962    0.23480080117413
                0.4446     0.8136829578829
 s    1 1.00
                 0.122                   1
 p    1 1.00
                 0.727                   1

11 0
 s    3 1.00
                 13.01   0.033498726389998
                 1.962    0.23480080117413
                0.4446     0.8136829578829
 s    1 1.00
                 0.122                   1
 p    1 1.00
                 0.727                   1

12 0
 s    3 1.00
                 13.01   0.033498726389998
                 1.962    0.23480080117413
                0.4446     0.8136829578829
 s    1 1.00
                 0.122                   1
 p    1 1.00
                 0.727                   1

13 0
 s    8 1.00
                  6665  0.00069158396281299
                  1000  0.0053257961529341
                   228   0.027060721042034
                 64.71    0.10165684614077
                 21.06     0.2745748236174
                 7.495    0.44829431892377
                 2.797    0.28490261071525
                0.5215   0.015194859206082
 s    8 1.00
                  6665  -0.00029326965268655
                  1000  -0.0023180354739745
                   228  -0.011499786038565
                 64.71  -0.046826727009787
                 21.06   -0.12846616875047
                 7.495   -0.30126627246289
                 2.797   -0.25563070233011
                0.5215      1.093793361012
 s    1 1.00
                0.1596                   1
 p    3 1.00
                 9.439   0.056979251590039
                 2.002    0.31320721150073
                0.5456    0.76037674173753
 p    1 1.00
                0.1517                   1
 d    1 1.00
                  0.55                   1

14 0
 s    3 1.00
                 13.01   0.033498726389998
                 1.962    0.23480080117413
                0.4446     0.8136829578829
 s    1 1.00
                 0.122                   1
 p    1 1.00
                 0.727                   1

15 0
 s    3 1.00
                 13.01   0.033498726389998
                 1.962    0.23480080117413
                0.4446     0.8136829578829
 s    1 1.00
                 0.122                   1
 p    1 1.00
                 0.727                   1

16 0
 s    8 1.00
                  6665  0.00069158396281299
                  1000  0.0053257961529341
                   228   0.027060721042034
                 64.71    0.10165684614077
                 21.06     0.2745748236174
                 7.495    0.44829431892377
                 2.797    0.28490261071525
                0.5215   0.015194859206082
 s    8 1.00
                  6665  -0.00029326965268655
                  1000  -0.0023180354739745
                   228  -0.011499786038565
                 64.71  -0.046826727009787
                 21.06   -0.12846616875047
                 7.495   -0.30126627246289
                 2.797   -0.25563070233011
                0.5215      1.093793361012
 s    1 1.00
                0.1596                   1
 p    3 1.00
                 9.439   0.056979251590039
                 2.002    0.31320721150073
                0.5456    0.76037674173753
 p    1 1.00
                0.1517                   1
 d    1 1.00
                  0.55                   1

17 0
 s    3 1.00
                 13.01   0.033498726389998
                 1.962    0.23480080117413
                0.4446     0.8136829578829
 s    1 1.00
                 0.122                   1
 p    1 1.00
                 0.727                   1

18 0
 s    3 1.00
                 13.01   0.033498726389998
                 1.962    0.23480080117413
                0.4446     0.8136829578829
 s    1 1.00
                 0.122                   1
 p    1 1.00
                 0.727                   1

19 0
 s    8 1.00
                  6665  0.00069158396281299
                  1000  0.0053257961529341
                   228   0.027060721042034
                 64.71    0.10165684614077
                 21.06     0.2745748236174
                 7.495    0.44829431892377
                 2.797    0.28490261071525
                0.5215   0.015194859206082
 s    8 1.00
                  6665  -0.00029326965268655
                  1000  -0.0023180354739745
                   228  -0.011499786038565
                 64.71  -0.046826727009787
                 21.06   -0.12846616875047
                 7.495   -0.30126627246289
                 2.797   -0.25563070233011
                0.5215      1.093793361012
 s    1 1.00
                0.1596                   1
 p    3 1.00
                 9.439   0.056979251590039
                 2.002    0.31320721150073
                0.5456    0.76037674173753
 p    1 1.00
                0.1517                   1
 d    1 1.00
                  0.55                   1

20 0
 s    3 1.00
                 13.01   0.033498726389998
                 1.962    0.23480080117413
                0.4446     0.8136829578829
 s    1 1.00
                 0.122                   1
 p    1 1.00
                 0.727                   1

21 0
 s    8 1.00
                  6665  0.00069158396281299
                  1000  0.0053257961529341
                   228   0.027060721042034
                 64.71    0.10165684614077
                 21.06     0.2745748236174
                 7.495    0.44829431892377
                 2.797    0.28490261071525
                0.5215   0.015194859206082
 s    8 1.00
                  6665  -0.00029326965268655
                  1000  -0.0023180354739745
                   228  -0.011499786038565
                 64.71  -0.046826727009787
                 21.06   -0.12846616875047
                 7.495   -0.30126627246289
                 2.797   -0.25563070233011
                0.5215      1.093793361012
 s    1 1.00
                0.1596                   1
 p    3 1.00
                 9.439   0.056979251590039
                 2.002    0.31320721150073
                0.5456    0.76037674173753
 p    1 1.00
                0.1517                   1
 d    1 1.00
                  0.55                   1

22 0
 s    3 1.00
                 13.01   0.033498726389998
                 1.962    0.23480080117413
                0.4446     0.8136829578829
 s    1 1.00
                 0.122                   1
 p    1 1.00
                 0.727                   1

23 0
 s    3 1.00
                 13.01   0.033498726389998
                 1.962    0.23480080117413
                0.4446     0.8136829578829
 s    1 1.00
                 0.122                   1
 p    1 1.00
                 0.727                   1

24 0
 s    3 1.00
                 13.01   0.033498726389998
                 1.962    0.23480080117413
                0.4446     0.8136829578829
 s    1 1.00
                 0.122                   1
 p    1 1.00
                 0.727                   1

25 0
 s    8 1.00
                  6665  0.00069158396281299
                  1000  0.0053257961529341
                   228   0.027060721042034
                 64.71    0.10165684614077
                 21.06     0.2745748236174
                 7.495    0.44829431892377
                 2.797    0.28490261071525
                0.5215   0.015194859206082
 s    8 1.00
                  6665  -0.00029326965268655
                  1000  -0.0023180354739745
                   228  -0.011499786038565
                 64.71  -0.046826727009787
                 21.06   -0.12846616875047
                 7.495   -0.30126627246289
                 2.797   -0.25563070233011
                0.5215      1.093793361012
 s    1 1.00
                0.1596                   1
 p    3 1.00
                 9.439   0.056979251590039
                 2.002    0.31320721150073
                0.5456    0.76037674173753
 p    1 1.00
                0.1517                   1
 d    1 1.00
                  0.55                   1

26 0
 s    3 1.00
                 13.01   0.033498726389998
                 1.962    0.23480080117413
                0.4446     0.8136829578829
 s    1 1.00
                 0.122                   1
 p    1 1.00
                 0.727                   1

27 0
 s    3 1.00
                 13.01   0.033498726389998
                 1.962    0.23480080117413
                0.4446     0.8136829578829
 s    1 1.00
                 0.122                   1
 p    1 1.00
                 0.727                   1

28 0
 s    8 1.00
                  6665  0.00069158396281299
                  1000  0.0053257961529341
                   228   0.027060721042034
                 64.71    0.10165684614077
                 21.06     0.2745748236174
                 7.495    0.44829431892377
                 2.797    0.28490261071525
                0.5215   0.015194859206082
 s    8 1.00
                  6665  -0.00029326965268655
                  1000  -0.0023180354739745
                   228  -0.011499786038565
                 64.71  -0.046826727009787
                 21.06   -0.12846616875047
                 7.495   -0.30126627246289
                 2.797   -0.25563070233011
                0.5215      1.093793361012
 s    1 1.00
                0.1596                   1
 p    3 1.00
                 9.439   0.056979251590039
                 2.002    0.31320721150073
                0.5456    0.76037674173753
 p    1 1.00
                0.1517                   1
 d    1 1.00
                  0.55                   1

29 0
 s    3 1.00
                 13.01   0.033498726389998
                 1.962    0.23480080117413
                0.4446     0.8136829578829
 s    1 1.00
                 0.122                   1
 p    1 1.00
                 0.727                   1

30 0
 s    3 1.00
                 13.01   0.033498726389998
                 1.962    0.23480080117413
                0.4446     0.8136829578829
 s    1 1.00
                 0.122                   1
 p    1 1.00
                 0.727                   1

31 0
 s    8 1.00
                  6665  0.00069158396281299
                  1000  0.0053257961529341
                   228   0.027060721042034
                 64.71    0.10165684614077
                 21.06     0.2745748236174
                 7.495    0.44829431892377
                 2.797    0.28490261071525
                0.5215   0.015194859206082
 s    8 1.00
                  6665  -0.00029326965268655
                  1000  -0.0023180354739745
                   228  -0.011499786038565
                 64.71  -0.046826727009787
                 21.06   -0.12846616875047
                 7.495   -0.30126627246289
                 2.797   -0.25563070233011
                0.5215      1.093793361012
 s    1 1.00
                0.1596                   1
 p    3 1.00
                 9.439   0.056979251590039
                 2.002    0.31320721150073
                0.5456    0.76037674173753
 p    1 1.00
                0.1517                   1
 d    1 1.00
                  0.55                   1

32 0
 s    3 1.00
                 13.01   0.033498726389998
                 1.962    0.23480080117413
                0.4446     0.8136829578829
 s    1 1.00
                 0.122                   1
 p    1 1.00
                 0.727                   1

33 0
 s    3 1.00
                 13.01   0.033498726389998
                 1.962    0.23480080117413
                0.4446     0.8136829578829
 s    1 1.00
                 0.122                   1
 p    1 1.00
                 0.727                   1

34 0
 s    3 1.00
                 13.01   0.033498726389998
                 1.962    0.23480080117413
                0.4446     0.8136829578829
 s    1 1.00
                 0.122                   1
 p    1 1.00
                 0.727                   1

35 0
 s    3 1.00
                 13.01   0.033498726389998
                 1.962    0.23480080117413
                0.4446     0.8136829578829
 s    1 1.00
                 0.122                   1
 p    1 1.00
                 0.727                   1

36 0
 s    3 1.00
                 13.01   0.033498726389998
                 1.962    0.23480080117413
                0.4446     0.8136829578829
 s    1 1.00
                 0.122                   1
 p    1 1.00
                 0.727                   1

37 0
 s    3 1.00
                 13.01   0.033498726389998
                 1.962    0.23480080117413
                0.4446     0.8136829578829
 s    1 1.00
                 0.122                   1
 p    1 1.00
                 0.727                   1

[5d]
[7f]
[9g]

[MO]
 Sym= A
 Ene=               0
 Spin= Alpha
 Occup=    1.00000
   1    -5.5768656143141e-06
   2    -2.2289548002536e-05
   3    5.0245029621031e-05
   4    -2.2133346481793e-05
   5    1.360238754564e-05
   6    -1.0544977854098e-05
   7    -1.4307549741584e-05
   8    4.9195050978384e-06
   9    -3.1372568147345e-05
  10    3.6640422874797e-06
  11    1.1521046854896e-06
  12    -7.6038629963342e-07
  13    -7.5371737658175e-07
  14    -3.1293743005939e-07
  15    4.0329904762103e-06
  16    -8.304114453097e-05
  17    3.8361564671017e-06
  18    -3.8414966982567e-06
  19    -1.4652327776514e-05
  20    6.1064646583399e-06
  21    -3.589482712669e-06
  22    -1.2148198787608e-06
  23    2.4315685798488e-06
  24    6.221170824763e-07
  25    5.098085503101e-06
  26    4.2885121510631e-05
  27    4.0649591996259e-05
  28    -9.7123752109624e-05
  29    -5.8285222502645e-06
  30    -2.7292173359432e-05
  31    -0.00014118279298844
  32     2.94111486744e-05
  33    -2.8914668678833e-05
  34    2.9008057582732e-06
  35    7.0325842900632e-06
  36    -4.2618666390016e-06
  37    -4.5169560608076e-06
  38    6.8220022187974e-06
  39    6.6230281780664e-05
  40    0.00024383997102751
  41    -0.00068547399402006
  42    -0.00017601635252993
  43    0.00015425455535357
  44    -0.00014534933225643
  45    0.0004064049939922
  46    -0.00027734336591991
  47    0.00029358118338469
  48    3.7543805078969e-05
  49    -2.8841953912164e-05
  50    9.0956687392933e-06
  51    -3.5164501770361e-05
  52    7.2387620432993e-05
  53    1.7043497815465e-05
  54    -4.088279243594e-05
  55    -0.000268471802128
  56    0.00010021787111556
  57    -7.6173134616996e-05
  58    -3.8912653918928e-05
  59    0.00012781212853111
  60    -0.00013311741150869
  61    -0.00021623921262536
  62    -1.4079107046909e-05
  63    1.5226075070624e-05
  64    -9.0087194707861e-06
  65    2.9643000316232e-06
  66    -1.545642652795e-05
  67    -0.00010581071036498
  68    -0.00051663305095061
  69    0.00035257117562075
  70    0.00056240341889889
  71    -0.00021899101294226
  72    -0.00046913761970853
  73    0.0012633458346531
  74    -0.00074194920925759
  75    0.00027028021595926
  76    -7.4056724610028e-05
  77    7.9822472505143e-05
  78    -3.0309045702609e-05
  79    3.9585143192408e-05
  80    -8.9144496173226e-05
  81    8.7023736780728e-05
  82    7.3403171851146e-05
  83    1.5187980015302e-05
  84    -8.8789194175944e-06
  85    -3.6676751132603e-06
  86    -5.6012934476655e-07
  87    -2.1169197284957e-05
  88    -5.570972925468e-05
  89    2.2503630014467e-05
  90    4.9761786734487e-06
  91    -5.5050157946364e-06
  92    7.7009175295817e-05
  93    5.1744220654146e-05
  94    8.3382214505992e-05
  95    -1.7305588192376e-06
  96    -2.0884219786596e-06
  97    4.5289465068256e-06
  98    -5.6664557566007e-07
  99    -3.8231575411953e-06
 100    -2.029325483947e-05
 101    -4.0747806520891e-05
 102    -6.3175975796627e-06
 103    -1.1574959067397e-06
 104    5.7240441703291e-06
 105    -4.8740710837787e-05
 106    1.3006562918167e-05
 107    -1.3946658133042e-05
 108    2.5812025575579e-05
 109    -3.3628533736792e-05
 110    -7.1888728992417e-05
 111    -2.3807723966619e-05
 112    -1.8320293925675e-05
 113    5.5338774300833e-06
 114    -3.6451588093763e-05
 115    0.0001643314949022
 116    0.0011738539829828
 117    0.0010439754622627
 118    -0.0013568113411511
 119    0.00093399273859863
 120    -0.00063934521033745
 121    -0.0013911018202854
 122    0.00074891783013028
 123    6.5698254560317e-06
 124    1.7318239496499e-05
 125    6.0615445816917e-05
 126    -7.4384772773172e-07
 127    -6.341605874365e-05
 128    9.3725151891936e-05
 129    -6.6311816203482e-06
 130    -3.1793434981312e-05
 131    -3.4148650771987e-06
 132    4.100258201522e-06
 133    -1.0763717048407e-06
 134    7.8791331576354e-06
 135    5.0849710608566e-05
 136    2.9103943720495e-06
 137    -3.6295339531271e-06
 138    -8.3546456451088e-07
 139    5.6379909133134e-06
 140    2.5226841225946e-06
 141    -3.1392966248654e-05
 142    -2.4384350352967e-06
 143    3.4607062906836e-06
 144    -4.7552634382307e-06
 145    -2.3371347822591e-05
 146    4.3499653865185e-06
 147    -5.690689431073e-05
 148    -1.0461543043539e-06
 149    1.0741528273064e-06
 150    -2.7330934798635e-06
 151    -2.8975570720651e-07
 152    2.5024477355469e-06
 153    0.00027219488914256
 154    0.00011548219869957
 155    -4.8014810473593e-05
 156    4.2510677090551e-06
 157    -6.9551776041392e-05
 158    0.00021817602809884
 159    1.4057784579668e-05
 160    -9.933341555018e-06
 161    5.8891524424572e-05
 162    -5.4774530396748e-05
 163    -0.00024201458215584
 164    -0.0015144924760657
 165    -0.0033985401346371
 166    0.0018727434043788
 167    -0.0010209300610966
 168    -0.00079281937749278
 169    0.0037997636640591
 170    -0.0021750377462268
 171    -0.0003836900807655
 172    -0.00059584568265406
 173    0.00048050808925562
 174    -7.0673855640426e-05
 175    0.00012205480599971
 176    -0.00049066744588285
 177    -5.2027666454677e-06
 178    3.2928776347144e-05
 179    -2.2121300241546e-06
 180    8.6890250759848e-09
 181    1.2249275813814e-06
 182    7.576225622569e-07
 183    3.8735615350623e-06
 184    2.3266478279008e-06
 185    -3.2712403723476e-06
 186    -4.857687963282e-06
 187    2.8133420597183e-06
 188    1.1184856073392e-05
 189    1.7119585848411e-08
 190    3.5841071888128e-06
 191    8.9067042083593e-07
 192    3.9144410077977e-07
 193    -7.7695992801048e-08
 194    8.2708123705591e-08
 195    -1.8946792454045e-06
 196    -1.3659128013675e-06
 197    -1.118420594887e-05
 198    -3.272829213835e-07
 199    -1.8728432011995e-06
 200    1.7478255297672e-06
 201    -0.00097287632904685
 202    -0.00065242292575427
 203    -3.5859966069881e-05
 204    -2.5941285347264e-05
 205    -0.00011137368043986
 206    -0.0013224671371259
 207    -0.0010597572190294
 208     2.91911436251e-05
 209    7.2112824355543e-05
 210    -0.00010073118113294
 211    0.00077573308078916
 212    0.0074568715957994
 213    0.0065690871137427
 214    -0.013621342351574
 215     0.012550708551061
 216    -0.012818197690213
 217    -0.0054341550641503
 218     0.005598622755547
 219    -0.0071373167629068
 220    -9.7081429703807e-05
 221    0.0013252919068119
 222    -0.00095601843066507
 223    0.00044487610305386
 224    -0.0014420850532176
 225    -9.3896342238096e-07
 226    -2.9522162939015e-06
 227    -5.3200269313444e-07
 228    -4.7504001163499e-07
 229    4.6770071944688e-07
 230    -2.6889916891029e-07
 231    -5.4999317355896e-06
 232    -3.5114671721472e-07
 233    -1.2603616848976e-07
 234    -9.7246748805613e-07
 235    7.1536208866319e-07
 236    1.0354988132902e-06
 237    -6.2691822727696e-06
 238    3.1443858055635e-08
 239    7.285832338739e-07
 240    7.7952390475122e-07
 241    5.6922053590079e-06
 242    -1.3742104124895e-06
 243    -5.5658752171048e-06
 244    2.9814884647515e-08
 245    7.1544074478733e-07
 246    -6.3509835958304e-07
 247    4.2818507886885e-07
 248    -1.6774464012443e-08
 249    -0.0027566350508825
 250    -0.002320804767108
 251    -0.00022726991774345
 252    0.00030500423253482
 253    -0.0001537240478828
 254    -0.0049297999630193
 255    -0.0032793869943092
 256    -0.00038689809671791
 257    2.9448275869902e-05
 258    -9.2742964978149e-05
 259       -1.001317920909
 260      0.00792900938117
 261     0.018097525579651
 262     0.013967837228357
 263    -0.010372998890189