[Molden Format]
made by pyscf v[2.0.1]
[Atoms] (AU)
O   1   8     0.00000000000000     0.00000000000000     9.42996968581551
H   2   1     0.00000000000000     0.00000000000000     7.60656786391454
H   3   1    -0.05031916615174     1.78353065140343     9.80584138228218
O   4   8     0.00000000000000     0.00000000000000     2.31533471513237
C   5   6     0.00000000000000     0.00000000000000     0.00000000000000
C   6   6     2.01118073026938    -1.40227222164369    -1.50774939176400
C   7   6    -2.01249334291722     1.41331050329955    -1.50315905028694
H   8   1     3.32037363730244    -2.26721897153159    -0.13599698591495
C   9   6     3.45899267434009     0.28739631745591    -3.37437943254505
H   10   1     1.07662969841332    -2.94725144642667    -2.56541439481080
H   11   1    -2.67503415753480     0.18421555839588    -3.06194479365997
H   12   1    -1.07974048864772     3.03851734677796    -2.43674295017013
C   13   6    -4.21607110578555     2.32938802552922     0.11994162256091
H   14   1     4.24440173074564     1.93368664142019    -2.34976285512790
H   15   1     2.15020713235517     1.04714335134846    -4.81494497423699
C   16   6     5.60746363007797    -1.12419643481196    -4.70268606082550
H   17   1    -3.46838323670267     3.50951302338067     1.66946842715333
H   18   1    -5.11873485366228     0.68575958301209     1.04047743976495
C   19   6    -6.18314754751344     3.80909592987882    -1.39656589068747
H   20   1     6.93011263717176    -1.87550812453645    -3.26656317360070
C   21   6     7.06356622236532     0.52877932406334    -6.57829775293605
H   22   1     4.82318879258361    -2.78573437948532    -5.70504560381835
H   23   1    -6.91582688743803     2.61304780074712    -2.95074552451969
H   24   1    -5.26532430573853     5.45420349051338    -2.31005832200284
C   25   6    -8.39941882261433     4.73263980500213     0.21800571437956
H   26   1     7.83338371486801     2.19084139882824    -5.57093109900697
H   27   1     5.73544244039420     1.27376866537418    -8.01071492370229
C   28   6     9.21124858443101    -0.89699110072176    -7.88926949186242
H   29   1    -7.66272760055236     5.92277078003992     1.77035591474408
H   30   1    -9.31497248082589     3.08753015622020     1.12614408368786
C   31   6   -10.35481709231879     6.21833079391143    -1.30905206253246
H   32   1    10.58815905329501    -1.61074586756696    -6.49512691622620
H   33   1    10.23506248045667     0.32468009384095    -9.23072870921204
H   34   1     8.47665842847139    -2.53598436989925    -8.94921964622535
H   35   1    -9.48948872868064     7.90013588951020    -2.18823918416067
H   36   1   -11.93332513000955     6.86460487874102    -0.11255798845995
H   37   1   -11.15126291841033     5.04495968327630    -2.83849898862534
[GTO]
1 0
 s    8 1.00
                 11720  0.00070964594651845
                  1759  0.0054672722921914
                 400.8   0.027823118610189
                 113.7    0.10474773971146
                 37.03    0.28292084635691
                 13.27    0.44849523869833
                 5.025    0.27081688521277
                 1.013    0.01545029160744
 s    8 1.00
                 11720  -0.00031444341168873
                  1759  -0.0024821376810179
                 400.8  -0.012316355381583
                 113.7  -0.050538917343672
                 37.03   -0.13938490331632
                 13.27   -0.32507749481778
                 5.025   -0.22984830758785
                 1.013     1.0953793467883
 s    1 1.00
                0.3023                   1
 p    3 1.00
                  17.7   0.062679166281506
                 3.854    0.33353656587936
                 1.046    0.74123964163973
 p    1 1.00
                0.2753                   1
 d    1 1.00
                 1.185                   1

2 0
 s    3 1.00
                 13.01   0.033498726389998
                 1.962    0.23480080117413
                0.4446     0.8136829578829
 s    1 1.00
                 0.122                   1
 p    1 1.00
                 0.727                   1

3 0
 s    3 1.00
                 13.01   0.033498726389998
                 1.962    0.23480080117413
                0.4446     0.8136829578829
 s    1 1.00
                 0.122                   1
 p    1 1.00
                 0.727                   1

4 0
 s    8 1.00
                 11720  0.00070964594651845
                  1759  0.0054672722921914
                 400.8   0.027823118610189
                 113.7    0.10474773971146
                 37.03    0.28292084635691
                 13.27    0.44849523869833
                 5.025    0.27081688521277
                 1.013    0.01545029160744
 s    8 1.00
                 11720  -0.00031444341168873
                  1759  -0.0024821376810179
                 400.8  -0.012316355381583
                 113.7  -0.050538917343672
                 37.03   -0.13938490331632
                 13.27   -0.32507749481778
                 5.025   -0.22984830758785
                 1.013     1.0953793467883
 s    1 1.00
                0.3023                   1
 p    3 1.00
                  17.7   0.062679166281506
                 3.854    0.33353656587936
                 1.046    0.74123964163973
 p    1 1.00
                0.2753                   1
 d    1 1.00
                 1.185                   1

5 0
 s    8 1.00
                  6665  0.00069158396281299
                  1000  0.0053257961529341
                   228   0.027060721042034
                 64.71    0.10165684614077
                 21.06     0.2745748236174
                 7.495    0.44829431892377
                 2.797    0.28490261071525
                0.5215   0.015194859206082
 s    8 1.00
                  6665  -0.00029326965268655
                  1000  -0.0023180354739745
                   228  -0.011499786038565
                 64.71  -0.046826727009787
                 21.06   -0.12846616875047
                 7.495   -0.30126627246289
                 2.797   -0.25563070233011
                0.5215      1.093793361012
 s    1 1.00
                0.1596                   1
 p    3 1.00
                 9.439   0.056979251590039
                 2.002    0.31320721150073
                0.5456    0.76037674173753
 p    1 1.00
                0.1517                   1
 d    1 1.00
                  0.55                   1

6 0
 s    8 1.00
                  6665  0.00069158396281299
                  1000  0.0053257961529341
                   228   0.027060721042034
                 64.71    0.10165684614077
                 21.06     0.2745748236174
                 7.495    0.44829431892377
                 2.797    0.28490261071525
                0.5215   0.015194859206082
 s    8 1.00
                  6665  -0.00029326965268655
                  1000  -0.0023180354739745
                   228  -0.011499786038565
                 64.71  -0.046826727009787
                 21.06   -0.12846616875047
                 7.495   -0.30126627246289
                 2.797   -0.25563070233011
                0.5215      1.093793361012
 s    1 1.00
                0.1596                   1
 p    3 1.00
                 9.439   0.056979251590039
                 2.002    0.31320721150073
                0.5456    0.76037674173753
 p    1 1.00
                0.1517                   1
 d    1 1.00
                  0.55                   1

7 0
 s    8 1.00
                  6665  0.00069158396281299
                  1000  0.0053257961529341
                   228   0.027060721042034
                 64.71    0.10165684614077
                 21.06     0.2745748236174
                 7.495    0.44829431892377
                 2.797    0.28490261071525
                0.5215   0.015194859206082
 s    8 1.00
                  6665  -0.00029326965268655
                  1000  -0.0023180354739745
                   228  -0.011499786038565
                 64.71  -0.046826727009787
                 21.06   -0.12846616875047
                 7.495   -0.30126627246289
                 2.797   -0.25563070233011
                0.5215      1.093793361012
 s    1 1.00
                0.1596                   1
 p    3 1.00
                 9.439   0.056979251590039
                 2.002    0.31320721150073
                0.5456    0.76037674173753
 p    1 1.00
                0.1517                   1
 d    1 1.00
                  0.55                   1

8 0
 s    3 1.00
                 13.01   0.033498726389998
                 1.962    0.23480080117413
                0.4446     0.8136829578829
 s    1 1.00
                 0.122                   1
 p    1 1.00
                 0.727                   1

9 0
 s    8 1.00
                  6665  0.00069158396281299
                  1000  0.0053257961529341
                   228   0.027060721042034
                 64.71    0.10165684614077
                 21.06     0.2745748236174
                 7.495    0.44829431892377
                 2.797    0.28490261071525
                0.5215   0.015194859206082
 s    8 1.00
                  6665  -0.00029326965268655
                  1000  -0.0023180354739745
                   228  -0.011499786038565
                 64.71  -0.046826727009787
                 21.06   -0.12846616875047
                 7.495   -0.30126627246289
                 2.797   -0.25563070233011
                0.5215      1.093793361012
 s    1 1.00
                0.1596                   1
 p    3 1.00
                 9.439   0.056979251590039
                 2.002    0.31320721150073
                0.5456    0.76037674173753
 p    1 1.00
                0.1517                   1
 d    1 1.00
                  0.55                   1

10 0
 s    3 1.00
                 13.01   0.033498726389998
                 1.962    0.23480080117413
                0.4446     0.8136829578829
 s    1 1.00
                 0.122                   1
 p    1 1.00
                 0.727                   1

11 0
 s    3 1.00
                 13.01   0.033498726389998
                 1.962    0.23480080117413
                0.4446     0.8136829578829
 s    1 1.00
                 0.122                   1
 p    1 1.00
                 0.727                   1

12 0
 s    3 1.00
                 13.01   0.033498726389998
                 1.962    0.23480080117413
                0.4446     0.8136829578829
 s    1 1.00
                 0.122                   1
 p    1 1.00
                 0.727                   1

13 0
 s    8 1.00
                  6665  0.00069158396281299
                  1000  0.0053257961529341
                   228   0.027060721042034
                 64.71    0.10165684614077
                 21.06     0.2745748236174
                 7.495    0.44829431892377
                 2.797    0.28490261071525
                0.5215   0.015194859206082
 s    8 1.00
                  6665  -0.00029326965268655
                  1000  -0.0023180354739745
                   228  -0.011499786038565
                 64.71  -0.046826727009787
                 21.06   -0.12846616875047
                 7.495   -0.30126627246289
                 2.797   -0.25563070233011
                0.5215      1.093793361012
 s    1 1.00
                0.1596                   1
 p    3 1.00
                 9.439   0.056979251590039
                 2.002    0.31320721150073
                0.5456    0.76037674173753
 p    1 1.00
                0.1517                   1
 d    1 1.00
                  0.55                   1

14 0
 s    3 1.00
                 13.01   0.033498726389998
                 1.962    0.23480080117413
                0.4446     0.8136829578829
 s    1 1.00
                 0.122                   1
 p    1 1.00
                 0.727                   1

15 0
 s    3 1.00
                 13.01   0.033498726389998
                 1.962    0.23480080117413
                0.4446     0.8136829578829
 s    1 1.00
                 0.122                   1
 p    1 1.00
                 0.727                   1

16 0
 s    8 1.00
                  6665  0.00069158396281299
                  1000  0.0053257961529341
                   228   0.027060721042034
                 64.71    0.10165684614077
                 21.06     0.2745748236174
                 7.495    0.44829431892377
                 2.797    0.28490261071525
                0.5215   0.015194859206082
 s    8 1.00
                  6665  -0.00029326965268655
                  1000  -0.0023180354739745
                   228  -0.011499786038565
                 64.71  -0.046826727009787
                 21.06   -0.12846616875047
                 7.495   -0.30126627246289
                 2.797   -0.25563070233011
                0.5215      1.093793361012
 s    1 1.00
                0.1596                   1
 p    3 1.00
                 9.439   0.056979251590039
                 2.002    0.31320721150073
                0.5456    0.76037674173753
 p    1 1.00
                0.1517                   1
 d    1 1.00
                  0.55                   1

17 0
 s    3 1.00
                 13.01   0.033498726389998
                 1.962    0.23480080117413
                0.4446     0.8136829578829
 s    1 1.00
                 0.122                   1
 p    1 1.00
                 0.727                   1

18 0
 s    3 1.00
                 13.01   0.033498726389998
                 1.962    0.23480080117413
                0.4446     0.8136829578829
 s    1 1.00
                 0.122                   1
 p    1 1.00
                 0.727                   1

19 0
 s    8 1.00
                  6665  0.00069158396281299
                  1000  0.0053257961529341
                   228   0.027060721042034
                 64.71    0.10165684614077
                 21.06     0.2745748236174
                 7.495    0.44829431892377
                 2.797    0.28490261071525
                0.5215   0.015194859206082
 s    8 1.00
                  6665  -0.00029326965268655
                  1000  -0.0023180354739745
                   228  -0.011499786038565
                 64.71  -0.046826727009787
                 21.06   -0.12846616875047
                 7.495   -0.30126627246289
                 2.797   -0.25563070233011
                0.5215      1.093793361012
 s    1 1.00
                0.1596                   1
 p    3 1.00
                 9.439   0.056979251590039
                 2.002    0.31320721150073
                0.5456    0.76037674173753
 p    1 1.00
                0.1517                   1
 d    1 1.00
                  0.55                   1

20 0
 s    3 1.00
                 13.01   0.033498726389998
                 1.962    0.23480080117413
                0.4446     0.8136829578829
 s    1 1.00
                 0.122                   1
 p    1 1.00
                 0.727                   1

21 0
 s    8 1.00
                  6665  0.00069158396281299
                  1000  0.0053257961529341
                   228   0.027060721042034
                 64.71    0.10165684614077
                 21.06     0.2745748236174
                 7.495    0.44829431892377
                 2.797    0.28490261071525
                0.5215   0.015194859206082
 s    8 1.00
                  6665  -0.00029326965268655
                  1000  -0.0023180354739745
                   228  -0.011499786038565
                 64.71  -0.046826727009787
                 21.06   -0.12846616875047
                 7.495   -0.30126627246289
                 2.797   -0.25563070233011
                0.5215      1.093793361012
 s    1 1.00
                0.1596                   1
 p    3 1.00
                 9.439   0.056979251590039
                 2.002    0.31320721150073
                0.5456    0.76037674173753
 p    1 1.00
                0.1517                   1
 d    1 1.00
                  0.55                   1

22 0
 s    3 1.00
                 13.01   0.033498726389998
                 1.962    0.23480080117413
                0.4446     0.8136829578829
 s    1 1.00
                 0.122                   1
 p    1 1.00
                 0.727                   1

23 0
 s    3 1.00
                 13.01   0.033498726389998
                 1.962    0.23480080117413
                0.4446     0.8136829578829
 s    1 1.00
                 0.122                   1
 p    1 1.00
                 0.727                   1

24 0
 s    3 1.00
                 13.01   0.033498726389998
                 1.962    0.23480080117413
                0.4446     0.8136829578829
 s    1 1.00
                 0.122                   1
 p    1 1.00
                 0.727                   1

25 0
 s    8 1.00
                  6665  0.00069158396281299
                  1000  0.0053257961529341
                   228   0.027060721042034
                 64.71    0.10165684614077
                 21.06     0.2745748236174
                 7.495    0.44829431892377
                 2.797    0.28490261071525
                0.5215   0.015194859206082
 s    8 1.00
                  6665  -0.00029326965268655
                  1000  -0.0023180354739745
                   228  -0.011499786038565
                 64.71  -0.046826727009787
                 21.06   -0.12846616875047
                 7.495   -0.30126627246289
                 2.797   -0.25563070233011
                0.5215      1.093793361012
 s    1 1.00
                0.1596                   1
 p    3 1.00
                 9.439   0.056979251590039
                 2.002    0.31320721150073
                0.5456    0.76037674173753
 p    1 1.00
                0.1517                   1
 d    1 1.00
                  0.55                   1

26 0
 s    3 1.00
                 13.01   0.033498726389998
                 1.962    0.23480080117413
                0.4446     0.8136829578829
 s    1 1.00
                 0.122                   1
 p    1 1.00
                 0.727                   1

27 0
 s    3 1.00
                 13.01   0.033498726389998
                 1.962    0.23480080117413
                0.4446     0.8136829578829
 s    1 1.00
                 0.122                   1
 p    1 1.00
                 0.727                   1

28 0
 s    8 1.00
                  6665  0.00069158396281299
                  1000  0.0053257961529341
                   228   0.027060721042034
                 64.71    0.10165684614077
                 21.06     0.2745748236174
                 7.495    0.44829431892377
                 2.797    0.28490261071525
                0.5215   0.015194859206082
 s    8 1.00
                  6665  -0.00029326965268655
                  1000  -0.0023180354739745
                   228  -0.011499786038565
                 64.71  -0.046826727009787
                 21.06   -0.12846616875047
                 7.495   -0.30126627246289
                 2.797   -0.25563070233011
                0.5215      1.093793361012
 s    1 1.00
                0.1596                   1
 p    3 1.00
                 9.439   0.056979251590039
                 2.002    0.31320721150073
                0.5456    0.76037674173753
 p    1 1.00
                0.1517                   1
 d    1 1.00
                  0.55                   1

29 0
 s    3 1.00
                 13.01   0.033498726389998
                 1.962    0.23480080117413
                0.4446     0.8136829578829
 s    1 1.00
                 0.122                   1
 p    1 1.00
                 0.727                   1

30 0
 s    3 1.00
                 13.01   0.033498726389998
                 1.962    0.23480080117413
                0.4446     0.8136829578829
 s    1 1.00
                 0.122                   1
 p    1 1.00
                 0.727                   1

31 0
 s    8 1.00
                  6665  0.00069158396281299
                  1000  0.0053257961529341
                   228   0.027060721042034
                 64.71    0.10165684614077
                 21.06     0.2745748236174
                 7.495    0.44829431892377
                 2.797    0.28490261071525
                0.5215   0.015194859206082
 s    8 1.00
                  6665  -0.00029326965268655
                  1000  -0.0023180354739745
                   228  -0.011499786038565
                 64.71  -0.046826727009787
                 21.06   -0.12846616875047
                 7.495   -0.30126627246289
                 2.797   -0.25563070233011
                0.5215      1.093793361012
 s    1 1.00
                0.1596                   1
 p    3 1.00
                 9.439   0.056979251590039
                 2.002    0.31320721150073
                0.5456    0.76037674173753
 p    1 1.00
                0.1517                   1
 d    1 1.00
                  0.55                   1

32 0
 s    3 1.00
                 13.01   0.033498726389998
                 1.962    0.23480080117413
                0.4446     0.8136829578829
 s    1 1.00
                 0.122                   1
 p    1 1.00
                 0.727                   1

33 0
 s    3 1.00
                 13.01   0.033498726389998
                 1.962    0.23480080117413
                0.4446     0.8136829578829
 s    1 1.00
                 0.122                   1
 p    1 1.00
                 0.727                   1

34 0
 s    3 1.00
                 13.01   0.033498726389998
                 1.962    0.23480080117413
                0.4446     0.8136829578829
 s    1 1.00
                 0.122                   1
 p    1 1.00
                 0.727                   1

35 0
 s    3 1.00
                 13.01   0.033498726389998
                 1.962    0.23480080117413
                0.4446     0.8136829578829
 s    1 1.00
                 0.122                   1
 p    1 1.00
                 0.727                   1

36 0
 s    3 1.00
                 13.01   0.033498726389998
                 1.962    0.23480080117413
                0.4446     0.8136829578829
 s    1 1.00
                 0.122                   1
 p    1 1.00
                 0.727                   1

37 0
 s    3 1.00
                 13.01   0.033498726389998
                 1.962    0.23480080117413
                0.4446     0.8136829578829
 s    1 1.00
                 0.122                   1
 p    1 1.00
                 0.727                   1

[5d]
[7f]
[9g]

[MO]
 Sym= A
 Ene=               0
 Spin= Alpha
 Occup=    1.00000
   1    -5.8437000986697e-07
   2    -3.5857057334229e-06
   3    7.3918569473747e-06
   4    -1.6211962278818e-06
   5    1.7367812050511e-06
   6    -2.7235424625149e-06
   7    -1.0691900355091e-06
   8     7.73579529703e-07
   9    -6.6000107304822e-06
  10    5.5129254189797e-07
  11    2.8350237273074e-08
  12    -7.9647850806548e-08
  13    -1.1021962017688e-07
  14    -3.4959823535732e-08
  15    1.2782021071014e-06
  16    -1.6063029063292e-05
  17    -9.2488079305133e-08
  18    -2.424524376528e-08
  19    -2.7383508808883e-06
  20    -2.3869286406396e-08
  21    1.3056967522568e-06
  22    -1.1682884463567e-07
  23    4.766728048228e-07
  24    1.2817255264131e-07
  25    2.6213088452636e-06
  26    4.3864769045174e-05
  27    6.6343256478848e-05
  28    -9.9958659439066e-05
  29    -3.6618937512455e-06
  30    -1.8638461008454e-05
  31    -0.00013899671551989
  32    3.0180852119592e-05
  33    -4.9582474196802e-05
  34    5.5341055224527e-06
  35    7.6298543368721e-06
  36    -3.9725336180981e-06
  37    -4.403359535998e-06
  38    6.6510246020111e-06
  39    6.2980155155699e-05
  40    0.00023321452492623
  41    -0.00070124845451116
  42    -0.00017486756220178
  43    0.00014615059427106
  44    -0.00014762154907486
  45    0.00038788989168987
  46    -0.00027256817664017
  47    0.00024563083834569
  48    3.2263098972896e-05
  49    -2.8980081622154e-05
  50    8.8115658026641e-06
  51    -3.4082953330635e-05
  52    7.0659419015213e-05
  53    1.6185721422406e-05
  54    -4.1744350310025e-05
  55    -0.00026535089343226
  56    9.884161003837e-05
  57    -7.4537816970741e-05
  58    -3.9240244712254e-05
  59    0.00013482325938064
  60    -0.00013442354946202
  61    -0.00019366306348699
  62    -1.2873927424481e-05
  63    1.4941374234421e-05
  64    -8.9861004524106e-06
  65    3.1322194004522e-06
  66    -1.5276289889736e-05
  67    -0.00010543560881813
  68    -0.00051285332601343
  69    0.00035465156313109
  70    0.00056294245706207
  71    -0.0002200020395528
  72    -0.00046469885636589
  73     0.001239644113892
  74    -0.00072817672795532
  75    0.00028939221849016
  76    -7.1578939312973e-05
  77    7.8859775932305e-05
  78    -3.0320127745064e-05
  79    3.8145495276645e-05
  80    -8.6810401829031e-05
  81    8.3529273441435e-05
  82    6.3110210921386e-05
  83    1.5210202960522e-05
  84    -8.9754238964338e-06
  85    -2.8693842662473e-06
  86    -5.1599001203692e-07
  87    -2.0542190974569e-05
  88    -5.0826214906117e-05
  89    2.2014079041242e-05
  90    4.5181012282038e-06
  91    -4.4714870583257e-06
  92    7.2868786456315e-05
  93    4.2410819173969e-05
  94    7.8541564535821e-05
  95    -2.067742105318e-06
  96    -2.2322771429728e-06
  97    4.4309653482958e-06
  98    -5.8923765739101e-07
  99    -3.2160349836136e-06
 100    -2.0172665079975e-05
 101    -3.778582485754e-05
 102    -6.0769217657052e-06
 103    -7.9629170253735e-07
 104    4.6641337180668e-06
 105    -4.6808285613078e-05
 106    1.8841110175382e-05
 107    -1.3404174347067e-05
 108    2.5951857501063e-05
 109    -3.4072266172141e-05
 110    -6.8751104680416e-05
 111    -1.7468613583262e-05
 112    -1.8141115460111e-05
 113    5.1333487674099e-06
 114    -3.7077894110849e-05
 115    0.0001618548523609
 116    0.0011627810085661
 117    0.0010075485946556
 118    -0.001361478114967
 119    0.00093486624649533
 120    -0.00063223178418689
 121    -0.0013965330825998
 122    0.00074782711672063
 123    4.0102807845506e-05
 124    1.5776904983775e-05
 125    6.1824545665147e-05
 126    -8.7780646788828e-07
 127    -6.188018038718e-05
 128    9.0990773586742e-05
 129    -5.6318532467512e-06
 130    -2.6671910766639e-05
 131    -3.4324098099239e-06
 132    3.9981683452907e-06
 133    -1.1846900284341e-06
 134    7.1676431435107e-06
 135    5.2217781208662e-05
 136    2.8002944109705e-06
 137    -3.3586624794887e-06
 138    -2.1209947287048e-08
 139    6.0363390752282e-06
 140    3.2122057720979e-06
 141    -3.8147095578809e-05
 142    -2.2948333318262e-06
 143    3.3700491789918e-06
 144    -5.0759264911726e-06
 145    -2.05453296451e-05
 146    3.5444819624854e-06
 147    -5.4453089339342e-05
 148    -9.3296636851202e-07
 149    9.5930229367709e-07
 150    -2.5005658826738e-06
 151    -5.2783185273498e-07
 152    2.5821673525025e-06
 153    0.00026928025823512
 154    9.6243307911661e-05
 155    -4.7466490391764e-05
 156    5.4065435757155e-06
 157    -6.8536897953878e-05
 158    0.00021540649480349
 159    1.7207455844256e-06
 160    -1.041896257728e-05
 161    5.8184807347517e-05
 162    -5.4801741212812e-05
 163    -0.00024251762562032
 164    -0.001509060893355
 165    -0.003356965046083
 166    0.0018789836786845
 167    -0.0010282218112306
 168    -0.00078263539628432
 169    0.0038051258906057
 170    -0.0021892081391874
 171    -0.00034681718190919
 172    -0.00059244418078592
 173    0.0004797183100312
 174    -7.0708678503984e-05
 175    0.00012037516875509
 176    -0.00048750288312563
 177    -5.4323694041302e-06
 178    3.2690270734551e-05
 179    -2.3428889094624e-06
 180    -2.1322075355755e-10
 181    1.1468224613279e-06
 182    4.855745512381e-07
 183    3.5656169771795e-06
 184    6.3404615608936e-06
 185    -3.4529875772075e-06
 186    -4.9786095439196e-06
 187    3.0809593250941e-06
 188    9.444519750553e-06
 189    -6.5214371523931e-07
 190    3.5939353864153e-06
 191    7.9694776047116e-07
 192    3.5173752168122e-07
 193    -5.7967805696459e-08
 194    9.5427898323563e-08
 195    -1.7617345327207e-06
 196    -8.9685593017187e-07
 197    -9.8116929353284e-06
 198    -3.474371287936e-07
 199    -1.8198195086502e-06
 200    1.6690928546122e-06
 201    -0.00097006575651816
 202    -0.00064232074650555
 203    -3.4982552038473e-05
 204    -2.5878972100144e-05
 205    -0.00011165841684082
 206    -0.0013209618059113
 207    -0.0010486005540169
 208    2.9840321288888e-05
 209    7.1408301725378e-05
 210    -0.00010128267444224
 211    0.00077558250325512
 212    0.0074535940219489
 213     0.006539070997064
 214    -0.013632841321006
 215      0.01256022160603
 216    -0.012809407802277
 217    -0.0054443207223183
 218    0.0055981670551395
 219    -0.0071156573252851
 220    -0.00010280116726414
 221    0.0013264294250537
 222    -0.00095490732880372
 223    0.00044708749464661
 224    -0.0014469655695275
 225    -9.8846971318801e-07
 226    -2.8584131212532e-06
 227    -4.7560577296149e-07
 228    -4.5804744954366e-07
 229    5.0647475801314e-07
 230    -4.4846582985978e-07
 231    -6.9582071823973e-06
 232    -3.7318845758357e-07
 233    -9.5593096267307e-08
 234    -1.0675594734706e-06
 235    7.6326908008235e-07
 236    1.085343695714e-06
 237    -6.791744951996e-06
 238    1.8809077282059e-07
 239    6.7097608219567e-07
 240    6.6279211813492e-07
 241    6.118898935301e-06
 242    -1.198677917275e-06
 243    -5.7867629277117e-06
 244    4.9022748329522e-08
 245    7.0671317581192e-07
 246    -6.1482584935479e-07
 247    3.7383161128043e-07
 248    4.8519764517306e-08
 249    -0.0027593306622601
 250    -0.0023372221470982
 251    -0.00022721983938285
 252    0.00030547749369425
 253    -0.00015515894938907
 254    -0.0049420597141696
 255    -0.0033104376937679
 256    -0.00038709675559145
 257    2.9232290482643e-05
 258    -9.4139969064804e-05
 259      -1.0013157750873
 260    0.0079532055973945
 261     0.018150719208363
 262     0.013991411309857
 263    -0.010389913001567