[Molden Format]
made by pyscf v[2.0.1]
[Atoms] (AU)
O   1   8     0.00000000000000     0.00000000000000     7.54024356125045
H   2   1     0.00000000000000     0.00000000000000     5.71684173934948
H   3   1    -0.05031916615174     1.78353065140343     7.91611525771711
O   4   8     0.00000000000000     0.00000000000000     2.31533471513237
C   5   6     0.00000000000000     0.00000000000000     0.00000000000000
C   6   6     2.01118073026938    -1.40227222164369    -1.50774939176400
C   7   6    -2.01249334291722     1.41331050329955    -1.50315905028694
H   8   1     3.32037363730244    -2.26721897153159    -0.13599698591495
C   9   6     3.45899267434009     0.28739631745591    -3.37437943254505
H   10   1     1.07662969841332    -2.94725144642667    -2.56541439481080
H   11   1    -2.67503415753480     0.18421555839588    -3.06194479365997
H   12   1    -1.07974048864772     3.03851734677796    -2.43674295017013
C   13   6    -4.21607110578555     2.32938802552922     0.11994162256091
H   14   1     4.24440173074564     1.93368664142019    -2.34976285512790
H   15   1     2.15020713235517     1.04714335134846    -4.81494497423699
C   16   6     5.60746363007797    -1.12419643481196    -4.70268606082550
H   17   1    -3.46838323670267     3.50951302338067     1.66946842715333
H   18   1    -5.11873485366228     0.68575958301209     1.04047743976495
C   19   6    -6.18314754751344     3.80909592987882    -1.39656589068747
H   20   1     6.93011263717176    -1.87550812453645    -3.26656317360070
C   21   6     7.06356622236532     0.52877932406334    -6.57829775293605
H   22   1     4.82318879258361    -2.78573437948532    -5.70504560381835
H   23   1    -6.91582688743803     2.61304780074712    -2.95074552451969
H   24   1    -5.26532430573853     5.45420349051338    -2.31005832200284
C   25   6    -8.39941882261433     4.73263980500213     0.21800571437956
H   26   1     7.83338371486801     2.19084139882824    -5.57093109900697
H   27   1     5.73544244039420     1.27376866537418    -8.01071492370229
C   28   6     9.21124858443101    -0.89699110072176    -7.88926949186242
H   29   1    -7.66272760055236     5.92277078003992     1.77035591474408
H   30   1    -9.31497248082589     3.08753015622020     1.12614408368786
C   31   6   -10.35481709231879     6.21833079391143    -1.30905206253246
H   32   1    10.58815905329501    -1.61074586756696    -6.49512691622620
H   33   1    10.23506248045667     0.32468009384095    -9.23072870921204
H   34   1     8.47665842847139    -2.53598436989925    -8.94921964622535
H   35   1    -9.48948872868064     7.90013588951020    -2.18823918416067
H   36   1   -11.93332513000955     6.86460487874102    -0.11255798845995
H   37   1   -11.15126291841033     5.04495968327630    -2.83849898862534
[GTO]
1 0
 s    8 1.00
                 11720  0.00070964594651845
                  1759  0.0054672722921914
                 400.8   0.027823118610189
                 113.7    0.10474773971146
                 37.03    0.28292084635691
                 13.27    0.44849523869833
                 5.025    0.27081688521277
                 1.013    0.01545029160744
 s    8 1.00
                 11720  -0.00031444341168873
                  1759  -0.0024821376810179
                 400.8  -0.012316355381583
                 113.7  -0.050538917343672
                 37.03   -0.13938490331632
                 13.27   -0.32507749481778
                 5.025   -0.22984830758785
                 1.013     1.0953793467883
 s    1 1.00
                0.3023                   1
 p    3 1.00
                  17.7   0.062679166281506
                 3.854    0.33353656587936
                 1.046    0.74123964163973
 p    1 1.00
                0.2753                   1
 d    1 1.00
                 1.185                   1

2 0
 s    3 1.00
                 13.01   0.033498726389998
                 1.962    0.23480080117413
                0.4446     0.8136829578829
 s    1 1.00
                 0.122                   1
 p    1 1.00
                 0.727                   1

3 0
 s    3 1.00
                 13.01   0.033498726389998
                 1.962    0.23480080117413
                0.4446     0.8136829578829
 s    1 1.00
                 0.122                   1
 p    1 1.00
                 0.727                   1

4 0
 s    8 1.00
                 11720  0.00070964594651845
                  1759  0.0054672722921914
                 400.8   0.027823118610189
                 113.7    0.10474773971146
                 37.03    0.28292084635691
                 13.27    0.44849523869833
                 5.025    0.27081688521277
                 1.013    0.01545029160744
 s    8 1.00
                 11720  -0.00031444341168873
                  1759  -0.0024821376810179
                 400.8  -0.012316355381583
                 113.7  -0.050538917343672
                 37.03   -0.13938490331632
                 13.27   -0.32507749481778
                 5.025   -0.22984830758785
                 1.013     1.0953793467883
 s    1 1.00
                0.3023                   1
 p    3 1.00
                  17.7   0.062679166281506
                 3.854    0.33353656587936
                 1.046    0.74123964163973
 p    1 1.00
                0.2753                   1
 d    1 1.00
                 1.185                   1

5 0
 s    8 1.00
                  6665  0.00069158396281299
                  1000  0.0053257961529341
                   228   0.027060721042034
                 64.71    0.10165684614077
                 21.06     0.2745748236174
                 7.495    0.44829431892377
                 2.797    0.28490261071525
                0.5215   0.015194859206082
 s    8 1.00
                  6665  -0.00029326965268655
                  1000  -0.0023180354739745
                   228  -0.011499786038565
                 64.71  -0.046826727009787
                 21.06   -0.12846616875047
                 7.495   -0.30126627246289
                 2.797   -0.25563070233011
                0.5215      1.093793361012
 s    1 1.00
                0.1596                   1
 p    3 1.00
                 9.439   0.056979251590039
                 2.002    0.31320721150073
                0.5456    0.76037674173753
 p    1 1.00
                0.1517                   1
 d    1 1.00
                  0.55                   1

6 0
 s    8 1.00
                  6665  0.00069158396281299
                  1000  0.0053257961529341
                   228   0.027060721042034
                 64.71    0.10165684614077
                 21.06     0.2745748236174
                 7.495    0.44829431892377
                 2.797    0.28490261071525
                0.5215   0.015194859206082
 s    8 1.00
                  6665  -0.00029326965268655
                  1000  -0.0023180354739745
                   228  -0.011499786038565
                 64.71  -0.046826727009787
                 21.06   -0.12846616875047
                 7.495   -0.30126627246289
                 2.797   -0.25563070233011
                0.5215      1.093793361012
 s    1 1.00
                0.1596                   1
 p    3 1.00
                 9.439   0.056979251590039
                 2.002    0.31320721150073
                0.5456    0.76037674173753
 p    1 1.00
                0.1517                   1
 d    1 1.00
                  0.55                   1

7 0
 s    8 1.00
                  6665  0.00069158396281299
                  1000  0.0053257961529341
                   228   0.027060721042034
                 64.71    0.10165684614077
                 21.06     0.2745748236174
                 7.495    0.44829431892377
                 2.797    0.28490261071525
                0.5215   0.015194859206082
 s    8 1.00
                  6665  -0.00029326965268655
                  1000  -0.0023180354739745
                   228  -0.011499786038565
                 64.71  -0.046826727009787
                 21.06   -0.12846616875047
                 7.495   -0.30126627246289
                 2.797   -0.25563070233011
                0.5215      1.093793361012
 s    1 1.00
                0.1596                   1
 p    3 1.00
                 9.439   0.056979251590039
                 2.002    0.31320721150073
                0.5456    0.76037674173753
 p    1 1.00
                0.1517                   1
 d    1 1.00
                  0.55                   1

8 0
 s    3 1.00
                 13.01   0.033498726389998
                 1.962    0.23480080117413
                0.4446     0.8136829578829
 s    1 1.00
                 0.122                   1
 p    1 1.00
                 0.727                   1

9 0
 s    8 1.00
                  6665  0.00069158396281299
                  1000  0.0053257961529341
                   228   0.027060721042034
                 64.71    0.10165684614077
                 21.06     0.2745748236174
                 7.495    0.44829431892377
                 2.797    0.28490261071525
                0.5215   0.015194859206082
 s    8 1.00
                  6665  -0.00029326965268655
                  1000  -0.0023180354739745
                   228  -0.011499786038565
                 64.71  -0.046826727009787
                 21.06   -0.12846616875047
                 7.495   -0.30126627246289
                 2.797   -0.25563070233011
                0.5215      1.093793361012
 s    1 1.00
                0.1596                   1
 p    3 1.00
                 9.439   0.056979251590039
                 2.002    0.31320721150073
                0.5456    0.76037674173753
 p    1 1.00
                0.1517                   1
 d    1 1.00
                  0.55                   1

10 0
 s    3 1.00
                 13.01   0.033498726389998
                 1.962    0.23480080117413
                0.4446     0.8136829578829
 s    1 1.00
                 0.122                   1
 p    1 1.00
                 0.727                   1

11 0
 s    3 1.00
                 13.01   0.033498726389998
                 1.962    0.23480080117413
                0.4446     0.8136829578829
 s    1 1.00
                 0.122                   1
 p    1 1.00
                 0.727                   1

12 0
 s    3 1.00
                 13.01   0.033498726389998
                 1.962    0.23480080117413
                0.4446     0.8136829578829
 s    1 1.00
                 0.122                   1
 p    1 1.00
                 0.727                   1

13 0
 s    8 1.00
                  6665  0.00069158396281299
                  1000  0.0053257961529341
                   228   0.027060721042034
                 64.71    0.10165684614077
                 21.06     0.2745748236174
                 7.495    0.44829431892377
                 2.797    0.28490261071525
                0.5215   0.015194859206082
 s    8 1.00
                  6665  -0.00029326965268655
                  1000  -0.0023180354739745
                   228  -0.011499786038565
                 64.71  -0.046826727009787
                 21.06   -0.12846616875047
                 7.495   -0.30126627246289
                 2.797   -0.25563070233011
                0.5215      1.093793361012
 s    1 1.00
                0.1596                   1
 p    3 1.00
                 9.439   0.056979251590039
                 2.002    0.31320721150073
                0.5456    0.76037674173753
 p    1 1.00
                0.1517                   1
 d    1 1.00
                  0.55                   1

14 0
 s    3 1.00
                 13.01   0.033498726389998
                 1.962    0.23480080117413
                0.4446     0.8136829578829
 s    1 1.00
                 0.122                   1
 p    1 1.00
                 0.727                   1

15 0
 s    3 1.00
                 13.01   0.033498726389998
                 1.962    0.23480080117413
                0.4446     0.8136829578829
 s    1 1.00
                 0.122                   1
 p    1 1.00
                 0.727                   1

16 0
 s    8 1.00
                  6665  0.00069158396281299
                  1000  0.0053257961529341
                   228   0.027060721042034
                 64.71    0.10165684614077
                 21.06     0.2745748236174
                 7.495    0.44829431892377
                 2.797    0.28490261071525
                0.5215   0.015194859206082
 s    8 1.00
                  6665  -0.00029326965268655
                  1000  -0.0023180354739745
                   228  -0.011499786038565
                 64.71  -0.046826727009787
                 21.06   -0.12846616875047
                 7.495   -0.30126627246289
                 2.797   -0.25563070233011
                0.5215      1.093793361012
 s    1 1.00
                0.1596                   1
 p    3 1.00
                 9.439   0.056979251590039
                 2.002    0.31320721150073
                0.5456    0.76037674173753
 p    1 1.00
                0.1517                   1
 d    1 1.00
                  0.55                   1

17 0
 s    3 1.00
                 13.01   0.033498726389998
                 1.962    0.23480080117413
                0.4446     0.8136829578829
 s    1 1.00
                 0.122                   1
 p    1 1.00
                 0.727                   1

18 0
 s    3 1.00
                 13.01   0.033498726389998
                 1.962    0.23480080117413
                0.4446     0.8136829578829
 s    1 1.00
                 0.122                   1
 p    1 1.00
                 0.727                   1

19 0
 s    8 1.00
                  6665  0.00069158396281299
                  1000  0.0053257961529341
                   228   0.027060721042034
                 64.71    0.10165684614077
                 21.06     0.2745748236174
                 7.495    0.44829431892377
                 2.797    0.28490261071525
                0.5215   0.015194859206082
 s    8 1.00
                  6665  -0.00029326965268655
                  1000  -0.0023180354739745
                   228  -0.011499786038565
                 64.71  -0.046826727009787
                 21.06   -0.12846616875047
                 7.495   -0.30126627246289
                 2.797   -0.25563070233011
                0.5215      1.093793361012
 s    1 1.00
                0.1596                   1
 p    3 1.00
                 9.439   0.056979251590039
                 2.002    0.31320721150073
                0.5456    0.76037674173753
 p    1 1.00
                0.1517                   1
 d    1 1.00
                  0.55                   1

20 0
 s    3 1.00
                 13.01   0.033498726389998
                 1.962    0.23480080117413
                0.4446     0.8136829578829
 s    1 1.00
                 0.122                   1
 p    1 1.00
                 0.727                   1

21 0
 s    8 1.00
                  6665  0.00069158396281299
                  1000  0.0053257961529341
                   228   0.027060721042034
                 64.71    0.10165684614077
                 21.06     0.2745748236174
                 7.495    0.44829431892377
                 2.797    0.28490261071525
                0.5215   0.015194859206082
 s    8 1.00
                  6665  -0.00029326965268655
                  1000  -0.0023180354739745
                   228  -0.011499786038565
                 64.71  -0.046826727009787
                 21.06   -0.12846616875047
                 7.495   -0.30126627246289
                 2.797   -0.25563070233011
                0.5215      1.093793361012
 s    1 1.00
                0.1596                   1
 p    3 1.00
                 9.439   0.056979251590039
                 2.002    0.31320721150073
                0.5456    0.76037674173753
 p    1 1.00
                0.1517                   1
 d    1 1.00
                  0.55                   1

22 0
 s    3 1.00
                 13.01   0.033498726389998
                 1.962    0.23480080117413
                0.4446     0.8136829578829
 s    1 1.00
                 0.122                   1
 p    1 1.00
                 0.727                   1

23 0
 s    3 1.00
                 13.01   0.033498726389998
                 1.962    0.23480080117413
                0.4446     0.8136829578829
 s    1 1.00
                 0.122                   1
 p    1 1.00
                 0.727                   1

24 0
 s    3 1.00
                 13.01   0.033498726389998
                 1.962    0.23480080117413
                0.4446     0.8136829578829
 s    1 1.00
                 0.122                   1
 p    1 1.00
                 0.727                   1

25 0
 s    8 1.00
                  6665  0.00069158396281299
                  1000  0.0053257961529341
                   228   0.027060721042034
                 64.71    0.10165684614077
                 21.06     0.2745748236174
                 7.495    0.44829431892377
                 2.797    0.28490261071525
                0.5215   0.015194859206082
 s    8 1.00
                  6665  -0.00029326965268655
                  1000  -0.0023180354739745
                   228  -0.011499786038565
                 64.71  -0.046826727009787
                 21.06   -0.12846616875047
                 7.495   -0.30126627246289
                 2.797   -0.25563070233011
                0.5215      1.093793361012
 s    1 1.00
                0.1596                   1
 p    3 1.00
                 9.439   0.056979251590039
                 2.002    0.31320721150073
                0.5456    0.76037674173753
 p    1 1.00
                0.1517                   1
 d    1 1.00
                  0.55                   1

26 0
 s    3 1.00
                 13.01   0.033498726389998
                 1.962    0.23480080117413
                0.4446     0.8136829578829
 s    1 1.00
                 0.122                   1
 p    1 1.00
                 0.727                   1

27 0
 s    3 1.00
                 13.01   0.033498726389998
                 1.962    0.23480080117413
                0.4446     0.8136829578829
 s    1 1.00
                 0.122                   1
 p    1 1.00
                 0.727                   1

28 0
 s    8 1.00
                  6665  0.00069158396281299
                  1000  0.0053257961529341
                   228   0.027060721042034
                 64.71    0.10165684614077
                 21.06     0.2745748236174
                 7.495    0.44829431892377
                 2.797    0.28490261071525
                0.5215   0.015194859206082
 s    8 1.00
                  6665  -0.00029326965268655
                  1000  -0.0023180354739745
                   228  -0.011499786038565
                 64.71  -0.046826727009787
                 21.06   -0.12846616875047
                 7.495   -0.30126627246289
                 2.797   -0.25563070233011
                0.5215      1.093793361012
 s    1 1.00
                0.1596                   1
 p    3 1.00
                 9.439   0.056979251590039
                 2.002    0.31320721150073
                0.5456    0.76037674173753
 p    1 1.00
                0.1517                   1
 d    1 1.00
                  0.55                   1

29 0
 s    3 1.00
                 13.01   0.033498726389998
                 1.962    0.23480080117413
                0.4446     0.8136829578829
 s    1 1.00
                 0.122                   1
 p    1 1.00
                 0.727                   1

30 0
 s    3 1.00
                 13.01   0.033498726389998
                 1.962    0.23480080117413
                0.4446     0.8136829578829
 s    1 1.00
                 0.122                   1
 p    1 1.00
                 0.727                   1

31 0
 s    8 1.00
                  6665  0.00069158396281299
                  1000  0.0053257961529341
                   228   0.027060721042034
                 64.71    0.10165684614077
                 21.06     0.2745748236174
                 7.495    0.44829431892377
                 2.797    0.28490261071525
                0.5215   0.015194859206082
 s    8 1.00
                  6665  -0.00029326965268655
                  1000  -0.0023180354739745
                   228  -0.011499786038565
                 64.71  -0.046826727009787
                 21.06   -0.12846616875047
                 7.495   -0.30126627246289
                 2.797   -0.25563070233011
                0.5215      1.093793361012
 s    1 1.00
                0.1596                   1
 p    3 1.00
                 9.439   0.056979251590039
                 2.002    0.31320721150073
                0.5456    0.76037674173753
 p    1 1.00
                0.1517                   1
 d    1 1.00
                  0.55                   1

32 0
 s    3 1.00
                 13.01   0.033498726389998
                 1.962    0.23480080117413
                0.4446     0.8136829578829
 s    1 1.00
                 0.122                   1
 p    1 1.00
                 0.727                   1

33 0
 s    3 1.00
                 13.01   0.033498726389998
                 1.962    0.23480080117413
                0.4446     0.8136829578829
 s    1 1.00
                 0.122                   1
 p    1 1.00
                 0.727                   1

34 0
 s    3 1.00
                 13.01   0.033498726389998
                 1.962    0.23480080117413
                0.4446     0.8136829578829
 s    1 1.00
                 0.122                   1
 p    1 1.00
                 0.727                   1

35 0
 s    3 1.00
                 13.01   0.033498726389998
                 1.962    0.23480080117413
                0.4446     0.8136829578829
 s    1 1.00
                 0.122                   1
 p    1 1.00
                 0.727                   1

36 0
 s    3 1.00
                 13.01   0.033498726389998
                 1.962    0.23480080117413
                0.4446     0.8136829578829
 s    1 1.00
                 0.122                   1
 p    1 1.00
                 0.727                   1

37 0
 s    3 1.00
                 13.01   0.033498726389998
                 1.962    0.23480080117413
                0.4446     0.8136829578829
 s    1 1.00
                 0.122                   1
 p    1 1.00
                 0.727                   1

[5d]
[7f]
[9g]

[MO]
 Sym= A
 Ene=               0
 Spin= Alpha
 Occup=    1.00000
   1    -3.3722479559694e-06
   2    -1.4845215675722e-05
   3    3.3326942397657e-05
   4    -1.2085619510596e-05
   5    8.5381076010863e-06
   6    -8.5440057284537e-06
   7    -8.0472151846278e-06
   8    3.741143018332e-06
   9    -2.3492936644162e-05
  10    3.0976949601075e-06
  11    5.6166075783344e-07
  12    -5.0962081899158e-07
  13    -5.2856763913053e-07
  14    -2.1190366341711e-07
  15    3.0102684401444e-06
  16    -5.4943747091808e-05
  17    1.3801031116938e-06
  18    -1.7399359861507e-06
  19    -1.3762959654474e-05
  20    2.4929999267692e-06
  21    -1.3337200586091e-06
  22    -7.2574105749016e-07
  23    1.7180367863045e-06
  24    5.9131496264781e-07
  25    3.6122913167909e-06
  26    4.2652104994997e-05
  27    5.5905708843038e-05
  28    -9.9442721518048e-05
  29    -4.0606987377583e-06
  30    -2.2953378349364e-05
  31    -0.00013955314719619
  32    2.9354872504719e-05
  33    -3.7436054196733e-05
  34    5.4850128619836e-06
  35    7.4291025060666e-06
  36    -4.1301468220787e-06
  37    -4.4602256976973e-06
  38    6.7369371549759e-06
  39    6.4391627605005e-05
  40    0.00023853446261501
  41    -0.00069155537908438
  42    -0.00017541305896133
  43    0.00014997829133942
  44    -0.00014636236028794
  45    0.00039351348511034
  46    -0.0002725960006469
  47    0.00026468873588933
  48    3.4289176621039e-05
  49    -2.9005087650246e-05
  50    9.0282254065552e-06
  51    -3.4548879168044e-05
  52    7.1353234206428e-05
  53    1.6460796194829e-05
  54    -4.1484122825659e-05
  55    -0.00026536591890133
  56    9.9436836144473e-05
  57    -7.5317314659906e-05
  58    -3.8942611316987e-05
  59    0.0001319934461876
  60    -0.00013389704462455
  61    -0.00020270092054089
  62    -1.3295331132212e-05
  63    1.5101475360489e-05
  64    -9.0170481802629e-06
  65    3.0225106053776e-06
  66    -1.5288826970766e-05
  67    -0.000105470918445
  68    -0.00051462321309466
  69    0.00034844978849386
  70    0.00056253803914494
  71    -0.00021938584429275
  72    -0.00046717217997065
  73     0.001249161179876
  74    -0.00073329959302266
  75    0.00027883931606724
  76    -7.2692468930363e-05
  77    7.9162573806725e-05
  78    -3.0231456796724e-05
  79    3.8799938970797e-05
  80    -8.7836018515029e-05
  81    8.511066263221e-05
  82    6.7096804847898e-05
  83    1.5169758086941e-05
  84    -8.9167322514279e-06
  85    -3.1762795822604e-06
  86    -5.078570987277e-07
  87    -2.081815194575e-05
  88    -5.3159283937801e-05
  89    2.2317733391191e-05
  90    4.8011808710406e-06
  91    -5.0147831995791e-06
  92    7.4917197100661e-05
  93    4.6430816601944e-05
  94    8.0367254932911e-05
  95    -1.9262823501581e-06
  96    -2.1533325327539e-06
  97    4.5045367708142e-06
  98    -5.9431383529395e-07
  99    -3.4719176674656e-06
 100    -2.025678568458e-05
 101    -3.9057682611105e-05
 102    -6.1747613018701e-06
 103    -9.6881625262634e-07
 104    5.082718585518e-06
 105      -4.760198808e-05
 106    1.5987014346267e-05
 107    -1.3632731010768e-05
 108    2.5885525994265e-05
 109    -3.3907131188723e-05
 110    -7.0185741634558e-05
 111    -2.0723835896329e-05
 112    -1.8200651772725e-05
 113    5.3093840606167e-06
 114    -3.6834514586679e-05
 115    0.00016304125386012
 116    0.0011684696822448
 117    0.0010280174066545
 118    -0.001359189404092
 119    0.00093467674635902
 120    -0.00063545203981683
 121    -0.0013945465940021
 122    0.00074943696880663
 123    2.2186969572203e-05
 124    1.653842959839e-05
 125    6.1296641944673e-05
 126    -8.791651783334e-07
 127    -6.2674972275642e-05
 128    9.2273065887333e-05
 129    -6.0354200522649e-06
 130    -2.8888153053776e-05
 131    -3.4359645644945e-06
 132    4.0497638789451e-06
 133    -1.1300155911172e-06
 134    7.5026876941779e-06
 135    5.1781818015892e-05
 136    2.8380881418437e-06
 137    -3.4738736275084e-06
 138    -3.3315305598978e-07
 139    5.8810657167148e-06
 140    2.9709923519675e-06
 141    -3.5327525121298e-05
 142    -2.41365094079e-06
 143    3.423092538606e-06
 144    -4.9045282716057e-06
 145    -2.1738866742069e-05
 146    3.8765850734864e-06
 147    -5.5568265241157e-05
 148    -9.8673026717914e-07
 149    1.0077623413427e-06
 150    -2.5871097352593e-06
 151    -4.3898586762815e-07
 152    2.5484548455923e-06
 153    0.00027126980126215
 154    0.00010519296662958
 155    -4.7766014674216e-05
 156    4.8135573874886e-06
 157    -6.9092327699635e-05
 158    0.00021703144473168
 159    8.1829255468086e-06
 160    -1.011785240967e-05
 161    5.8562216104681e-05
 162    -5.4758524665348e-05
 163    -0.00024212619308105
 164    -0.0015116814947224
 165    -0.0033799452255305
 166    0.0018756881091868
 167    -0.001024329196916
 168    -0.00078806143443961
 169    0.0038003554182335
 170    -0.0021808818071934
 171    -0.00036608242070216
 172    -0.00059415989110034
 173    0.00048005344630775
 174    -7.0644599977592e-05
 175    0.00012123533364494
 176    -0.00048902843818744
 177    -5.3133345105817e-06
 178    3.2822431245231e-05
 179    -2.2912706661122e-06
 180    6.8754413780836e-09
 181    1.1779206833383e-06
 182    6.0109508840969e-07
 183    3.6739886092609e-06
 184    4.6415849358398e-06
 185    -3.353933034059e-06
 186    -4.9080222487106e-06
 187    2.9390365165077e-06
 188    1.0328746230069e-05
 189    -3.4431064639306e-07
 190    3.5030971670839e-06
 191    8.3395279346767e-07
 192    3.6900683461909e-07
 193    -5.7209882555711e-08
 194    9.2670736270285e-08
 195    -1.8232742840128e-06
 196    -1.0802091994078e-06
 197    -1.0408390401901e-05
 198    -3.4660153612682e-07
 199    -1.8428800195557e-06
 200    1.7083878498329e-06
 201    -0.0009713396737789
 202    -0.00064753271624817
 203    -3.5376832406127e-05
 204    -2.5936029792387e-05
 205    -0.00011154334267819
 206     -0.00132160685742
 207    -0.0010543105525027
 208    2.9563979677702e-05
 209    7.1730106438402e-05
 210    -0.00010102633713357
 211    0.0007757413047874
 212     0.007455494475114
 213    0.0065540072567124
 214    -0.013626805247766
 215     0.012555407461154
 216    -0.012813765740025
 217    -0.0054393044927953
 218    0.0055995460540586
 219    -0.0071266101161136
 220    -9.9837191270057e-05
 221    0.0013257963232003
 222    -0.00095551904225708
 223    0.00044582764768705
 224    -0.0014444017509816
 225    -9.7722167956683e-07
 226    -2.9194650822762e-06
 227    -5.0297881081877e-07
 228    -4.6076187579723e-07
 229    4.9422479718462e-07
 230    -3.6759721668886e-07
 231    -6.3643404300807e-06
 232    -3.673401759071e-07
 233    -1.0661932439282e-07
 234    -1.0319157985752e-06
 235    7.4884418690679e-07
 236    1.0813851746173e-06
 237    -6.6646536941323e-06
 238    1.0371494150437e-07
 239    6.9331954194463e-07
 240    7.317351829622e-07
 241    5.9495263937381e-06
 242    -1.3052751959716e-06
 243    -5.7211543157856e-06
 244    4.0320955286027e-08
 245    7.1420707812328e-07
 246    -6.2399768465044e-07
 247    3.9624821015473e-07
 248    2.3286633435689e-08
 249    -0.002757977168551
 250    -0.002329693608475
 251    -0.00022732361733334
 252    0.00030526601686285
 253    -0.00015443886860096
 254    -0.0049352084529204
 255    -0.0032927618845045
 256    -0.00038694510267974
 257    2.9334991834493e-05
 258    -9.3397538150994e-05
 259      -1.0013168668426
 260    0.0079403989313899
 261     0.018122010085878
 262      0.01397883285801
 263    -0.010380944664896