[Molden Format]
made by pyscf v[2.0.1]
[Atoms] (AU)
O   1   8     0.00000000000000     0.00000000000000     7.16229833633744
H   2   1     0.00000000000000     0.00000000000000     5.33889651443647
H   3   1    -0.05031916615174     1.78353065140343     7.53817003280410
O   4   8     0.00000000000000     0.00000000000000     2.31533471513237
C   5   6     0.00000000000000     0.00000000000000     0.00000000000000
C   6   6     2.01118073026938    -1.40227222164369    -1.50774939176400
C   7   6    -2.01249334291722     1.41331050329955    -1.50315905028694
H   8   1     3.32037363730244    -2.26721897153159    -0.13599698591495
C   9   6     3.45899267434009     0.28739631745591    -3.37437943254505
H   10   1     1.07662969841332    -2.94725144642667    -2.56541439481080
H   11   1    -2.67503415753480     0.18421555839588    -3.06194479365997
H   12   1    -1.07974048864772     3.03851734677796    -2.43674295017013
C   13   6    -4.21607110578555     2.32938802552922     0.11994162256091
H   14   1     4.24440173074564     1.93368664142019    -2.34976285512790
H   15   1     2.15020713235517     1.04714335134846    -4.81494497423699
C   16   6     5.60746363007797    -1.12419643481196    -4.70268606082550
H   17   1    -3.46838323670267     3.50951302338067     1.66946842715333
H   18   1    -5.11873485366228     0.68575958301209     1.04047743976495
C   19   6    -6.18314754751344     3.80909592987882    -1.39656589068747
H   20   1     6.93011263717176    -1.87550812453645    -3.26656317360070
C   21   6     7.06356622236532     0.52877932406334    -6.57829775293605
H   22   1     4.82318879258361    -2.78573437948532    -5.70504560381835
H   23   1    -6.91582688743803     2.61304780074712    -2.95074552451969
H   24   1    -5.26532430573853     5.45420349051338    -2.31005832200284
C   25   6    -8.39941882261433     4.73263980500213     0.21800571437956
H   26   1     7.83338371486801     2.19084139882824    -5.57093109900697
H   27   1     5.73544244039420     1.27376866537418    -8.01071492370229
C   28   6     9.21124858443101    -0.89699110072176    -7.88926949186242
H   29   1    -7.66272760055236     5.92277078003992     1.77035591474408
H   30   1    -9.31497248082589     3.08753015622020     1.12614408368786
C   31   6   -10.35481709231879     6.21833079391143    -1.30905206253246
H   32   1    10.58815905329501    -1.61074586756696    -6.49512691622620
H   33   1    10.23506248045667     0.32468009384095    -9.23072870921204
H   34   1     8.47665842847139    -2.53598436989925    -8.94921964622535
H   35   1    -9.48948872868064     7.90013588951020    -2.18823918416067
H   36   1   -11.93332513000955     6.86460487874102    -0.11255798845995
H   37   1   -11.15126291841033     5.04495968327630    -2.83849898862534
[GTO]
1 0
 s    8 1.00
                 11720  0.00070964594651845
                  1759  0.0054672722921914
                 400.8   0.027823118610189
                 113.7    0.10474773971146
                 37.03    0.28292084635691
                 13.27    0.44849523869833
                 5.025    0.27081688521277
                 1.013    0.01545029160744
 s    8 1.00
                 11720  -0.00031444341168873
                  1759  -0.0024821376810179
                 400.8  -0.012316355381583
                 113.7  -0.050538917343672
                 37.03   -0.13938490331632
                 13.27   -0.32507749481778
                 5.025   -0.22984830758785
                 1.013     1.0953793467883
 s    1 1.00
                0.3023                   1
 p    3 1.00
                  17.7   0.062679166281506
                 3.854    0.33353656587936
                 1.046    0.74123964163973
 p    1 1.00
                0.2753                   1
 d    1 1.00
                 1.185                   1

2 0
 s    3 1.00
                 13.01   0.033498726389998
                 1.962    0.23480080117413
                0.4446     0.8136829578829
 s    1 1.00
                 0.122                   1
 p    1 1.00
                 0.727                   1

3 0
 s    3 1.00
                 13.01   0.033498726389998
                 1.962    0.23480080117413
                0.4446     0.8136829578829
 s    1 1.00
                 0.122                   1
 p    1 1.00
                 0.727                   1

4 0
 s    8 1.00
                 11720  0.00070964594651845
                  1759  0.0054672722921914
                 400.8   0.027823118610189
                 113.7    0.10474773971146
                 37.03    0.28292084635691
                 13.27    0.44849523869833
                 5.025    0.27081688521277
                 1.013    0.01545029160744
 s    8 1.00
                 11720  -0.00031444341168873
                  1759  -0.0024821376810179
                 400.8  -0.012316355381583
                 113.7  -0.050538917343672
                 37.03   -0.13938490331632
                 13.27   -0.32507749481778
                 5.025   -0.22984830758785
                 1.013     1.0953793467883
 s    1 1.00
                0.3023                   1
 p    3 1.00
                  17.7   0.062679166281506
                 3.854    0.33353656587936
                 1.046    0.74123964163973
 p    1 1.00
                0.2753                   1
 d    1 1.00
                 1.185                   1

5 0
 s    8 1.00
                  6665  0.00069158396281299
                  1000  0.0053257961529341
                   228   0.027060721042034
                 64.71    0.10165684614077
                 21.06     0.2745748236174
                 7.495    0.44829431892377
                 2.797    0.28490261071525
                0.5215   0.015194859206082
 s    8 1.00
                  6665  -0.00029326965268655
                  1000  -0.0023180354739745
                   228  -0.011499786038565
                 64.71  -0.046826727009787
                 21.06   -0.12846616875047
                 7.495   -0.30126627246289
                 2.797   -0.25563070233011
                0.5215      1.093793361012
 s    1 1.00
                0.1596                   1
 p    3 1.00
                 9.439   0.056979251590039
                 2.002    0.31320721150073
                0.5456    0.76037674173753
 p    1 1.00
                0.1517                   1
 d    1 1.00
                  0.55                   1

6 0
 s    8 1.00
                  6665  0.00069158396281299
                  1000  0.0053257961529341
                   228   0.027060721042034
                 64.71    0.10165684614077
                 21.06     0.2745748236174
                 7.495    0.44829431892377
                 2.797    0.28490261071525
                0.5215   0.015194859206082
 s    8 1.00
                  6665  -0.00029326965268655
                  1000  -0.0023180354739745
                   228  -0.011499786038565
                 64.71  -0.046826727009787
                 21.06   -0.12846616875047
                 7.495   -0.30126627246289
                 2.797   -0.25563070233011
                0.5215      1.093793361012
 s    1 1.00
                0.1596                   1
 p    3 1.00
                 9.439   0.056979251590039
                 2.002    0.31320721150073
                0.5456    0.76037674173753
 p    1 1.00
                0.1517                   1
 d    1 1.00
                  0.55                   1

7 0
 s    8 1.00
                  6665  0.00069158396281299
                  1000  0.0053257961529341
                   228   0.027060721042034
                 64.71    0.10165684614077
                 21.06     0.2745748236174
                 7.495    0.44829431892377
                 2.797    0.28490261071525
                0.5215   0.015194859206082
 s    8 1.00
                  6665  -0.00029326965268655
                  1000  -0.0023180354739745
                   228  -0.011499786038565
                 64.71  -0.046826727009787
                 21.06   -0.12846616875047
                 7.495   -0.30126627246289
                 2.797   -0.25563070233011
                0.5215      1.093793361012
 s    1 1.00
                0.1596                   1
 p    3 1.00
                 9.439   0.056979251590039
                 2.002    0.31320721150073
                0.5456    0.76037674173753
 p    1 1.00
                0.1517                   1
 d    1 1.00
                  0.55                   1

8 0
 s    3 1.00
                 13.01   0.033498726389998
                 1.962    0.23480080117413
                0.4446     0.8136829578829
 s    1 1.00
                 0.122                   1
 p    1 1.00
                 0.727                   1

9 0
 s    8 1.00
                  6665  0.00069158396281299
                  1000  0.0053257961529341
                   228   0.027060721042034
                 64.71    0.10165684614077
                 21.06     0.2745748236174
                 7.495    0.44829431892377
                 2.797    0.28490261071525
                0.5215   0.015194859206082
 s    8 1.00
                  6665  -0.00029326965268655
                  1000  -0.0023180354739745
                   228  -0.011499786038565
                 64.71  -0.046826727009787
                 21.06   -0.12846616875047
                 7.495   -0.30126627246289
                 2.797   -0.25563070233011
                0.5215      1.093793361012
 s    1 1.00
                0.1596                   1
 p    3 1.00
                 9.439   0.056979251590039
                 2.002    0.31320721150073
                0.5456    0.76037674173753
 p    1 1.00
                0.1517                   1
 d    1 1.00
                  0.55                   1

10 0
 s    3 1.00
                 13.01   0.033498726389998
                 1.962    0.23480080117413
                0.4446     0.8136829578829
 s    1 1.00
                 0.122                   1
 p    1 1.00
                 0.727                   1

11 0
 s    3 1.00
                 13.01   0.033498726389998
                 1.962    0.23480080117413
                0.4446     0.8136829578829
 s    1 1.00
                 0.122                   1
 p    1 1.00
                 0.727                   1

12 0
 s    3 1.00
                 13.01   0.033498726389998
                 1.962    0.23480080117413
                0.4446     0.8136829578829
 s    1 1.00
                 0.122                   1
 p    1 1.00
                 0.727                   1

13 0
 s    8 1.00
                  6665  0.00069158396281299
                  1000  0.0053257961529341
                   228   0.027060721042034
                 64.71    0.10165684614077
                 21.06     0.2745748236174
                 7.495    0.44829431892377
                 2.797    0.28490261071525
                0.5215   0.015194859206082
 s    8 1.00
                  6665  -0.00029326965268655
                  1000  -0.0023180354739745
                   228  -0.011499786038565
                 64.71  -0.046826727009787
                 21.06   -0.12846616875047
                 7.495   -0.30126627246289
                 2.797   -0.25563070233011
                0.5215      1.093793361012
 s    1 1.00
                0.1596                   1
 p    3 1.00
                 9.439   0.056979251590039
                 2.002    0.31320721150073
                0.5456    0.76037674173753
 p    1 1.00
                0.1517                   1
 d    1 1.00
                  0.55                   1

14 0
 s    3 1.00
                 13.01   0.033498726389998
                 1.962    0.23480080117413
                0.4446     0.8136829578829
 s    1 1.00
                 0.122                   1
 p    1 1.00
                 0.727                   1

15 0
 s    3 1.00
                 13.01   0.033498726389998
                 1.962    0.23480080117413
                0.4446     0.8136829578829
 s    1 1.00
                 0.122                   1
 p    1 1.00
                 0.727                   1

16 0
 s    8 1.00
                  6665  0.00069158396281299
                  1000  0.0053257961529341
                   228   0.027060721042034
                 64.71    0.10165684614077
                 21.06     0.2745748236174
                 7.495    0.44829431892377
                 2.797    0.28490261071525
                0.5215   0.015194859206082
 s    8 1.00
                  6665  -0.00029326965268655
                  1000  -0.0023180354739745
                   228  -0.011499786038565
                 64.71  -0.046826727009787
                 21.06   -0.12846616875047
                 7.495   -0.30126627246289
                 2.797   -0.25563070233011
                0.5215      1.093793361012
 s    1 1.00
                0.1596                   1
 p    3 1.00
                 9.439   0.056979251590039
                 2.002    0.31320721150073
                0.5456    0.76037674173753
 p    1 1.00
                0.1517                   1
 d    1 1.00
                  0.55                   1

17 0
 s    3 1.00
                 13.01   0.033498726389998
                 1.962    0.23480080117413
                0.4446     0.8136829578829
 s    1 1.00
                 0.122                   1
 p    1 1.00
                 0.727                   1

18 0
 s    3 1.00
                 13.01   0.033498726389998
                 1.962    0.23480080117413
                0.4446     0.8136829578829
 s    1 1.00
                 0.122                   1
 p    1 1.00
                 0.727                   1

19 0
 s    8 1.00
                  6665  0.00069158396281299
                  1000  0.0053257961529341
                   228   0.027060721042034
                 64.71    0.10165684614077
                 21.06     0.2745748236174
                 7.495    0.44829431892377
                 2.797    0.28490261071525
                0.5215   0.015194859206082
 s    8 1.00
                  6665  -0.00029326965268655
                  1000  -0.0023180354739745
                   228  -0.011499786038565
                 64.71  -0.046826727009787
                 21.06   -0.12846616875047
                 7.495   -0.30126627246289
                 2.797   -0.25563070233011
                0.5215      1.093793361012
 s    1 1.00
                0.1596                   1
 p    3 1.00
                 9.439   0.056979251590039
                 2.002    0.31320721150073
                0.5456    0.76037674173753
 p    1 1.00
                0.1517                   1
 d    1 1.00
                  0.55                   1

20 0
 s    3 1.00
                 13.01   0.033498726389998
                 1.962    0.23480080117413
                0.4446     0.8136829578829
 s    1 1.00
                 0.122                   1
 p    1 1.00
                 0.727                   1

21 0
 s    8 1.00
                  6665  0.00069158396281299
                  1000  0.0053257961529341
                   228   0.027060721042034
                 64.71    0.10165684614077
                 21.06     0.2745748236174
                 7.495    0.44829431892377
                 2.797    0.28490261071525
                0.5215   0.015194859206082
 s    8 1.00
                  6665  -0.00029326965268655
                  1000  -0.0023180354739745
                   228  -0.011499786038565
                 64.71  -0.046826727009787
                 21.06   -0.12846616875047
                 7.495   -0.30126627246289
                 2.797   -0.25563070233011
                0.5215      1.093793361012
 s    1 1.00
                0.1596                   1
 p    3 1.00
                 9.439   0.056979251590039
                 2.002    0.31320721150073
                0.5456    0.76037674173753
 p    1 1.00
                0.1517                   1
 d    1 1.00
                  0.55                   1

22 0
 s    3 1.00
                 13.01   0.033498726389998
                 1.962    0.23480080117413
                0.4446     0.8136829578829
 s    1 1.00
                 0.122                   1
 p    1 1.00
                 0.727                   1

23 0
 s    3 1.00
                 13.01   0.033498726389998
                 1.962    0.23480080117413
                0.4446     0.8136829578829
 s    1 1.00
                 0.122                   1
 p    1 1.00
                 0.727                   1

24 0
 s    3 1.00
                 13.01   0.033498726389998
                 1.962    0.23480080117413
                0.4446     0.8136829578829
 s    1 1.00
                 0.122                   1
 p    1 1.00
                 0.727                   1

25 0
 s    8 1.00
                  6665  0.00069158396281299
                  1000  0.0053257961529341
                   228   0.027060721042034
                 64.71    0.10165684614077
                 21.06     0.2745748236174
                 7.495    0.44829431892377
                 2.797    0.28490261071525
                0.5215   0.015194859206082
 s    8 1.00
                  6665  -0.00029326965268655
                  1000  -0.0023180354739745
                   228  -0.011499786038565
                 64.71  -0.046826727009787
                 21.06   -0.12846616875047
                 7.495   -0.30126627246289
                 2.797   -0.25563070233011
                0.5215      1.093793361012
 s    1 1.00
                0.1596                   1
 p    3 1.00
                 9.439   0.056979251590039
                 2.002    0.31320721150073
                0.5456    0.76037674173753
 p    1 1.00
                0.1517                   1
 d    1 1.00
                  0.55                   1

26 0
 s    3 1.00
                 13.01   0.033498726389998
                 1.962    0.23480080117413
                0.4446     0.8136829578829
 s    1 1.00
                 0.122                   1
 p    1 1.00
                 0.727                   1

27 0
 s    3 1.00
                 13.01   0.033498726389998
                 1.962    0.23480080117413
                0.4446     0.8136829578829
 s    1 1.00
                 0.122                   1
 p    1 1.00
                 0.727                   1

28 0
 s    8 1.00
                  6665  0.00069158396281299
                  1000  0.0053257961529341
                   228   0.027060721042034
                 64.71    0.10165684614077
                 21.06     0.2745748236174
                 7.495    0.44829431892377
                 2.797    0.28490261071525
                0.5215   0.015194859206082
 s    8 1.00
                  6665  -0.00029326965268655
                  1000  -0.0023180354739745
                   228  -0.011499786038565
                 64.71  -0.046826727009787
                 21.06   -0.12846616875047
                 7.495   -0.30126627246289
                 2.797   -0.25563070233011
                0.5215      1.093793361012
 s    1 1.00
                0.1596                   1
 p    3 1.00
                 9.439   0.056979251590039
                 2.002    0.31320721150073
                0.5456    0.76037674173753
 p    1 1.00
                0.1517                   1
 d    1 1.00
                  0.55                   1

29 0
 s    3 1.00
                 13.01   0.033498726389998
                 1.962    0.23480080117413
                0.4446     0.8136829578829
 s    1 1.00
                 0.122                   1
 p    1 1.00
                 0.727                   1

30 0
 s    3 1.00
                 13.01   0.033498726389998
                 1.962    0.23480080117413
                0.4446     0.8136829578829
 s    1 1.00
                 0.122                   1
 p    1 1.00
                 0.727                   1

31 0
 s    8 1.00
                  6665  0.00069158396281299
                  1000  0.0053257961529341
                   228   0.027060721042034
                 64.71    0.10165684614077
                 21.06     0.2745748236174
                 7.495    0.44829431892377
                 2.797    0.28490261071525
                0.5215   0.015194859206082
 s    8 1.00
                  6665  -0.00029326965268655
                  1000  -0.0023180354739745
                   228  -0.011499786038565
                 64.71  -0.046826727009787
                 21.06   -0.12846616875047
                 7.495   -0.30126627246289
                 2.797   -0.25563070233011
                0.5215      1.093793361012
 s    1 1.00
                0.1596                   1
 p    3 1.00
                 9.439   0.056979251590039
                 2.002    0.31320721150073
                0.5456    0.76037674173753
 p    1 1.00
                0.1517                   1
 d    1 1.00
                  0.55                   1

32 0
 s    3 1.00
                 13.01   0.033498726389998
                 1.962    0.23480080117413
                0.4446     0.8136829578829
 s    1 1.00
                 0.122                   1
 p    1 1.00
                 0.727                   1

33 0
 s    3 1.00
                 13.01   0.033498726389998
                 1.962    0.23480080117413
                0.4446     0.8136829578829
 s    1 1.00
                 0.122                   1
 p    1 1.00
                 0.727                   1

34 0
 s    3 1.00
                 13.01   0.033498726389998
                 1.962    0.23480080117413
                0.4446     0.8136829578829
 s    1 1.00
                 0.122                   1
 p    1 1.00
                 0.727                   1

35 0
 s    3 1.00
                 13.01   0.033498726389998
                 1.962    0.23480080117413
                0.4446     0.8136829578829
 s    1 1.00
                 0.122                   1
 p    1 1.00
                 0.727                   1

36 0
 s    3 1.00
                 13.01   0.033498726389998
                 1.962    0.23480080117413
                0.4446     0.8136829578829
 s    1 1.00
                 0.122                   1
 p    1 1.00
                 0.727                   1

37 0
 s    3 1.00
                 13.01   0.033498726389998
                 1.962    0.23480080117413
                0.4446     0.8136829578829
 s    1 1.00
                 0.122                   1
 p    1 1.00
                 0.727                   1

[5d]
[7f]
[9g]

[MO]
 Sym= A
 Ene=               0
 Spin= Alpha
 Occup=    1.00000
   1    -4.3951642399399e-06
   2    -1.8483149204256e-05
   3    4.1283212206767e-05
   4    -1.6590106774151e-05
   5    1.0892932833392e-05
   6    -9.5711033984064e-06
   7    -1.0943060673424e-05
   8    4.4504992454781e-06
   9    -2.7547562714633e-05
  10    3.4555601794999e-06
  11    8.5192651004866e-07
  12    -6.5367982351387e-07
  13    -6.5235635320071e-07
  14    -2.6614949840102e-07
  15    3.7638399738524e-06
  16    -6.7519415307624e-05
  17    2.5256717814108e-06
  18    -2.6996873537312e-06
  19    -1.4793896288823e-05
  20    3.9617815698495e-06
  21    -2.5171639234089e-06
  22    -9.5214244974954e-07
  23    2.0852663194918e-06
  24    6.6561542945596e-07
  25    4.206021841724e-06
  26    4.2778498296579e-05
  27    4.983922821254e-05
  28    -9.8680164822975e-05
  29    -4.6283023874309e-06
  30    -2.4604582313953e-05
  31    -0.00014014964494287
  32    2.9278057809834e-05
  33    -3.4424384168435e-05
  34    4.6494098110627e-06
  35    7.3039979052199e-06
  36    -4.2087568795105e-06
  37    -4.4836734253923e-06
  38    6.7724820248164e-06
  39    6.5192797262646e-05
  40    0.00024079119991255
  41    -0.00069048182505398
  42    -0.0001756525340144
  43    0.0001517308180944
  44    -0.00014610944961795
  45    0.00039835219087654
  46    -0.00027419987877686
  47    0.00027686168998871
  48    3.5494086445995e-05
  49    -2.8961537545341e-05
  50    9.0805423879332e-06
  51    -3.4821116302251e-05
  52    7.1829243258741e-05
  53    1.6652844352664e-05
  54    -4.1274544450183e-05
  55    -0.00026566395651183
  56    9.9716752267233e-05
  57    -7.5636967725893e-05
  58    -3.8851548107218e-05
  59    0.00012978653103993
  60    -0.00013323263451757
  61    -0.00020825295183183
  62    -1.3637441696833e-05
  63    1.5110365265945e-05
  64    -8.9900530287975e-06
  65    3.0028572161852e-06
  66    -1.5368267503323e-05
  67    -0.00010562280016121
  68    -0.00051548624720122
  69    0.00035014000755346
  70    0.00056246290659804
  71    -0.00021920117227027
  72    -0.00046800705833236
  73    0.0012551373896185
  74    -0.00073698928535247
  75    0.00027509227463341
  76    -7.3291614126721e-05
  77    7.9440701406387e-05
  78    -3.0260827368149e-05
  79    3.9128805316999e-05
  80    -8.8404071196779e-05
  81    8.5940104410824e-05
  82    6.9835352920225e-05
  83    1.5164875488027e-05
  84    -8.892371838563e-06
  85    -3.3949569083571e-06
  86    -5.0989581602482e-07
  87    -2.0941954331877e-05
  88    -5.4577933495755e-05
  89    2.2406274421338e-05
  90    4.880466835657e-06
  91    -5.2459007592317e-06
  92    7.5872599864186e-05
  93    4.8847642165583e-05
  94    8.1717700406188e-05
  95    -1.8422037464357e-06
  96    -2.1131949768625e-06
  97    4.5232898575694e-06
  98    -5.9460965164906e-07
  99    -3.6112627451414e-06
 100    -2.0344411714652e-05
 101    -3.9783155581027e-05
 102    -6.2202604938877e-06
 103    -1.0610859506284e-06
 104    5.3528620218303e-06
 105    -4.8093394628126e-05
 106    1.4627393245133e-05
 107    -1.3779302814627e-05
 108    2.5861402500712e-05
 109    -3.3799047437128e-05
 110    -7.0892402924539e-05
 111    -2.2018219066628e-05
 112    -1.8258304819878e-05
 113    5.4072546307763e-06
 114    -3.6670865640895e-05
 115    0.00016363262159368
 116    0.0011708405724182
 117    0.0010344028837724
 118    -0.0013581814761779
 119    0.00093441943952098
 120    -0.00063705632420274
 121    -0.0013930849530082
 122    0.00074923480895733
 123    1.5528621312867e-05
 124    1.6850331916115e-05
 125    6.0997584363651e-05
 126    -8.2935096844559e-07
 127    -6.2988180757002e-05
 128    9.2879597333216e-05
 129    -6.3179333617147e-06
 130    -3.0167146145542e-05
 131    -3.4258479500492e-06
 132    4.0760433238299e-06
 133    -1.1062819876112e-06
 134    7.6944506541213e-06
 135    5.1393060983535e-05
 136    2.8743683009343e-06
 137    -3.5454923120425e-06
 138    -5.55599476562e-07
 139    5.7605907676166e-06
 140    2.7572432779142e-06
 141    -3.3486762934521e-05
 142    -2.4283545496053e-06
 143    3.4472668879488e-06
 144    -4.8346102290177e-06
 145    -2.2684181935405e-05
 146    4.0412556118174e-06
 147    -5.6046888544243e-05
 148    -1.0161706514552e-06
 149    1.0262572100622e-06
 150    -2.6412400718239e-06
 151    -3.6918030425789e-07
 152    2.5207271663681e-06
 153    0.00027170956264511
 154    0.0001096717785254
 155    -4.7893190909809e-05
 156    4.5614157896881e-06
 157    -6.9320394550337e-05
 158    0.00021752201517373
 159    1.0805899330673e-05
 160    -1.0036211504214e-05
 161    5.8717414390249e-05
 162    -5.4768838964009e-05
 163    -0.00024209037901611
 164    -0.0015128877780167
 165    -0.003387703382171
 166    0.0018744450692908
 167     -0.00102288602928
 168    -0.00079007429253996
 169    0.0038001211946093
 170    -0.0021784345508866
 171    -0.000373525825194
 172    -0.00059487437177641
 173    0.00048025077397966
 174    -7.0660644110986e-05
 175    0.00012158813379446
 176    -0.00048972373116734
 177    -5.2632173784011e-06
 178    3.2898075415105e-05
 179    -2.2505392890028e-06
 180    1.3522250256173e-08
 181    1.1913346333418e-06
 182    6.6448332815575e-07
 183    3.7498808128839e-06
 184    3.7421941037057e-06
 185    -3.3189557096228e-06
 186    -4.8837181118571e-06
 187    2.8819209712852e-06
 188    1.0727901155796e-05
 189    -2.1724496985823e-07
 190    3.5919347020941e-06
 191    8.6099838856728e-07
 192    3.7825624287838e-07
 193    -6.8758506847624e-08
 194    8.6073577472975e-08
 195    -1.8528341561716e-06
 196    -1.227645119318e-06
 197    -1.0758831895916e-05
 198    -3.3321954346607e-07
 199    -1.854731657808e-06
 200    1.7223170841165e-06
 201    -0.00097199278023244
 202    -0.00064960075059075
 203    -3.5584923958047e-05
 204    -2.5936162504876e-05
 205    -0.00011147452619426
 206    -0.0013219784040916
 207    -0.0010566314418743
 208    2.9404850269584e-05
 209    7.1893043784473e-05
 210    -0.00010090343613048
 211    0.00077573741225087
 212    0.0074560834663962
 213    0.0065604102787836
 214     -0.01362448553441
 215     0.012553436024741
 216    -0.012815621519349
 217    -0.0054371123914652
 218    0.0055992706432065
 219    -0.0071310842778625
 220    -9.8672156073941e-05
 221    0.0013255819959098
 222    -0.00095573611302917
 223    0.00044541135858692
 224    -0.0014434193115573
 225    -9.6700697765531e-07
 226    -2.9498862664945e-06
 227    -5.1655632567793e-07
 228    -4.6408043922036e-07
 229    4.8227130048469e-07
 230    -3.2162018731767e-07
 231    -5.9681996662525e-06
 232    -3.6012390470875e-07
 233    -1.1470060522407e-07
 234    -1.007044109797e-06
 235    7.2991340100583e-07
 236     1.05470443597e-06
 237    -6.4978861125843e-06
 238    7.3558662711241e-08
 239    7.0897647509051e-07
 240    7.5225053252816e-07
 241    5.8096747718553e-06
 242    -1.3623336587594e-06
 243    -5.6391885520905e-06
 244    3.5046243358414e-08
 245    7.1389496592864e-07
 246    -6.30267676932e-07
 247    4.1202674578368e-07
 248    5.575399342743e-09
 249    -0.0027574212104614
 250    -0.0023261155154696
 251    -0.00022730993638096
 252    0.00030516429064549
 253    -0.0001541332170419
 254    -0.0049328674509377
 255    -0.0032869343483711
 256    -0.00038691864113233
 257    2.9378344809128e-05
 258    -9.3116281038471e-05
 259        -1.00131731572
 260     0.007935562275173
 261     0.018111601839223
 262     0.013974161225947
 263    -0.010377577927156