[Molden Format]
made by pyscf v[2.0.1]
[Atoms] (AU)
O   1   8     0.00000000000000     0.00000000000000    10.56380536055454
H   2   1     0.00000000000000     0.00000000000000     8.74040353865358
H   3   1    -0.05031916615174     1.78353065140343    10.93967705702121
O   4   8     0.00000000000000     0.00000000000000     2.31533471513237
C   5   6     0.00000000000000     0.00000000000000     0.00000000000000
C   6   6     2.01118073026938    -1.40227222164369    -1.50774939176400
C   7   6    -2.01249334291722     1.41331050329955    -1.50315905028694
H   8   1     3.32037363730244    -2.26721897153159    -0.13599698591495
C   9   6     3.45899267434009     0.28739631745591    -3.37437943254505
H   10   1     1.07662969841332    -2.94725144642667    -2.56541439481080
H   11   1    -2.67503415753480     0.18421555839588    -3.06194479365997
H   12   1    -1.07974048864772     3.03851734677796    -2.43674295017013
C   13   6    -4.21607110578555     2.32938802552922     0.11994162256091
H   14   1     4.24440173074564     1.93368664142019    -2.34976285512790
H   15   1     2.15020713235517     1.04714335134846    -4.81494497423699
C   16   6     5.60746363007797    -1.12419643481196    -4.70268606082550
H   17   1    -3.46838323670267     3.50951302338067     1.66946842715333
H   18   1    -5.11873485366228     0.68575958301209     1.04047743976495
C   19   6    -6.18314754751344     3.80909592987882    -1.39656589068747
H   20   1     6.93011263717176    -1.87550812453645    -3.26656317360070
C   21   6     7.06356622236532     0.52877932406334    -6.57829775293605
H   22   1     4.82318879258361    -2.78573437948532    -5.70504560381835
H   23   1    -6.91582688743803     2.61304780074712    -2.95074552451969
H   24   1    -5.26532430573853     5.45420349051338    -2.31005832200284
C   25   6    -8.39941882261433     4.73263980500213     0.21800571437956
H   26   1     7.83338371486801     2.19084139882824    -5.57093109900697
H   27   1     5.73544244039420     1.27376866537418    -8.01071492370229
C   28   6     9.21124858443101    -0.89699110072176    -7.88926949186242
H   29   1    -7.66272760055236     5.92277078003992     1.77035591474408
H   30   1    -9.31497248082589     3.08753015622020     1.12614408368786
C   31   6   -10.35481709231879     6.21833079391143    -1.30905206253246
H   32   1    10.58815905329501    -1.61074586756696    -6.49512691622620
H   33   1    10.23506248045667     0.32468009384095    -9.23072870921204
H   34   1     8.47665842847139    -2.53598436989925    -8.94921964622535
H   35   1    -9.48948872868064     7.90013588951020    -2.18823918416067
H   36   1   -11.93332513000955     6.86460487874102    -0.11255798845995
H   37   1   -11.15126291841033     5.04495968327630    -2.83849898862534
[GTO]
1 0
 s    8 1.00
                 11720  0.00070964594651845
                  1759  0.0054672722921914
                 400.8   0.027823118610189
                 113.7    0.10474773971146
                 37.03    0.28292084635691
                 13.27    0.44849523869833
                 5.025    0.27081688521277
                 1.013    0.01545029160744
 s    8 1.00
                 11720  -0.00031444341168873
                  1759  -0.0024821376810179
                 400.8  -0.012316355381583
                 113.7  -0.050538917343672
                 37.03   -0.13938490331632
                 13.27   -0.32507749481778
                 5.025   -0.22984830758785
                 1.013     1.0953793467883
 s    1 1.00
                0.3023                   1
 p    3 1.00
                  17.7   0.062679166281506
                 3.854    0.33353656587936
                 1.046    0.74123964163973
 p    1 1.00
                0.2753                   1
 d    1 1.00
                 1.185                   1

2 0
 s    3 1.00
                 13.01   0.033498726389998
                 1.962    0.23480080117413
                0.4446     0.8136829578829
 s    1 1.00
                 0.122                   1
 p    1 1.00
                 0.727                   1

3 0
 s    3 1.00
                 13.01   0.033498726389998
                 1.962    0.23480080117413
                0.4446     0.8136829578829
 s    1 1.00
                 0.122                   1
 p    1 1.00
                 0.727                   1

4 0
 s    8 1.00
                 11720  0.00070964594651845
                  1759  0.0054672722921914
                 400.8   0.027823118610189
                 113.7    0.10474773971146
                 37.03    0.28292084635691
                 13.27    0.44849523869833
                 5.025    0.27081688521277
                 1.013    0.01545029160744
 s    8 1.00
                 11720  -0.00031444341168873
                  1759  -0.0024821376810179
                 400.8  -0.012316355381583
                 113.7  -0.050538917343672
                 37.03   -0.13938490331632
                 13.27   -0.32507749481778
                 5.025   -0.22984830758785
                 1.013     1.0953793467883
 s    1 1.00
                0.3023                   1
 p    3 1.00
                  17.7   0.062679166281506
                 3.854    0.33353656587936
                 1.046    0.74123964163973
 p    1 1.00
                0.2753                   1
 d    1 1.00
                 1.185                   1

5 0
 s    8 1.00
                  6665  0.00069158396281299
                  1000  0.0053257961529341
                   228   0.027060721042034
                 64.71    0.10165684614077
                 21.06     0.2745748236174
                 7.495    0.44829431892377
                 2.797    0.28490261071525
                0.5215   0.015194859206082
 s    8 1.00
                  6665  -0.00029326965268655
                  1000  -0.0023180354739745
                   228  -0.011499786038565
                 64.71  -0.046826727009787
                 21.06   -0.12846616875047
                 7.495   -0.30126627246289
                 2.797   -0.25563070233011
                0.5215      1.093793361012
 s    1 1.00
                0.1596                   1
 p    3 1.00
                 9.439   0.056979251590039
                 2.002    0.31320721150073
                0.5456    0.76037674173753
 p    1 1.00
                0.1517                   1
 d    1 1.00
                  0.55                   1

6 0
 s    8 1.00
                  6665  0.00069158396281299
                  1000  0.0053257961529341
                   228   0.027060721042034
                 64.71    0.10165684614077
                 21.06     0.2745748236174
                 7.495    0.44829431892377
                 2.797    0.28490261071525
                0.5215   0.015194859206082
 s    8 1.00
                  6665  -0.00029326965268655
                  1000  -0.0023180354739745
                   228  -0.011499786038565
                 64.71  -0.046826727009787
                 21.06   -0.12846616875047
                 7.495   -0.30126627246289
                 2.797   -0.25563070233011
                0.5215      1.093793361012
 s    1 1.00
                0.1596                   1
 p    3 1.00
                 9.439   0.056979251590039
                 2.002    0.31320721150073
                0.5456    0.76037674173753
 p    1 1.00
                0.1517                   1
 d    1 1.00
                  0.55                   1

7 0
 s    8 1.00
                  6665  0.00069158396281299
                  1000  0.0053257961529341
                   228   0.027060721042034
                 64.71    0.10165684614077
                 21.06     0.2745748236174
                 7.495    0.44829431892377
                 2.797    0.28490261071525
                0.5215   0.015194859206082
 s    8 1.00
                  6665  -0.00029326965268655
                  1000  -0.0023180354739745
                   228  -0.011499786038565
                 64.71  -0.046826727009787
                 21.06   -0.12846616875047
                 7.495   -0.30126627246289
                 2.797   -0.25563070233011
                0.5215      1.093793361012
 s    1 1.00
                0.1596                   1
 p    3 1.00
                 9.439   0.056979251590039
                 2.002    0.31320721150073
                0.5456    0.76037674173753
 p    1 1.00
                0.1517                   1
 d    1 1.00
                  0.55                   1

8 0
 s    3 1.00
                 13.01   0.033498726389998
                 1.962    0.23480080117413
                0.4446     0.8136829578829
 s    1 1.00
                 0.122                   1
 p    1 1.00
                 0.727                   1

9 0
 s    8 1.00
                  6665  0.00069158396281299
                  1000  0.0053257961529341
                   228   0.027060721042034
                 64.71    0.10165684614077
                 21.06     0.2745748236174
                 7.495    0.44829431892377
                 2.797    0.28490261071525
                0.5215   0.015194859206082
 s    8 1.00
                  6665  -0.00029326965268655
                  1000  -0.0023180354739745
                   228  -0.011499786038565
                 64.71  -0.046826727009787
                 21.06   -0.12846616875047
                 7.495   -0.30126627246289
                 2.797   -0.25563070233011
                0.5215      1.093793361012
 s    1 1.00
                0.1596                   1
 p    3 1.00
                 9.439   0.056979251590039
                 2.002    0.31320721150073
                0.5456    0.76037674173753
 p    1 1.00
                0.1517                   1
 d    1 1.00
                  0.55                   1

10 0
 s    3 1.00
                 13.01   0.033498726389998
                 1.962    0.23480080117413
                0.4446     0.8136829578829
 s    1 1.00
                 0.122                   1
 p    1 1.00
                 0.727                   1

11 0
 s    3 1.00
                 13.01   0.033498726389998
                 1.962    0.23480080117413
                0.4446     0.8136829578829
 s    1 1.00
                 0.122                   1
 p    1 1.00
                 0.727                   1

12 0
 s    3 1.00
                 13.01   0.033498726389998
                 1.962    0.23480080117413
                0.4446     0.8136829578829
 s    1 1.00
                 0.122                   1
 p    1 1.00
                 0.727                   1

13 0
 s    8 1.00
                  6665  0.00069158396281299
                  1000  0.0053257961529341
                   228   0.027060721042034
                 64.71    0.10165684614077
                 21.06     0.2745748236174
                 7.495    0.44829431892377
                 2.797    0.28490261071525
                0.5215   0.015194859206082
 s    8 1.00
                  6665  -0.00029326965268655
                  1000  -0.0023180354739745
                   228  -0.011499786038565
                 64.71  -0.046826727009787
                 21.06   -0.12846616875047
                 7.495   -0.30126627246289
                 2.797   -0.25563070233011
                0.5215      1.093793361012
 s    1 1.00
                0.1596                   1
 p    3 1.00
                 9.439   0.056979251590039
                 2.002    0.31320721150073
                0.5456    0.76037674173753
 p    1 1.00
                0.1517                   1
 d    1 1.00
                  0.55                   1

14 0
 s    3 1.00
                 13.01   0.033498726389998
                 1.962    0.23480080117413
                0.4446     0.8136829578829
 s    1 1.00
                 0.122                   1
 p    1 1.00
                 0.727                   1

15 0
 s    3 1.00
                 13.01   0.033498726389998
                 1.962    0.23480080117413
                0.4446     0.8136829578829
 s    1 1.00
                 0.122                   1
 p    1 1.00
                 0.727                   1

16 0
 s    8 1.00
                  6665  0.00069158396281299
                  1000  0.0053257961529341
                   228   0.027060721042034
                 64.71    0.10165684614077
                 21.06     0.2745748236174
                 7.495    0.44829431892377
                 2.797    0.28490261071525
                0.5215   0.015194859206082
 s    8 1.00
                  6665  -0.00029326965268655
                  1000  -0.0023180354739745
                   228  -0.011499786038565
                 64.71  -0.046826727009787
                 21.06   -0.12846616875047
                 7.495   -0.30126627246289
                 2.797   -0.25563070233011
                0.5215      1.093793361012
 s    1 1.00
                0.1596                   1
 p    3 1.00
                 9.439   0.056979251590039
                 2.002    0.31320721150073
                0.5456    0.76037674173753
 p    1 1.00
                0.1517                   1
 d    1 1.00
                  0.55                   1

17 0
 s    3 1.00
                 13.01   0.033498726389998
                 1.962    0.23480080117413
                0.4446     0.8136829578829
 s    1 1.00
                 0.122                   1
 p    1 1.00
                 0.727                   1

18 0
 s    3 1.00
                 13.01   0.033498726389998
                 1.962    0.23480080117413
                0.4446     0.8136829578829
 s    1 1.00
                 0.122                   1
 p    1 1.00
                 0.727                   1

19 0
 s    8 1.00
                  6665  0.00069158396281299
                  1000  0.0053257961529341
                   228   0.027060721042034
                 64.71    0.10165684614077
                 21.06     0.2745748236174
                 7.495    0.44829431892377
                 2.797    0.28490261071525
                0.5215   0.015194859206082
 s    8 1.00
                  6665  -0.00029326965268655
                  1000  -0.0023180354739745
                   228  -0.011499786038565
                 64.71  -0.046826727009787
                 21.06   -0.12846616875047
                 7.495   -0.30126627246289
                 2.797   -0.25563070233011
                0.5215      1.093793361012
 s    1 1.00
                0.1596                   1
 p    3 1.00
                 9.439   0.056979251590039
                 2.002    0.31320721150073
                0.5456    0.76037674173753
 p    1 1.00
                0.1517                   1
 d    1 1.00
                  0.55                   1

20 0
 s    3 1.00
                 13.01   0.033498726389998
                 1.962    0.23480080117413
                0.4446     0.8136829578829
 s    1 1.00
                 0.122                   1
 p    1 1.00
                 0.727                   1

21 0
 s    8 1.00
                  6665  0.00069158396281299
                  1000  0.0053257961529341
                   228   0.027060721042034
                 64.71    0.10165684614077
                 21.06     0.2745748236174
                 7.495    0.44829431892377
                 2.797    0.28490261071525
                0.5215   0.015194859206082
 s    8 1.00
                  6665  -0.00029326965268655
                  1000  -0.0023180354739745
                   228  -0.011499786038565
                 64.71  -0.046826727009787
                 21.06   -0.12846616875047
                 7.495   -0.30126627246289
                 2.797   -0.25563070233011
                0.5215      1.093793361012
 s    1 1.00
                0.1596                   1
 p    3 1.00
                 9.439   0.056979251590039
                 2.002    0.31320721150073
                0.5456    0.76037674173753
 p    1 1.00
                0.1517                   1
 d    1 1.00
                  0.55                   1

22 0
 s    3 1.00
                 13.01   0.033498726389998
                 1.962    0.23480080117413
                0.4446     0.8136829578829
 s    1 1.00
                 0.122                   1
 p    1 1.00
                 0.727                   1

23 0
 s    3 1.00
                 13.01   0.033498726389998
                 1.962    0.23480080117413
                0.4446     0.8136829578829
 s    1 1.00
                 0.122                   1
 p    1 1.00
                 0.727                   1

24 0
 s    3 1.00
                 13.01   0.033498726389998
                 1.962    0.23480080117413
                0.4446     0.8136829578829
 s    1 1.00
                 0.122                   1
 p    1 1.00
                 0.727                   1

25 0
 s    8 1.00
                  6665  0.00069158396281299
                  1000  0.0053257961529341
                   228   0.027060721042034
                 64.71    0.10165684614077
                 21.06     0.2745748236174
                 7.495    0.44829431892377
                 2.797    0.28490261071525
                0.5215   0.015194859206082
 s    8 1.00
                  6665  -0.00029326965268655
                  1000  -0.0023180354739745
                   228  -0.011499786038565
                 64.71  -0.046826727009787
                 21.06   -0.12846616875047
                 7.495   -0.30126627246289
                 2.797   -0.25563070233011
                0.5215      1.093793361012
 s    1 1.00
                0.1596                   1
 p    3 1.00
                 9.439   0.056979251590039
                 2.002    0.31320721150073
                0.5456    0.76037674173753
 p    1 1.00
                0.1517                   1
 d    1 1.00
                  0.55                   1

26 0
 s    3 1.00
                 13.01   0.033498726389998
                 1.962    0.23480080117413
                0.4446     0.8136829578829
 s    1 1.00
                 0.122                   1
 p    1 1.00
                 0.727                   1

27 0
 s    3 1.00
                 13.01   0.033498726389998
                 1.962    0.23480080117413
                0.4446     0.8136829578829
 s    1 1.00
                 0.122                   1
 p    1 1.00
                 0.727                   1

28 0
 s    8 1.00
                  6665  0.00069158396281299
                  1000  0.0053257961529341
                   228   0.027060721042034
                 64.71    0.10165684614077
                 21.06     0.2745748236174
                 7.495    0.44829431892377
                 2.797    0.28490261071525
                0.5215   0.015194859206082
 s    8 1.00
                  6665  -0.00029326965268655
                  1000  -0.0023180354739745
                   228  -0.011499786038565
                 64.71  -0.046826727009787
                 21.06   -0.12846616875047
                 7.495   -0.30126627246289
                 2.797   -0.25563070233011
                0.5215      1.093793361012
 s    1 1.00
                0.1596                   1
 p    3 1.00
                 9.439   0.056979251590039
                 2.002    0.31320721150073
                0.5456    0.76037674173753
 p    1 1.00
                0.1517                   1
 d    1 1.00
                  0.55                   1

29 0
 s    3 1.00
                 13.01   0.033498726389998
                 1.962    0.23480080117413
                0.4446     0.8136829578829
 s    1 1.00
                 0.122                   1
 p    1 1.00
                 0.727                   1

30 0
 s    3 1.00
                 13.01   0.033498726389998
                 1.962    0.23480080117413
                0.4446     0.8136829578829
 s    1 1.00
                 0.122                   1
 p    1 1.00
                 0.727                   1

31 0
 s    8 1.00
                  6665  0.00069158396281299
                  1000  0.0053257961529341
                   228   0.027060721042034
                 64.71    0.10165684614077
                 21.06     0.2745748236174
                 7.495    0.44829431892377
                 2.797    0.28490261071525
                0.5215   0.015194859206082
 s    8 1.00
                  6665  -0.00029326965268655
                  1000  -0.0023180354739745
                   228  -0.011499786038565
                 64.71  -0.046826727009787
                 21.06   -0.12846616875047
                 7.495   -0.30126627246289
                 2.797   -0.25563070233011
                0.5215      1.093793361012
 s    1 1.00
                0.1596                   1
 p    3 1.00
                 9.439   0.056979251590039
                 2.002    0.31320721150073
                0.5456    0.76037674173753
 p    1 1.00
                0.1517                   1
 d    1 1.00
                  0.55                   1

32 0
 s    3 1.00
                 13.01   0.033498726389998
                 1.962    0.23480080117413
                0.4446     0.8136829578829
 s    1 1.00
                 0.122                   1
 p    1 1.00
                 0.727                   1

33 0
 s    3 1.00
                 13.01   0.033498726389998
                 1.962    0.23480080117413
                0.4446     0.8136829578829
 s    1 1.00
                 0.122                   1
 p    1 1.00
                 0.727                   1

34 0
 s    3 1.00
                 13.01   0.033498726389998
                 1.962    0.23480080117413
                0.4446     0.8136829578829
 s    1 1.00
                 0.122                   1
 p    1 1.00
                 0.727                   1

35 0
 s    3 1.00
                 13.01   0.033498726389998
                 1.962    0.23480080117413
                0.4446     0.8136829578829
 s    1 1.00
                 0.122                   1
 p    1 1.00
                 0.727                   1

36 0
 s    3 1.00
                 13.01   0.033498726389998
                 1.962    0.23480080117413
                0.4446     0.8136829578829
 s    1 1.00
                 0.122                   1
 p    1 1.00
                 0.727                   1

37 0
 s    3 1.00
                 13.01   0.033498726389998
                 1.962    0.23480080117413
                0.4446     0.8136829578829
 s    1 1.00
                 0.122                   1
 p    1 1.00
                 0.727                   1

[5d]
[7f]
[9g]

[MO]
 Sym= A
 Ene=               0
 Spin= Alpha
 Occup=    1.00000
   1    -2.3239171474935e-07
   2    -1.4652682777501e-06
   3    3.1156913105669e-06
   4    -3.5242183090339e-07
   5    5.2278177303905e-07
   6    -1.2079733471849e-06
   7    -2.2640299948756e-07
   8    -2.5958404295689e-08
   9    -3.1987562658024e-06
  10    2.0636916122661e-07
  11    6.3400929541218e-09
  12    -3.4567846607184e-08
  13    -2.8945843572467e-08
  14    -8.0327838491138e-09
  15    6.805110198878e-07
  16    -7.9644857720362e-06
  17    -1.8970978034709e-08
  18    3.1677226784765e-08
  19    -9.4721298316505e-07
  20    -2.4791177445204e-07
  21    1.6433381946341e-06
  22    -2.6144482666406e-08
  23    1.3737272523841e-07
  24    5.9673614663672e-08
  25    2.3315567921196e-06
  26    4.3433454257309e-05
  27    6.8032327840914e-05
  28    -9.9900075587141e-05
  29    -3.6594076278153e-06
  30    -1.8521500309325e-05
  31    -0.00013894230356651
  32    3.0376945148392e-05
  33    -5.1797324779896e-05
  34    5.6347176540374e-06
  35    7.6576370249464e-06
  36    -3.9425418763553e-06
  37    -4.388830680639e-06
  38    6.6327169923896e-06
  39    6.3064401192412e-05
  40    0.00023271992989299
  41    -0.00070555064421437
  42    -0.00017471084625976
  43    0.00014528672277788
  44    -0.00014754008319081
  45    0.00038771328326779
  46    -0.000273346863203
  47    0.0002446540094752
  48    3.1838406791857e-05
  49    -2.8974567313962e-05
  50    8.7814542506184e-06
  51    -3.4006401839047e-05
  52     7.06052753598e-05
  53    1.609797908776e-05
  54    -4.1841073595029e-05
  55    -0.00026461197035086
  56    9.8750386085184e-05
  57    -7.4364628069852e-05
  58    -3.930246399494e-05
  59    0.00013438703709964
  60    -0.00013382240437261
  61    -0.00019309802341032
  62    -1.2862895171969e-05
  63    1.4830522845688e-05
  64    -8.9485231838019e-06
  65    3.1685964431303e-06
  66    -1.5298783916299e-05
  67    -0.00010557930425887
  68    -0.00051258693766415
  69    0.00035974217305566
  70    0.00056296203376298
  71    -0.00022012323699718
  72    -0.00046393177740399
  73    0.0012384125961209
  74    -0.00072769563650188
  75    0.00029226929115716
  76    -7.138052160359e-05
  77    7.8840878643253e-05
  78    -3.0344379246488e-05
  79    3.8017471537635e-05
  80    -8.6666095854941e-05
  81    8.3288419227122e-05
  82    6.3215850612839e-05
  83    1.5205715096591e-05
  84    -8.9804123352919e-06
  85    -2.8824971014778e-06
  86    -4.8079337609079e-07
  87    -2.0416058990052e-05
  88    -5.1260088204546e-05
  89    2.1917373118154e-05
  90    4.4206607484915e-06
  91    -4.3569417379803e-06
  92    7.2646048898085e-05
  93    4.2310421304452e-05
  94    7.8621072219331e-05
  95    -2.0743316340386e-06
  96    -2.2212467492531e-06
  97    4.4176066398881e-06
  98    -6.0691308410705e-07
  99    -3.1827792658899e-06
 100    -2.0256318543539e-05
 101    -3.7673480436438e-05
 102    -6.0440284575943e-06
 103    -7.9777596885727e-07
 104    4.6445351770699e-06
 105    -4.6753752053678e-05
 106    1.9231104029405e-05
 107    -1.3394807549727e-05
 108    2.5942831651525e-05
 109    -3.4108752470311e-05
 110    -6.8489812005255e-05
 111    -1.6857060471623e-05
 112    -1.8144495338197e-05
 113    5.1257825224384e-06
 114    -3.7097841104244e-05
 115    0.00016178009523154
 116    0.0011615256039775
 117    0.0009983780761634
 118    -0.0013618999153884
 119    0.00093472880314516
 120    -0.00063175034907214
 121    -0.0013969609377001
 122    0.00074637721864637
 123    4.4936542241119e-05
 124    1.5535812646531e-05
 125    6.1891963729013e-05
 126    -9.0505513841711e-07
 127    -6.1632030131549e-05
 128    9.0662031549859e-05
 129    -5.6302993075845e-06
 130    -2.6548845184699e-05
 131    -3.4222161759745e-06
 132    3.9947600837769e-06
 133    -1.192336348677e-06
 134    7.1583999950292e-06
 135    5.2350520511468e-05
 136    2.8026172347164e-06
 137    -3.3616564488551e-06
 138    -6.2115845860133e-09
 139    6.0124317778324e-06
 140    3.1525201815019e-06
 141    -3.804713975368e-05
 142    -2.2395563028532e-06
 143    3.3619898780929e-06
 144    -5.1153698516675e-06
 145    -2.0798374768218e-05
 146    3.496135141872e-06
 147    -5.413692366453e-05
 148    -9.30208327612e-07
 149    9.3688927224379e-07
 150    -2.4906516277392e-06
 151    -5.1767189746571e-07
 152    2.5736585568427e-06
 153    0.00026835483501175
 154    9.605577919548e-05
 155    -4.745413129241e-05
 156    5.4719661649418e-06
 157    -6.8535640248497e-05
 158    0.00021471479196886
 159    4.9596716055289e-07
 160    -1.0501524175546e-05
 161    5.8131222688268e-05
 162    -5.4845182908838e-05
 163    -0.0002427369674345
 164    -0.0015084424957988
 165    -0.0033493145494992
 166    0.0018801271585264
 167    -0.0010295349725948
 168    -0.00078090684880999
 169     0.003808028688699
 170    -0.0021920753336395
 171    -0.00034131680985577
 172    -0.00059198631916402
 173    0.00047968669205924
 174    -7.0752431460179e-05
 175    0.0001201511206395
 176    -0.00048713706485563
 177    -5.4621776123214e-06
 178    3.2675528599662e-05
 179    -2.3328509516424e-06
 180    2.0789255188191e-09
 181    1.1367761741123e-06
 182    4.7212554651946e-07
 183    3.5657016825587e-06
 184    6.6437530115598e-06
 185    -3.4877369327179e-06
 186    -4.9969008270777e-06
 187    3.1167984996548e-06
 188    9.3495271048875e-06
 189    -7.5723912169656e-07
 190    3.6812358522091e-06
 191    7.9690517227439e-07
 192    3.5305237863179e-07
 193    -6.6330044545378e-08
 194    9.0714637314796e-08
 195    -1.7536151452462e-06
 196    -9.2520880163924e-07
 197    -9.7653304248412e-06
 198    -3.3646886376817e-07
 199    -1.8160211961411e-06
 200    1.6575760049423e-06
 201    -0.00096985266342623
 202    -0.00064098507972405
 203    -3.4919029740719e-05
 204    -2.5862568122107e-05
 205    -0.000111674980636
 206    -0.0013209359657246
 207    -0.0010472745809658
 208    2.9895378278078e-05
 209    7.1345915830791e-05
 210    -0.00010133445171998
 211    0.00077546590435151
 212    0.0074528389584303
 213    0.0065342043270924
 214    -0.013634745036086
 215     0.012561546145334
 216    -0.012808393335572
 217    -0.0054448597079736
 218    0.0055960937708006
 219    -0.0071119650278082
 220    -0.0001036587842828
 221     0.001326709963815
 222    -0.00095473233056771
 223    0.00044754146950948
 224    -0.0014477574303319
 225    -9.8661926372953e-07
 226    -2.844976810425e-06
 227    -4.7563260979276e-07
 228    -4.5705842595459e-07
 229    5.0609094665281e-07
 230    -4.461133706791e-07
 231    -7.0014101078106e-06
 232    -3.7415362938115e-07
 233    -9.329150837276e-08
 234    -1.0697344822051e-06
 235    7.5710947360517e-07
 236    1.0676072289261e-06
 237    -6.8076778197054e-06
 238    2.1654080217032e-07
 239    6.6922725931149e-07
 240    6.3890213700526e-07
 241    6.0977148870858e-06
 242    -1.2308323662719e-06
 243    -5.7593207090577e-06
 244    4.9999706979686e-08
 245    7.0252329366396e-07
 246    -6.1557881012065e-07
 247    3.7502075412025e-07
 248    5.0558952872446e-08
 249    -0.0027597603052728
 250    -0.0023387419591601
 251    -0.00022712232365789
 252    0.00030553686152522
 253    -0.00015532608176998
 254    -0.0049445132559627
 255    -0.0033169629595703
 256    -0.00038716578326649
 257    2.9194670665377e-05
 258    -9.43649825886e-05
 259      -1.0013154623831
 260    0.0079576358655727
 261     0.018161996174497
 262     0.013995941476201
 263    -0.010393114867811