[Molden Format]
made by pyscf v[2.0.1]
[Atoms] (AU)
C   1   6     0.69100024066471     0.64692934207205    -3.48223131169301
H   2   1     2.68052439830868     1.13355088658700    -3.25784032593313
C   3   6    -0.36286361513219     0.85440132524594    -5.97030179418974
H   4   1    -2.35448549047279     0.36322488579172    -6.17995817793143
C   5   6     0.93697958957450     1.61209284601821    -8.05828437677121
H   6   1     0.93570604399073     3.60645829547735    -8.57155587183010
C   7   6     2.33064164489587    -0.08500019610028    -9.65009622470686
H   8   1     2.31545752956704    -2.07726916449957    -9.11124928966168
H   9   1     1.55630230933075    -1.92953025305990    12.99630010416247
C   10   6     0.75233899775814    -2.21270439606481    11.10705728102219
H   11   1    -0.43433408177274    -3.90944857546550    11.22216085340412
C   12   6     2.86362581178706    -2.63237380607947     9.17926416456045
H   13   1     4.39038949912609    -1.24955421540245     9.49899813497433
H   14   1     3.74629220191363    -4.48798724300892     9.47414880959024
C   15   6     2.02478325613682    -2.42177285709634     6.44560829588644
C   16   6     3.88048732735477    -3.58795445234514     4.61402886975252
C   17   6    -0.18412382258602    -1.30464291234259     5.76021113872346
C   18   6    -2.10044360464350    -0.26837831858460     7.71610340967100
C   19   6    -3.08956938670431     2.35282328359417     6.88693925039594
C   20   6    -4.37372924086464    -2.09766595989678     7.93610724222001
C   21   6    -0.83850430601230     0.06372213486173    10.33002307638377
H   22   1     0.38411922151109     1.74281358582432    10.27380136542181
H   23   1    -2.30980003007874     0.45460143924521    11.73986301809809
H   24   1     4.58527064644668    -5.38706904487420     5.36778158031719
H   25   1     5.54944938085014    -2.37631462192748     4.35398898413318
H   26   1     3.06633019150423    -3.94118377050688     2.75255466040884
H   27   1    -4.17727778763735     2.26573369139522     5.12914900961283
H   28   1    -1.52662344944051     3.68001877445626     6.59540397144508
H   29   1    -4.32916174397830     3.13643051467482     8.35225460090378
H   30   1    -5.32329548508442    -2.36691813602939     6.11583672749896
H   31   1    -5.77989366602257    -1.33896741843465     9.25748940450990
H   32   1    -3.79310905208926    -3.96389819310853     8.61386170102686
C   33   6    -1.01100794811226    -1.06331657314144     3.11929490449947
C   34   6     0.37686231036534    -0.33275864505552     1.09165013605873
H   35   1    -3.01671213906703    -1.40297922279997     2.77827895090944
C   36   6    -0.64382707979370    -0.11591880174385    -1.42063131251064
H   37   1     2.35569259782137     0.17174499283897     1.33641070251401
H   38   1    -2.63317482980319    -0.60229203511219    -1.66119700387645
C   39   6     3.64869579482306     0.58263290243353   -11.74621951745329
C   40   6     5.00865186237336    -1.29151691020822   -13.24458681490645
H   41   1     3.74083961582251     2.53414495508714   -12.38721761884598
O   42   8     6.22738846457655    -0.82464446464225   -15.14656876600025
H   43   1     4.86298794977594    -3.26455446446118   -12.51927050350916
[GTO]
1 0
 s    6 1.00
             3047.5249  0.0018347001629433
             457.36951    0.01403730124668
             103.94869   0.068842606114048
             29.210155    0.23218442062076
              9.286663    0.46794134155879
              3.163927    0.36231203217765
 s    3 1.00
             7.8682724   -0.11933240861517
             1.8812885   -0.16085421161283
             0.5442493     1.1434564825515
 s    1 1.00
             0.1687144                   1
 p    3 1.00
             7.8682724   0.068999095584993
             1.8812885    0.31642397975315
             0.5442493    0.74430825237435
 p    1 1.00
             0.1687144                   1
 d    1 1.00
                   0.8                   1

2 0
 s    3 1.00
             18.731137    0.03349459952309
             2.8253937    0.23472694665786
             0.6401217    0.81375731841339
 s    1 1.00
             0.1612778                   1

3 0
 s    6 1.00
             3047.5249  0.0018347001629433
             457.36951    0.01403730124668
             103.94869   0.068842606114048
             29.210155    0.23218442062076
              9.286663    0.46794134155879
              3.163927    0.36231203217765
 s    3 1.00
             7.8682724   -0.11933240861517
             1.8812885   -0.16085421161283
             0.5442493     1.1434564825515
 s    1 1.00
             0.1687144                   1
 p    3 1.00
             7.8682724   0.068999095584993
             1.8812885    0.31642397975315
             0.5442493    0.74430825237435
 p    1 1.00
             0.1687144                   1
 d    1 1.00
                   0.8                   1

4 0
 s    3 1.00
             18.731137    0.03349459952309
             2.8253937    0.23472694665786
             0.6401217    0.81375731841339
 s    1 1.00
             0.1612778                   1

5 0
 s    6 1.00
             3047.5249  0.0018347001629433
             457.36951    0.01403730124668
             103.94869   0.068842606114048
             29.210155    0.23218442062076
              9.286663    0.46794134155879
              3.163927    0.36231203217765
 s    3 1.00
             7.8682724   -0.11933240861517
             1.8812885   -0.16085421161283
             0.5442493     1.1434564825515
 s    1 1.00
             0.1687144                   1
 p    3 1.00
             7.8682724   0.068999095584993
             1.8812885    0.31642397975315
             0.5442493    0.74430825237435
 p    1 1.00
             0.1687144                   1
 d    1 1.00
                   0.8                   1

6 0
 s    3 1.00
             18.731137    0.03349459952309
             2.8253937    0.23472694665786
             0.6401217    0.81375731841339
 s    1 1.00
             0.1612778                   1

7 0
 s    6 1.00
             3047.5249  0.0018347001629433
             457.36951    0.01403730124668
             103.94869   0.068842606114048
             29.210155    0.23218442062076
              9.286663    0.46794134155879
              3.163927    0.36231203217765
 s    3 1.00
             7.8682724   -0.11933240861517
             1.8812885   -0.16085421161283
             0.5442493     1.1434564825515
 s    1 1.00
             0.1687144                   1
 p    3 1.00
             7.8682724   0.068999095584993
             1.8812885    0.31642397975315
             0.5442493    0.74430825237435
 p    1 1.00
             0.1687144                   1
 d    1 1.00
                   0.8                   1

8 0
 s    3 1.00
             18.731137    0.03349459952309
             2.8253937    0.23472694665786
             0.6401217    0.81375731841339
 s    1 1.00
             0.1612778                   1

9 0
 s    3 1.00
             18.731137    0.03349459952309
             2.8253937    0.23472694665786
             0.6401217    0.81375731841339
 s    1 1.00
             0.1612778                   1

10 0
 s    6 1.00
             3047.5249  0.0018347001629433
             457.36951    0.01403730124668
             103.94869   0.068842606114048
             29.210155    0.23218442062076
              9.286663    0.46794134155879
              3.163927    0.36231203217765
 s    3 1.00
             7.8682724   -0.11933240861517
             1.8812885   -0.16085421161283
             0.5442493     1.1434564825515
 s    1 1.00
             0.1687144                   1
 p    3 1.00
             7.8682724   0.068999095584993
             1.8812885    0.31642397975315
             0.5442493    0.74430825237435
 p    1 1.00
             0.1687144                   1
 d    1 1.00
                   0.8                   1

11 0
 s    3 1.00
             18.731137    0.03349459952309
             2.8253937    0.23472694665786
             0.6401217    0.81375731841339
 s    1 1.00
             0.1612778                   1

12 0
 s    6 1.00
             3047.5249  0.0018347001629433
             457.36951    0.01403730124668
             103.94869   0.068842606114048
             29.210155    0.23218442062076
              9.286663    0.46794134155879
              3.163927    0.36231203217765
 s    3 1.00
             7.8682724   -0.11933240861517
             1.8812885   -0.16085421161283
             0.5442493     1.1434564825515
 s    1 1.00
             0.1687144                   1
 p    3 1.00
             7.8682724   0.068999095584993
             1.8812885    0.31642397975315
             0.5442493    0.74430825237435
 p    1 1.00
             0.1687144                   1
 d    1 1.00
                   0.8                   1

13 0
 s    3 1.00
             18.731137    0.03349459952309
             2.8253937    0.23472694665786
             0.6401217    0.81375731841339
 s    1 1.00
             0.1612778                   1

14 0
 s    3 1.00
             18.731137    0.03349459952309
             2.8253937    0.23472694665786
             0.6401217    0.81375731841339
 s    1 1.00
             0.1612778                   1

15 0
 s    6 1.00
             3047.5249  0.0018347001629433
             457.36951    0.01403730124668
             103.94869   0.068842606114048
             29.210155    0.23218442062076
              9.286663    0.46794134155879
              3.163927    0.36231203217765
 s    3 1.00
             7.8682724   -0.11933240861517
             1.8812885   -0.16085421161283
             0.5442493     1.1434564825515
 s    1 1.00
             0.1687144                   1
 p    3 1.00
             7.8682724   0.068999095584993
             1.8812885    0.31642397975315
             0.5442493    0.74430825237435
 p    1 1.00
             0.1687144                   1
 d    1 1.00
                   0.8                   1

16 0
 s    6 1.00
             3047.5249  0.0018347001629433
             457.36951    0.01403730124668
             103.94869   0.068842606114048
             29.210155    0.23218442062076
              9.286663    0.46794134155879
              3.163927    0.36231203217765
 s    3 1.00
             7.8682724   -0.11933240861517
             1.8812885   -0.16085421161283
             0.5442493     1.1434564825515
 s    1 1.00
             0.1687144                   1
 p    3 1.00
             7.8682724   0.068999095584993
             1.8812885    0.31642397975315
             0.5442493    0.74430825237435
 p    1 1.00
             0.1687144                   1
 d    1 1.00
                   0.8                   1

17 0
 s    6 1.00
             3047.5249  0.0018347001629433
             457.36951    0.01403730124668
             103.94869   0.068842606114048
             29.210155    0.23218442062076
              9.286663    0.46794134155879
              3.163927    0.36231203217765
 s    3 1.00
             7.8682724   -0.11933240861517
             1.8812885   -0.16085421161283
             0.5442493     1.1434564825515
 s    1 1.00
             0.1687144                   1
 p    3 1.00
             7.8682724   0.068999095584993
             1.8812885    0.31642397975315
             0.5442493    0.74430825237435
 p    1 1.00
             0.1687144                   1
 d    1 1.00
                   0.8                   1

18 0
 s    6 1.00
             3047.5249  0.0018347001629433
             457.36951    0.01403730124668
             103.94869   0.068842606114048
             29.210155    0.23218442062076
              9.286663    0.46794134155879
              3.163927    0.36231203217765
 s    3 1.00
             7.8682724   -0.11933240861517
             1.8812885   -0.16085421161283
             0.5442493     1.1434564825515
 s    1 1.00
             0.1687144                   1
 p    3 1.00
             7.8682724   0.068999095584993
             1.8812885    0.31642397975315
             0.5442493    0.74430825237435
 p    1 1.00
             0.1687144                   1
 d    1 1.00
                   0.8                   1

19 0
 s    6 1.00
             3047.5249  0.0018347001629433
             457.36951    0.01403730124668
             103.94869   0.068842606114048
             29.210155    0.23218442062076
              9.286663    0.46794134155879
              3.163927    0.36231203217765
 s    3 1.00
             7.8682724   -0.11933240861517
             1.8812885   -0.16085421161283
             0.5442493     1.1434564825515
 s    1 1.00
             0.1687144                   1
 p    3 1.00
             7.8682724   0.068999095584993
             1.8812885    0.31642397975315
             0.5442493    0.74430825237435
 p    1 1.00
             0.1687144                   1
 d    1 1.00
                   0.8                   1

20 0
 s    6 1.00
             3047.5249  0.0018347001629433
             457.36951    0.01403730124668
             103.94869   0.068842606114048
             29.210155    0.23218442062076
              9.286663    0.46794134155879
              3.163927    0.36231203217765
 s    3 1.00
             7.8682724   -0.11933240861517
             1.8812885   -0.16085421161283
             0.5442493     1.1434564825515
 s    1 1.00
             0.1687144                   1
 p    3 1.00
             7.8682724   0.068999095584993
             1.8812885    0.31642397975315
             0.5442493    0.74430825237435
 p    1 1.00
             0.1687144                   1
 d    1 1.00
                   0.8                   1

21 0
 s    6 1.00
             3047.5249  0.0018347001629433
             457.36951    0.01403730124668
             103.94869   0.068842606114048
             29.210155    0.23218442062076
              9.286663    0.46794134155879
              3.163927    0.36231203217765
 s    3 1.00
             7.8682724   -0.11933240861517
             1.8812885   -0.16085421161283
             0.5442493     1.1434564825515
 s    1 1.00
             0.1687144                   1
 p    3 1.00
             7.8682724   0.068999095584993
             1.8812885    0.31642397975315
             0.5442493    0.74430825237435
 p    1 1.00
             0.1687144                   1
 d    1 1.00
                   0.8                   1

22 0
 s    3 1.00
             18.731137    0.03349459952309
             2.8253937    0.23472694665786
             0.6401217    0.81375731841339
 s    1 1.00
             0.1612778                   1

23 0
 s    3 1.00
             18.731137    0.03349459952309
             2.8253937    0.23472694665786
             0.6401217    0.81375731841339
 s    1 1.00
             0.1612778                   1

24 0
 s    3 1.00
             18.731137    0.03349459952309
             2.8253937    0.23472694665786
             0.6401217    0.81375731841339
 s    1 1.00
             0.1612778                   1

25 0
 s    3 1.00
             18.731137    0.03349459952309
             2.8253937    0.23472694665786
             0.6401217    0.81375731841339
 s    1 1.00
             0.1612778                   1

26 0
 s    3 1.00
             18.731137    0.03349459952309
             2.8253937    0.23472694665786
             0.6401217    0.81375731841339
 s    1 1.00
             0.1612778                   1

27 0
 s    3 1.00
             18.731137    0.03349459952309
             2.8253937    0.23472694665786
             0.6401217    0.81375731841339
 s    1 1.00
             0.1612778                   1

28 0
 s    3 1.00
             18.731137    0.03349459952309
             2.8253937    0.23472694665786
             0.6401217    0.81375731841339
 s    1 1.00
             0.1612778                   1

29 0
 s    3 1.00
             18.731137    0.03349459952309
             2.8253937    0.23472694665786
             0.6401217    0.81375731841339
 s    1 1.00
             0.1612778                   1

30 0
 s    3 1.00
             18.731137    0.03349459952309
             2.8253937    0.23472694665786
             0.6401217    0.81375731841339
 s    1 1.00
             0.1612778                   1

31 0
 s    3 1.00
             18.731137    0.03349459952309
             2.8253937    0.23472694665786
             0.6401217    0.81375731841339
 s    1 1.00
             0.1612778                   1

32 0
 s    3 1.00
             18.731137    0.03349459952309
             2.8253937    0.23472694665786
             0.6401217    0.81375731841339
 s    1 1.00
             0.1612778                   1

33 0
 s    6 1.00
             3047.5249  0.0018347001629433
             457.36951    0.01403730124668
             103.94869   0.068842606114048
             29.210155    0.23218442062076
              9.286663    0.46794134155879
              3.163927    0.36231203217765
 s    3 1.00
             7.8682724   -0.11933240861517
             1.8812885   -0.16085421161283
             0.5442493     1.1434564825515
 s    1 1.00
             0.1687144                   1
 p    3 1.00
             7.8682724   0.068999095584993
             1.8812885    0.31642397975315
             0.5442493    0.74430825237435
 p    1 1.00
             0.1687144                   1
 d    1 1.00
                   0.8                   1

34 0
 s    6 1.00
             3047.5249  0.0018347001629433
             457.36951    0.01403730124668
             103.94869   0.068842606114048
             29.210155    0.23218442062076
              9.286663    0.46794134155879
              3.163927    0.36231203217765
 s    3 1.00
             7.8682724   -0.11933240861517
             1.8812885   -0.16085421161283
             0.5442493     1.1434564825515
 s    1 1.00
             0.1687144                   1
 p    3 1.00
             7.8682724   0.068999095584993
             1.8812885    0.31642397975315
             0.5442493    0.74430825237435
 p    1 1.00
             0.1687144                   1
 d    1 1.00
                   0.8                   1

35 0
 s    3 1.00
             18.731137    0.03349459952309
             2.8253937    0.23472694665786
             0.6401217    0.81375731841339
 s    1 1.00
             0.1612778                   1

36 0
 s    6 1.00
             3047.5249  0.0018347001629433
             457.36951    0.01403730124668
             103.94869   0.068842606114048
             29.210155    0.23218442062076
              9.286663    0.46794134155879
              3.163927    0.36231203217765
 s    3 1.00
             7.8682724   -0.11933240861517
             1.8812885   -0.16085421161283
             0.5442493     1.1434564825515
 s    1 1.00
             0.1687144                   1
 p    3 1.00
             7.8682724   0.068999095584993
             1.8812885    0.31642397975315
             0.5442493    0.74430825237435
 p    1 1.00
             0.1687144                   1
 d    1 1.00
                   0.8                   1

37 0
 s    3 1.00
             18.731137    0.03349459952309
             2.8253937    0.23472694665786
             0.6401217    0.81375731841339
 s    1 1.00
             0.1612778                   1

38 0
 s    3 1.00
             18.731137    0.03349459952309
             2.8253937    0.23472694665786
             0.6401217    0.81375731841339
 s    1 1.00
             0.1612778                   1

39 0
 s    6 1.00
             3047.5249  0.0018347001629433
             457.36951    0.01403730124668
             103.94869   0.068842606114048
             29.210155    0.23218442062076
              9.286663    0.46794134155879
              3.163927    0.36231203217765
 s    3 1.00
             7.8682724   -0.11933240861517
             1.8812885   -0.16085421161283
             0.5442493     1.1434564825515
 s    1 1.00
             0.1687144                   1
 p    3 1.00
             7.8682724   0.068999095584993
             1.8812885    0.31642397975315
             0.5442493    0.74430825237435
 p    1 1.00
             0.1687144                   1
 d    1 1.00
                   0.8                   1

40 0
 s    6 1.00
             3047.5249  0.0018347001629433
             457.36951    0.01403730124668
             103.94869   0.068842606114048
             29.210155    0.23218442062076
              9.286663    0.46794134155879
              3.163927    0.36231203217765
 s    3 1.00
             7.8682724   -0.11933240861517
             1.8812885   -0.16085421161283
             0.5442493     1.1434564825515
 s    1 1.00
             0.1687144                   1
 p    3 1.00
             7.8682724   0.068999095584993
             1.8812885    0.31642397975315
             0.5442493    0.74430825237435
 p    1 1.00
             0.1687144                   1
 d    1 1.00
                   0.8                   1

41 0
 s    3 1.00
             18.731137    0.03349459952309
             2.8253937    0.23472694665786
             0.6401217    0.81375731841339
 s    1 1.00
             0.1612778                   1

42 0
 s    6 1.00
             5484.6717   0.001831099805527
             825.23495   0.013950098518422
             188.04696    0.06844509273075
               52.9645    0.23271427528445
              16.89757    0.47019295006289
             5.7996353    0.35852086192309
 s    3 1.00
             15.539616   -0.11077750382508
             3.5999336   -0.14802630511126
             1.0137618     1.1307670390447
 s    1 1.00
             0.2700058                   1
 p    3 1.00
             15.539616   0.070874299543311
             3.5999336    0.33975279781076
             1.0137618    0.72715859531445
 p    1 1.00
             0.2700058                   1
 d    1 1.00
                   0.8                   1

43 0
 s    3 1.00
             18.731137    0.03349459952309
             2.8253937    0.23472694665786
             0.6401217    0.81375731841339
 s    1 1.00
             0.1612778                   1

[5d]
[7f]
[9g]

[MO]
 Sym= A
 Ene=               0
 Spin= Alpha
 Occup=    1.00000
   1    -0.012246944201938
   2    0.0013259573986243
   3    -0.0079686168693602
   4    -0.00048780514791809
   5    0.0001731351866581
   6    -0.0013587343901162
   7    -0.00085673480946953
   8    -0.0014123270774791
   9    0.0060246066374314
  10    0.00097552656631397
  11    0.00094995207720785
  12    -0.00015134735504905
  13    0.00022961184122178
  14    -4.4193410483519e-05
  15    0.00057375150103352
  16    0.0011130922391269
  17     -0.99476462543285
  18    -0.039390929046647
  19     0.031356148578092
  20    -0.001068456100979
  21    -0.0002264522911336
  22    0.00061108810151778
  23    0.0040186774986888
  24    0.0011843423055786
  25    0.00090557455136964
  26    -0.00080627955562682
  27    0.00031919749149926
  28    0.0003489967485717
  29    -0.00027463308903436
  30    -0.0002063347064649
  31    0.0013178923555724
  32    -0.0041553904648284
  33    -0.012948009464386
  34    0.00040120741711139
  35    -0.0011296702507254
  36    -0.00093671499172965
  37    -0.00038755603174347
  38    0.0013207080461859
  39    0.0027828918833387
  40    -0.0037754726046269
  41    -0.0043557758031674
  42    0.00066841355597245
  43    -0.001326736841426
  44    -0.00053465068578414
  45    0.00039156889636188
  46    0.0004188060401089
  47    0.00061060148246125
  48    0.00062296458690094
  49     0.000297088607925
  50    0.00059359654190657
  51    -0.00027811882932853
  52    -0.0003067101127708
  53    -5.920754819324e-05
  54    0.00041561251762101
  55    0.0054828324806719
  56    -0.0011948995100155
  57    -0.0074663482341697
  58    0.00018323015688239
  59    1.0553491843845e-05
  60    -0.00014688624303705
  61    0.0002529183694527
  62    0.00023049697297882
  63    0.00049907016692931
  64    -0.00034950357772552
  65    8.9352399628225e-06
  66    2.1076171212652e-05
  67    2.6930263789989e-06
  68    -6.8503727728817e-06
  69    6.9959693079459e-07
  70    -1.378613627257e-05
  71    5.9632952744616e-06
  72    1.3678581183597e-05
  73    -2.8533381948946e-05
  74    -1.612269472296e-05
  75    -1.9507716657681e-05
  76    9.5489741453762e-07
  77    1.0234008805168e-06
  78    -6.3977465029338e-07
  79    -5.9685752166645e-07
  80    1.2125637508445e-06
  81    1.0153583062712e-06
  82    -3.5292888165288e-06
  83    -2.1180631364426e-06
  84    6.4155767543712e-07
  85    5.9823341617887e-05
  86    6.6090814768369e-06
  87    1.8589374242281e-05
  88    -2.4461538058009e-05
  89    -1.6648845311485e-05
  90    7.2805855935788e-05
  91    -9.9558882164148e-06
  92    -2.2942431459692e-06
  93    5.7417401548447e-06
  94    3.9415218106722e-07
  95    2.7572902632539e-06
  96    5.2462590791161e-06
  97    2.116092840782e-05
  98    3.2555690025382e-05
  99    -1.9795038422477e-05
 100    -1.9254914205609e-05
 101    1.0569248312976e-05
 102    -7.3203632511573e-08
 103    -0.00029369887896854
 104    -4.0268315390473e-05
 105    -0.00012334003343097
 106    3.5062418902378e-05
 107    0.0001749646493275
 108    -0.00030112974645719
 109    -0.0001064026360964
 110    7.1720211601521e-06
 111    -9.5655607127784e-07
 112    1.4831903546811e-06
 113    2.3750697770537e-06
 114    1.014109375048e-05
 115    2.0442621966698e-06
 116    3.5453417962153e-05
 117    -0.00023499318513503
 118    4.9331287471053e-06
 119    1.5305203752676e-05
 120    -1.8131262660639e-05
 121    4.2904156099226e-05
 122    8.441959640279e-07
 123    -4.2613342762744e-05
 124    -1.1349665026229e-06
 125     1.16694522242e-06
 126    8.701096061854e-07
 127    3.2997514355211e-06
 128    6.3748535882489e-06
 129    1.8567061964557e-05
 130    2.0574560685296e-05
 131    -0.00017468513070137
 132    -6.1778485067943e-05
 133    -7.2990368977518e-05
 134    -1.2380711414054e-06
 135    0.00038490624435897
 136    -0.00011658080716462
 137    0.00041907807778276
 138    -6.2233093275094e-06
 139    -1.9944516176209e-05
 140    -1.1944522557388e-05
 141    -1.1724048231251e-05
 142    -1.0752356756956e-05
 143    -3.3194677329295e-06
 144    3.5002247853323e-05
 145    2.600552730745e-05
 146    1.0534081678461e-05
 147    -6.8591613017396e-06
 148    -1.99678152514e-05
 149    1.3202364200599e-05
 150    -3.4801022741301e-05
 151    8.4646012155106e-05
 152    6.9413725649797e-06
 153    6.2055035820783e-06
 154    5.6121906426473e-06
 155    -6.6490611823733e-06
 156    1.8584170126745e-06
 157    -4.0930760521732e-06
 158    -1.1213188841599e-05
 159    7.1201067859217e-05
 160    -3.3382408914934e-06
 161    -1.0359604242052e-05
 162    2.6265126009471e-06
 163    6.5142991988539e-05
 164    -4.3173231018085e-05
 165    -1.1391301456183e-05
 166    -4.7269167408755e-06
 167    1.3705921251588e-06
 168    -1.2221132421441e-07
 169    -1.2887655142892e-06
 170    -2.3019723234235e-06
 171    3.109416321818e-06
 172    6.9153710291331e-06
 173    -4.8772321080085e-05
 174    -1.7023020948052e-05
 175    -4.9608181769202e-06
 176    -3.6864248505941e-05
 177    -2.4180850676315e-05
 178    -4.0232248083206e-06
 179    3.192749330712e-06
 180    -1.341697537924e-06
 181    -5.1669441214793e-06
 182    -5.5421200918777e-07
 183    2.3925276242899e-06
 184    -2.0106175949432e-06
 185    4.0232708593221e-06
 186    3.7093198545854e-05
 187    -0.00013081590678084
 188    3.9936869425926e-06
 189    6.6426348905222e-06
 190    -1.2707880047295e-05
 191    -9.8222561739209e-07
 192    3.9505438349551e-05
 193    9.1142176249318e-05
 194    -3.2619546719477e-06
 195    -1.725009362071e-06
 196    -3.4410136121041e-06
 197    -4.0895469506791e-07
 198    -2.38021104912e-07
 199    1.3184331641535e-05
 200    -2.8659355954055e-06
 201    -1.144226580345e-06
 202    -3.0724547083536e-05
 203    -1.1721718993437e-05
 204    -2.6283951787969e-05
 205    2.508856193137e-05
 206    7.0189075483856e-05
 207    -1.1706956048964e-05
 208    5.0035151009613e-05
 209    -1.1767598447589e-05
 210    3.4232701010187e-05
 211    -9.6151365910775e-06
 212    -2.5888589220844e-05
 213    -2.182007032623e-06
 214    2.123767806636e-05
 215    1.7506265017498e-05
 216    2.7311404741618e-05
 217    -3.0245115606294e-06
 218    -3.5882215999715e-07
 219    -9.3068844597908e-06
 220    5.5947930749488e-06
 221    -1.3612371927598e-05
 222    7.2060579387951e-05
 223    -0.0010306054425504
 224    0.00020580129766599
 225    0.00012251562178372
 226    -3.9807584734599e-05
 227    -0.00063338501626788
 228    -0.00026891027552624
 229    0.00099711789656867
 230    -1.0990687867458e-05
 231    4.240784582811e-05
 232    1.8955717491844e-05
 233    -2.8847075518644e-05
 234    -2.2781586893926e-05
 235    0.00021212434754461
 236    -0.0002796179134379
 237    6.9855620159213e-06
 238    5.916087706171e-05
 239    4.6304257329953e-05
 240    0.00053596131865784
 241    -0.00035414930861008
 242    -0.00033622900461115
 243    0.0018609810622028
 244    -2.0314379744373e-05
 245    -7.6169562628966e-05
 246    -1.0910031399107e-05
 247    -2.0938720932845e-05
 248    -6.3957613827783e-07
 249    -7.8495352954898e-05
 250    -0.00039748169644804
 251    -0.00016029403117914
 252    0.00033734990537378
 253    -0.0021401324028452
 254    -0.00071075964626828
 255    4.5617101842679e-05
 256    -0.00068404588963454
 257    -0.00017243829097811
 258    -0.00034641552248366
 259    0.0016859589646708
 260    4.7247934982625e-05
 261    1.8133378660358e-05
 262    2.3093068569266e-05
 263    -0.00013918314440344
 264    -8.0650618646808e-05
 265    7.3639328324286e-05
 266    -0.0001372158414615
 267    0.00052812921049478
 268    0.00088768491150116
 269    0.00011611057947912
 270    0.00068574794994501
 271    -0.006962072070709
 272    0.00014216293819757
 273    -0.00034169079871463
 274    -0.00026934372584665
 275    0.0015791319539524
 276    0.0028369276713562
 277    -0.0030857734396776
 278    -9.0352026360783e-05
 279    0.00018722346718411
 280    0.00011355250229603
 281    3.5136416342689e-05