[Molden Format]
made by pyscf v[2.0.1]
[Atoms] (AU)
C   1   6     0.69100024066471     0.64692934207205    -3.48223131169301
H   2   1     2.68052439830868     1.13355088658700    -3.25784032593313
C   3   6    -0.36286361513219     0.85440132524594    -5.97030179418974
H   4   1    -2.35448549047279     0.36322488579172    -6.17995817793143
C   5   6     0.93697958957450     1.61209284601821    -8.05828437677121
H   6   1     1.09182490265505     3.62435627880799    -8.46787148771875
C   7   6     2.13423629966321    -0.10744231105711    -9.78050935942977
H   8   1     1.96390963868834    -2.11762116447114    -9.34474333768613
H   9   1     1.55630230933075    -1.92953025305990    12.99630010416247
C   10   6     0.75233899775814    -2.21270439606481    11.10705728102219
H   11   1    -0.43433408177274    -3.90944857546550    11.22216085340412
C   12   6     2.86362581178706    -2.63237380607947     9.17926416456045
H   13   1     4.39038949912609    -1.24955421540245     9.49899813497433
H   14   1     3.74629220191363    -4.48798724300892     9.47414880959024
C   15   6     2.02478325613682    -2.42177285709634     6.44560829588644
C   16   6     3.88048732735477    -3.58795445234514     4.61402886975252
C   17   6    -0.18412382258602    -1.30464291234259     5.76021113872346
C   18   6    -2.10044360464350    -0.26837831858460     7.71610340967100
C   19   6    -3.08956938670431     2.35282328359417     6.88693925039594
C   20   6    -4.37372924086464    -2.09766595989678     7.93610724222001
C   21   6    -0.83850430601230     0.06372213486173    10.33002307638377
H   22   1     0.38411922151109     1.74281358582432    10.27380136542181
H   23   1    -2.30980003007874     0.45460143924521    11.73986301809809
H   24   1     4.58527064644668    -5.38706904487420     5.36778158031719
H   25   1     5.54944938085014    -2.37631462192748     4.35398898413318
H   26   1     3.06633019150423    -3.94118377050688     2.75255466040884
H   27   1    -4.17727778763735     2.26573369139522     5.12914900961283
H   28   1    -1.52662344944051     3.68001877445626     6.59540397144508
H   29   1    -4.32916174397830     3.13643051467482     8.35225460090378
H   30   1    -5.32329548508442    -2.36691813602939     6.11583672749896
H   31   1    -5.77989366602257    -1.33896741843465     9.25748940450990
H   32   1    -3.79310905208926    -3.96389819310853     8.61386170102686
C   33   6    -1.01100794811226    -1.06331657314144     3.11929490449947
C   34   6     0.37686231036534    -0.33275864505552     1.09165013605873
H   35   1    -3.01671213906703    -1.40297922279997     2.77827895090944
C   36   6    -0.64382707979370    -0.11591880174385    -1.42063131251064
H   37   1     2.35569259782137     0.17174499283897     1.33641070251401
H   38   1    -2.63317482980319    -0.60229203511219    -1.66119700387645
C   39   6     3.44427310754987     0.55955226130243   -11.88185544133447
C   40   6     4.59546774580895    -1.33837842065929   -13.51881378425706
H   41   1     3.68484150802705     2.52824088205540   -12.42422090941845
O   42   8     5.79494197127018    -0.87330187518197   -15.43343894779829
H   43   1     4.30216020100717    -3.32855150553013   -12.89162904717628
[GTO]
1 0
 s    6 1.00
             3047.5249  0.0018347001629433
             457.36951    0.01403730124668
             103.94869   0.068842606114048
             29.210155    0.23218442062076
              9.286663    0.46794134155879
              3.163927    0.36231203217765
 s    3 1.00
             7.8682724   -0.11933240861517
             1.8812885   -0.16085421161283
             0.5442493     1.1434564825515
 s    1 1.00
             0.1687144                   1
 p    3 1.00
             7.8682724   0.068999095584993
             1.8812885    0.31642397975315
             0.5442493    0.74430825237435
 p    1 1.00
             0.1687144                   1
 d    1 1.00
                   0.8                   1

2 0
 s    3 1.00
             18.731137    0.03349459952309
             2.8253937    0.23472694665786
             0.6401217    0.81375731841339
 s    1 1.00
             0.1612778                   1

3 0
 s    6 1.00
             3047.5249  0.0018347001629433
             457.36951    0.01403730124668
             103.94869   0.068842606114048
             29.210155    0.23218442062076
              9.286663    0.46794134155879
              3.163927    0.36231203217765
 s    3 1.00
             7.8682724   -0.11933240861517
             1.8812885   -0.16085421161283
             0.5442493     1.1434564825515
 s    1 1.00
             0.1687144                   1
 p    3 1.00
             7.8682724   0.068999095584993
             1.8812885    0.31642397975315
             0.5442493    0.74430825237435
 p    1 1.00
             0.1687144                   1
 d    1 1.00
                   0.8                   1

4 0
 s    3 1.00
             18.731137    0.03349459952309
             2.8253937    0.23472694665786
             0.6401217    0.81375731841339
 s    1 1.00
             0.1612778                   1

5 0
 s    6 1.00
             3047.5249  0.0018347001629433
             457.36951    0.01403730124668
             103.94869   0.068842606114048
             29.210155    0.23218442062076
              9.286663    0.46794134155879
              3.163927    0.36231203217765
 s    3 1.00
             7.8682724   -0.11933240861517
             1.8812885   -0.16085421161283
             0.5442493     1.1434564825515
 s    1 1.00
             0.1687144                   1
 p    3 1.00
             7.8682724   0.068999095584993
             1.8812885    0.31642397975315
             0.5442493    0.74430825237435
 p    1 1.00
             0.1687144                   1
 d    1 1.00
                   0.8                   1

6 0
 s    3 1.00
             18.731137    0.03349459952309
             2.8253937    0.23472694665786
             0.6401217    0.81375731841339
 s    1 1.00
             0.1612778                   1

7 0
 s    6 1.00
             3047.5249  0.0018347001629433
             457.36951    0.01403730124668
             103.94869   0.068842606114048
             29.210155    0.23218442062076
              9.286663    0.46794134155879
              3.163927    0.36231203217765
 s    3 1.00
             7.8682724   -0.11933240861517
             1.8812885   -0.16085421161283
             0.5442493     1.1434564825515
 s    1 1.00
             0.1687144                   1
 p    3 1.00
             7.8682724   0.068999095584993
             1.8812885    0.31642397975315
             0.5442493    0.74430825237435
 p    1 1.00
             0.1687144                   1
 d    1 1.00
                   0.8                   1

8 0
 s    3 1.00
             18.731137    0.03349459952309
             2.8253937    0.23472694665786
             0.6401217    0.81375731841339
 s    1 1.00
             0.1612778                   1

9 0
 s    3 1.00
             18.731137    0.03349459952309
             2.8253937    0.23472694665786
             0.6401217    0.81375731841339
 s    1 1.00
             0.1612778                   1

10 0
 s    6 1.00
             3047.5249  0.0018347001629433
             457.36951    0.01403730124668
             103.94869   0.068842606114048
             29.210155    0.23218442062076
              9.286663    0.46794134155879
              3.163927    0.36231203217765
 s    3 1.00
             7.8682724   -0.11933240861517
             1.8812885   -0.16085421161283
             0.5442493     1.1434564825515
 s    1 1.00
             0.1687144                   1
 p    3 1.00
             7.8682724   0.068999095584993
             1.8812885    0.31642397975315
             0.5442493    0.74430825237435
 p    1 1.00
             0.1687144                   1
 d    1 1.00
                   0.8                   1

11 0
 s    3 1.00
             18.731137    0.03349459952309
             2.8253937    0.23472694665786
             0.6401217    0.81375731841339
 s    1 1.00
             0.1612778                   1

12 0
 s    6 1.00
             3047.5249  0.0018347001629433
             457.36951    0.01403730124668
             103.94869   0.068842606114048
             29.210155    0.23218442062076
              9.286663    0.46794134155879
              3.163927    0.36231203217765
 s    3 1.00
             7.8682724   -0.11933240861517
             1.8812885   -0.16085421161283
             0.5442493     1.1434564825515
 s    1 1.00
             0.1687144                   1
 p    3 1.00
             7.8682724   0.068999095584993
             1.8812885    0.31642397975315
             0.5442493    0.74430825237435
 p    1 1.00
             0.1687144                   1
 d    1 1.00
                   0.8                   1

13 0
 s    3 1.00
             18.731137    0.03349459952309
             2.8253937    0.23472694665786
             0.6401217    0.81375731841339
 s    1 1.00
             0.1612778                   1

14 0
 s    3 1.00
             18.731137    0.03349459952309
             2.8253937    0.23472694665786
             0.6401217    0.81375731841339
 s    1 1.00
             0.1612778                   1

15 0
 s    6 1.00
             3047.5249  0.0018347001629433
             457.36951    0.01403730124668
             103.94869   0.068842606114048
             29.210155    0.23218442062076
              9.286663    0.46794134155879
              3.163927    0.36231203217765
 s    3 1.00
             7.8682724   -0.11933240861517
             1.8812885   -0.16085421161283
             0.5442493     1.1434564825515
 s    1 1.00
             0.1687144                   1
 p    3 1.00
             7.8682724   0.068999095584993
             1.8812885    0.31642397975315
             0.5442493    0.74430825237435
 p    1 1.00
             0.1687144                   1
 d    1 1.00
                   0.8                   1

16 0
 s    6 1.00
             3047.5249  0.0018347001629433
             457.36951    0.01403730124668
             103.94869   0.068842606114048
             29.210155    0.23218442062076
              9.286663    0.46794134155879
              3.163927    0.36231203217765
 s    3 1.00
             7.8682724   -0.11933240861517
             1.8812885   -0.16085421161283
             0.5442493     1.1434564825515
 s    1 1.00
             0.1687144                   1
 p    3 1.00
             7.8682724   0.068999095584993
             1.8812885    0.31642397975315
             0.5442493    0.74430825237435
 p    1 1.00
             0.1687144                   1
 d    1 1.00
                   0.8                   1

17 0
 s    6 1.00
             3047.5249  0.0018347001629433
             457.36951    0.01403730124668
             103.94869   0.068842606114048
             29.210155    0.23218442062076
              9.286663    0.46794134155879
              3.163927    0.36231203217765
 s    3 1.00
             7.8682724   -0.11933240861517
             1.8812885   -0.16085421161283
             0.5442493     1.1434564825515
 s    1 1.00
             0.1687144                   1
 p    3 1.00
             7.8682724   0.068999095584993
             1.8812885    0.31642397975315
             0.5442493    0.74430825237435
 p    1 1.00
             0.1687144                   1
 d    1 1.00
                   0.8                   1

18 0
 s    6 1.00
             3047.5249  0.0018347001629433
             457.36951    0.01403730124668
             103.94869   0.068842606114048
             29.210155    0.23218442062076
              9.286663    0.46794134155879
              3.163927    0.36231203217765
 s    3 1.00
             7.8682724   -0.11933240861517
             1.8812885   -0.16085421161283
             0.5442493     1.1434564825515
 s    1 1.00
             0.1687144                   1
 p    3 1.00
             7.8682724   0.068999095584993
             1.8812885    0.31642397975315
             0.5442493    0.74430825237435
 p    1 1.00
             0.1687144                   1
 d    1 1.00
                   0.8                   1

19 0
 s    6 1.00
             3047.5249  0.0018347001629433
             457.36951    0.01403730124668
             103.94869   0.068842606114048
             29.210155    0.23218442062076
              9.286663    0.46794134155879
              3.163927    0.36231203217765
 s    3 1.00
             7.8682724   -0.11933240861517
             1.8812885   -0.16085421161283
             0.5442493     1.1434564825515
 s    1 1.00
             0.1687144                   1
 p    3 1.00
             7.8682724   0.068999095584993
             1.8812885    0.31642397975315
             0.5442493    0.74430825237435
 p    1 1.00
             0.1687144                   1
 d    1 1.00
                   0.8                   1

20 0
 s    6 1.00
             3047.5249  0.0018347001629433
             457.36951    0.01403730124668
             103.94869   0.068842606114048
             29.210155    0.23218442062076
              9.286663    0.46794134155879
              3.163927    0.36231203217765
 s    3 1.00
             7.8682724   -0.11933240861517
             1.8812885   -0.16085421161283
             0.5442493     1.1434564825515
 s    1 1.00
             0.1687144                   1
 p    3 1.00
             7.8682724   0.068999095584993
             1.8812885    0.31642397975315
             0.5442493    0.74430825237435
 p    1 1.00
             0.1687144                   1
 d    1 1.00
                   0.8                   1

21 0
 s    6 1.00
             3047.5249  0.0018347001629433
             457.36951    0.01403730124668
             103.94869   0.068842606114048
             29.210155    0.23218442062076
              9.286663    0.46794134155879
              3.163927    0.36231203217765
 s    3 1.00
             7.8682724   -0.11933240861517
             1.8812885   -0.16085421161283
             0.5442493     1.1434564825515
 s    1 1.00
             0.1687144                   1
 p    3 1.00
             7.8682724   0.068999095584993
             1.8812885    0.31642397975315
             0.5442493    0.74430825237435
 p    1 1.00
             0.1687144                   1
 d    1 1.00
                   0.8                   1

22 0
 s    3 1.00
             18.731137    0.03349459952309
             2.8253937    0.23472694665786
             0.6401217    0.81375731841339
 s    1 1.00
             0.1612778                   1

23 0
 s    3 1.00
             18.731137    0.03349459952309
             2.8253937    0.23472694665786
             0.6401217    0.81375731841339
 s    1 1.00
             0.1612778                   1

24 0
 s    3 1.00
             18.731137    0.03349459952309
             2.8253937    0.23472694665786
             0.6401217    0.81375731841339
 s    1 1.00
             0.1612778                   1

25 0
 s    3 1.00
             18.731137    0.03349459952309
             2.8253937    0.23472694665786
             0.6401217    0.81375731841339
 s    1 1.00
             0.1612778                   1

26 0
 s    3 1.00
             18.731137    0.03349459952309
             2.8253937    0.23472694665786
             0.6401217    0.81375731841339
 s    1 1.00
             0.1612778                   1

27 0
 s    3 1.00
             18.731137    0.03349459952309
             2.8253937    0.23472694665786
             0.6401217    0.81375731841339
 s    1 1.00
             0.1612778                   1

28 0
 s    3 1.00
             18.731137    0.03349459952309
             2.8253937    0.23472694665786
             0.6401217    0.81375731841339
 s    1 1.00
             0.1612778                   1

29 0
 s    3 1.00
             18.731137    0.03349459952309
             2.8253937    0.23472694665786
             0.6401217    0.81375731841339
 s    1 1.00
             0.1612778                   1

30 0
 s    3 1.00
             18.731137    0.03349459952309
             2.8253937    0.23472694665786
             0.6401217    0.81375731841339
 s    1 1.00
             0.1612778                   1

31 0
 s    3 1.00
             18.731137    0.03349459952309
             2.8253937    0.23472694665786
             0.6401217    0.81375731841339
 s    1 1.00
             0.1612778                   1

32 0
 s    3 1.00
             18.731137    0.03349459952309
             2.8253937    0.23472694665786
             0.6401217    0.81375731841339
 s    1 1.00
             0.1612778                   1

33 0
 s    6 1.00
             3047.5249  0.0018347001629433
             457.36951    0.01403730124668
             103.94869   0.068842606114048
             29.210155    0.23218442062076
              9.286663    0.46794134155879
              3.163927    0.36231203217765
 s    3 1.00
             7.8682724   -0.11933240861517
             1.8812885   -0.16085421161283
             0.5442493     1.1434564825515
 s    1 1.00
             0.1687144                   1
 p    3 1.00
             7.8682724   0.068999095584993
             1.8812885    0.31642397975315
             0.5442493    0.74430825237435
 p    1 1.00
             0.1687144                   1
 d    1 1.00
                   0.8                   1

34 0
 s    6 1.00
             3047.5249  0.0018347001629433
             457.36951    0.01403730124668
             103.94869   0.068842606114048
             29.210155    0.23218442062076
              9.286663    0.46794134155879
              3.163927    0.36231203217765
 s    3 1.00
             7.8682724   -0.11933240861517
             1.8812885   -0.16085421161283
             0.5442493     1.1434564825515
 s    1 1.00
             0.1687144                   1
 p    3 1.00
             7.8682724   0.068999095584993
             1.8812885    0.31642397975315
             0.5442493    0.74430825237435
 p    1 1.00
             0.1687144                   1
 d    1 1.00
                   0.8                   1

35 0
 s    3 1.00
             18.731137    0.03349459952309
             2.8253937    0.23472694665786
             0.6401217    0.81375731841339
 s    1 1.00
             0.1612778                   1

36 0
 s    6 1.00
             3047.5249  0.0018347001629433
             457.36951    0.01403730124668
             103.94869   0.068842606114048
             29.210155    0.23218442062076
              9.286663    0.46794134155879
              3.163927    0.36231203217765
 s    3 1.00
             7.8682724   -0.11933240861517
             1.8812885   -0.16085421161283
             0.5442493     1.1434564825515
 s    1 1.00
             0.1687144                   1
 p    3 1.00
             7.8682724   0.068999095584993
             1.8812885    0.31642397975315
             0.5442493    0.74430825237435
 p    1 1.00
             0.1687144                   1
 d    1 1.00
                   0.8                   1

37 0
 s    3 1.00
             18.731137    0.03349459952309
             2.8253937    0.23472694665786
             0.6401217    0.81375731841339
 s    1 1.00
             0.1612778                   1

38 0
 s    3 1.00
             18.731137    0.03349459952309
             2.8253937    0.23472694665786
             0.6401217    0.81375731841339
 s    1 1.00
             0.1612778                   1

39 0
 s    6 1.00
             3047.5249  0.0018347001629433
             457.36951    0.01403730124668
             103.94869   0.068842606114048
             29.210155    0.23218442062076
              9.286663    0.46794134155879
              3.163927    0.36231203217765
 s    3 1.00
             7.8682724   -0.11933240861517
             1.8812885   -0.16085421161283
             0.5442493     1.1434564825515
 s    1 1.00
             0.1687144                   1
 p    3 1.00
             7.8682724   0.068999095584993
             1.8812885    0.31642397975315
             0.5442493    0.74430825237435
 p    1 1.00
             0.1687144                   1
 d    1 1.00
                   0.8                   1

40 0
 s    6 1.00
             3047.5249  0.0018347001629433
             457.36951    0.01403730124668
             103.94869   0.068842606114048
             29.210155    0.23218442062076
              9.286663    0.46794134155879
              3.163927    0.36231203217765
 s    3 1.00
             7.8682724   -0.11933240861517
             1.8812885   -0.16085421161283
             0.5442493     1.1434564825515
 s    1 1.00
             0.1687144                   1
 p    3 1.00
             7.8682724   0.068999095584993
             1.8812885    0.31642397975315
             0.5442493    0.74430825237435
 p    1 1.00
             0.1687144                   1
 d    1 1.00
                   0.8                   1

41 0
 s    3 1.00
             18.731137    0.03349459952309
             2.8253937    0.23472694665786
             0.6401217    0.81375731841339
 s    1 1.00
             0.1612778                   1

42 0
 s    6 1.00
             5484.6717   0.001831099805527
             825.23495   0.013950098518422
             188.04696    0.06844509273075
               52.9645    0.23271427528445
              16.89757    0.47019295006289
             5.7996353    0.35852086192309
 s    3 1.00
             15.539616   -0.11077750382508
             3.5999336   -0.14802630511126
             1.0137618     1.1307670390447
 s    1 1.00
             0.2700058                   1
 p    3 1.00
             15.539616   0.070874299543311
             3.5999336    0.33975279781076
             1.0137618    0.72715859531445
 p    1 1.00
             0.2700058                   1
 d    1 1.00
                   0.8                   1

43 0
 s    3 1.00
             18.731137    0.03349459952309
             2.8253937    0.23472694665786
             0.6401217    0.81375731841339
 s    1 1.00
             0.1612778                   1

[5d]
[7f]
[9g]

[MO]
 Sym= A
 Ene=               0
 Spin= Alpha
 Occup=    1.00000
   1    -0.012132507508416
   2    0.0013388860401886
   3    -0.0079078367343723
   4    -0.00047840113602246
   5    0.00013702506688947
   6    -0.0013793087466222
   7    -0.0008699786858748
   8    -0.001306504625018
   9    0.0059776677887704
  10    0.0009806669211436
  11    0.00094843254818335
  12    -0.00016036917353676
  13    0.00022863161309793
  14    -4.3654364295955e-05
  15    0.00057562685151355
  16    0.0010966006273366
  17      -0.9947609181301
  18    -0.039373879988657
  19      0.03130212758382
  20    -0.001046544708975
  21    -0.00018626583544099
  22    0.00061884509272397
  23    0.0039467159300048
  24      0.00115185205187
  25    0.00087116752832091
  26    -0.00081121802881763
  27    0.00031587333795288
  28    0.00036097178053735
  29    -0.00028470815064407
  30    -0.00017825162776512
  31    0.0012951310450148
  32    -0.0042056679723128
  33    -0.013251253027557
  34    0.00038778597308347
  35    -0.0011091745354645
  36    -0.00096120331488099
  37    -0.00038611322357861
  38     0.001312186906743
  39    0.0024037658416411
  40    -0.0038307036456451
  41    -0.0046327773462855
  42    0.00069103832521003
  43    -0.0013181198775161
  44    -0.00051697486037428
  45    0.00037956227119278
  46    0.00043253078057523
  47    0.00060615623715089
  48    0.00064371803067115
  49    -0.00010075764427868
  50    0.00058645859569628
  51    -0.0003536378910148
  52    -0.00025454140701597
  53    -4.0788576922392e-05
  54    0.00045212620053948
  55    0.0050294889947396
  56    -0.0012777832307326
  57    -0.0077314687079687
  58    0.00016210723713128
  59    8.1726770048731e-06
  60    -0.00018692336239291
  61    0.00027778536887671
  62    0.00017516594981081
  63    0.00050390425305455
  64    -0.0003353120759977
  65    1.9949127602822e-06
  66    3.6464273337876e-07
  67    1.6668358868383e-07
  68    3.2931928471011e-06
  69    -7.8330314050949e-06
  70    9.3957921991606e-06
  71    -2.9038349795402e-06
  72    -5.183126015638e-06
  73    -6.4939156263824e-06
  74    -3.7349437068657e-05
  75    -8.322969890444e-06
  76    4.3573557038275e-07
  77    -3.58111274914e-07
  78    1.6413626963113e-07
  79    -9.453075366515e-07
  80    -3.217093163839e-07
  81    -4.0011753453712e-06
  82    -1.9235517719707e-05
  83    -3.0556042617513e-06
  84    1.2359664812837e-06
  85    8.0202752522948e-05
  86    -2.6282787159335e-05
  87    -7.5718368909523e-06
  88    -1.708143689493e-05
  89    -3.9079462308269e-05
  90    7.276829559247e-05
  91    -1.685085585277e-05
  92    -2.900874145697e-08
  93    1.0743106837145e-06
  94    -5.1286463714794e-06
  95    3.6601186790722e-07
  96    8.051492926903e-08
  97    -2.509648419809e-05
  98    -3.5751101503678e-05
  99    1.754658137787e-06
 100    2.1827487037841e-05
 101    1.5563267276641e-05
 102    -9.5046442717796e-06
 103    -0.00032600071100735
 104    6.6625217511362e-05
 105    2.7614286136195e-05
 106    2.8798540130457e-05
 107    0.00023037226050562
 108    -0.00018121208529767
 109    -0.00011915468172084
 110    6.6921206351454e-06
 111    -1.7029933755625e-06
 112    -1.6952532132653e-07
 113    -3.445358263371e-06
 114    4.8424015000951e-06
 115    5.8629607371737e-06
 116    2.7455670011767e-05
 117    -0.00025614921753275
 118    2.104487413669e-07
 119    -1.2092519217784e-05
 120    2.2266717849438e-05
 121    3.9646241225143e-05
 122    1.0053710575256e-05
 123    -2.8839746155096e-06
 124    -1.3105950597086e-06
 125    4.0611482500198e-06
 126    2.1987525346872e-06
 127    -2.8241432543166e-06
 128    4.3565647081125e-07
 129    1.7110069046149e-05
 130    2.5282375898635e-05
 131    -0.00017256183845124
 132    -1.7556739908526e-05
 133    6.6161772721126e-05
 134    6.7921128957266e-06
 135    0.00041920061789358
 136    -1.9599516013329e-05
 137    0.00041200977515343
 138    -4.8156221163757e-06
 139    -2.1684918308599e-05
 140    -4.530892515154e-06
 141    -4.7354597739154e-06
 142    -4.5627011458986e-06
 143    -7.0008086574696e-06
 144    4.1210612439278e-05
 145    4.4613275043786e-05
 146    2.0696978168156e-05
 147    -3.5688267306926e-05
 148    -5.4506666919368e-05
 149    2.3937075413115e-05
 150    -2.8281641770919e-05
 151    4.8066673012876e-05
 152    6.3000399643999e-06
 153    2.8461034764485e-06
 154    3.4639410353439e-06
 155    -2.9725588678572e-06
 156    4.8310673612855e-06
 157    -2.0186381081242e-06
 158    -1.4147459223752e-05
 159    5.0460619492756e-05
 160    -1.9443720658708e-05
 161    1.0497356776125e-05
 162    -1.8193246727059e-05
 163    3.7777574573082e-05
 164    -1.9534347661547e-05
 165    -2.2353778647614e-05
 166    -5.539230314508e-06
 167    1.1457427537543e-06
 168    7.2048293053633e-07
 169    -6.2216909169549e-07
 170    -2.6433236964528e-06
 171    -2.5811634229318e-06
 172    1.7930928187629e-05
 173    -8.425043177987e-06
 174    9.3153117258585e-06
 175    3.189406561836e-06
 176    -3.2363163490812e-05
 177    -2.8694793577745e-06
 178    2.9464988214693e-06
 179    1.4944589633202e-05
 180    -1.5574498894247e-06
 181    -5.25112489739e-06
 182    -1.3060385587505e-06
 183    2.1616871485512e-06
 184    -1.3686268773797e-06
 185    6.490742292806e-06
 186    2.6812657392564e-05
 187    -0.00011576708531943
 188    1.5162111531114e-06
 189    8.3985625570876e-06
 190    1.7802849072498e-05
 191    9.9850250610028e-06
 192    2.0578451700632e-05
 193    9.8440284494055e-05
 194    -2.8820682527807e-06
 195    -4.163583046779e-06
 196    -1.6997224507981e-06
 197    5.4427113218241e-07
 198    -6.0662391994537e-07
 199    8.6894435209661e-06
 200    -1.8159969042867e-08
 201    1.8403973786905e-05
 202    4.1008577120139e-06
 203    2.6215296974653e-05
 204    3.6250387630967e-05
 205    -1.5085358731974e-05
 206    9.5034665054052e-06
 207    -1.6927072001861e-05
 208    8.946674517785e-05
 209    -2.4304927979912e-06
 210    2.3359357655958e-05
 211    -7.1822502898116e-06
 212    -2.0114095756896e-05
 213    8.2367926534599e-07
 214    2.4373113940379e-05
 215    1.1002936269241e-05
 216    2.2851471167476e-05
 217    -6.9171027455687e-06
 218    -1.1522928946646e-05
 219    -5.6521761293206e-06
 220    -7.0513211267609e-06
 221    -1.2003063491355e-05
 222    6.9324703860639e-05
 223    -0.0010334967805295
 224    0.0002277394700435
 225    -4.8192905440688e-05
 226    -7.0406055370854e-05
 227    -0.00061425081836784
 228    -0.00037687732049599
 229    0.00095583611493482
 230    -8.8292891116295e-06
 231    4.1262917419321e-05
 232    3.1682298677115e-05
 233    -2.2208700939506e-05
 234    -2.4436054253294e-05
 235    0.0002150085811766
 236    -0.00028501626786308
 237    -3.8062894333232e-05
 238    0.00013381295293969
 239    -0.00020256755157207
 240    0.00047194852242214
 241    -0.00029460495923055
 242    -0.00048585382097506
 243    0.0018324654476218
 244    -2.2038016892734e-05
 245    -7.3647518817463e-05
 246    -1.3036184287173e-05
 247    -2.278412143777e-05
 248    2.9423148286623e-06
 249    -6.0678463198312e-05
 250    -0.00036597308955931
 251    -0.00016056695898089
 252    0.00033652839268916
 253    -0.0020952394348519
 254    -0.00067693644607193
 255    -8.0903689237509e-05
 256    -0.00070116107848464
 257    -0.00011659248600019
 258    -0.00046735731642205
 259    0.0016752822286111
 260    4.5342702054812e-05
 261    1.9405109798231e-05
 262    1.9185982836459e-05
 263    -0.00013644307355513
 264    -8.7437124006338e-05
 265    7.5283983018808e-05
 266    -0.00013258410900593
 267    0.00052845324936624
 268    0.0008978962699077
 269    0.00013215714222727
 270    0.0006300915911656
 271    -0.0069991751591243
 272    0.00010713700548036
 273    -0.00026304840646445
 274    -0.0002264399711106
 275    0.0017801282948931
 276    0.0028904626134855
 277    -0.0028835700591444
 278    -8.1716298920485e-05
 279    0.00018998409468319
 280    0.00010053618296797
 281    3.6569650126678e-05