[Molden Format]
made by pyscf v[2.0.1]
[Atoms] (AU)
C   1   6     0.69100024066471     0.64692934207205    -3.48223131169301
H   2   1     2.68052439830868     1.13355088658700    -3.25784032593313
C   3   6    -0.36286361513219     0.85440132524594    -5.97030179418974
H   4   1    -2.35448549047279     0.36322488579172    -6.17995817793143
C   5   6     0.93697958957450     1.61209284601821    -8.05828437677121
H   6   1     0.88481995546627     3.59633991549139    -8.60690604548455
C   7   6     2.39466048338875    -0.07229584893402    -9.60563204708460
H   8   1     2.43004158789144    -2.05446799383120    -9.03164251308345
H   9   1     1.55630230933075    -1.92953025305990    12.99630010416247
C   10   6     0.75233899775814    -2.21270439606481    11.10705728102219
H   11   1    -0.43433408177274    -3.90944857546550    11.22216085340412
C   12   6     2.86362581178706    -2.63237380607947     9.17926416456045
H   13   1     4.39038949912609    -1.24955421540245     9.49899813497433
H   14   1     3.74629220191363    -4.48798724300892     9.47414880959024
C   15   6     2.02478325613682    -2.42177285709634     6.44560829588644
C   16   6     3.88048732735477    -3.58795445234514     4.61402886975252
C   17   6    -0.18412382258602    -1.30464291234259     5.76021113872346
C   18   6    -2.10044360464350    -0.26837831858460     7.71610340967100
C   19   6    -3.08956938670431     2.35282328359417     6.88693925039594
C   20   6    -4.37372924086464    -2.09766595989678     7.93610724222001
C   21   6    -0.83850430601230     0.06372213486173    10.33002307638377
H   22   1     0.38411922151109     1.74281358582432    10.27380136542181
H   23   1    -2.30980003007874     0.45460143924521    11.73986301809809
H   24   1     4.58527064644668    -5.38706904487420     5.36778158031719
H   25   1     5.54944938085014    -2.37631462192748     4.35398898413318
H   26   1     3.06633019150423    -3.94118377050688     2.75255466040884
H   27   1    -4.17727778763735     2.26573369139522     5.12914900961283
H   28   1    -1.52662344944051     3.68001877445626     6.59540397144508
H   29   1    -4.32916174397830     3.13643051467482     8.35225460090378
H   30   1    -5.32329548508442    -2.36691813602939     6.11583672749896
H   31   1    -5.77989366602257    -1.33896741843465     9.25748940450990
H   32   1    -3.79310905208926    -3.96389819310853     8.61386170102686
C   33   6    -1.01100794811226    -1.06331657314144     3.11929490449947
C   34   6     0.37686231036534    -0.33275864505552     1.09165013605873
H   35   1    -3.01671213906703    -1.40297922279997     2.77827895090944
C   36   6    -0.64382707979370    -0.11591880174385    -1.42063131251064
H   37   1     2.35569259782137     0.17174499283897     1.33641070251401
H   38   1    -2.63317482980319    -0.60229203511219    -1.66119700387645
C   39   6     3.71533383510959     0.59576232705089   -11.69997054074953
C   40   6     5.14333780052268    -1.26490852400141   -13.15108433486960
H   41   1     3.75910290759049     2.53760054456126   -12.37459410036833
O   42   8     6.36836167706676    -0.79692659131490   -15.04874962161569
H   43   1     5.04579305514285    -3.22830651971947   -12.39231411193817
[GTO]
1 0
 s    6 1.00
             3047.5249  0.0018347001629433
             457.36951    0.01403730124668
             103.94869   0.068842606114048
             29.210155    0.23218442062076
              9.286663    0.46794134155879
              3.163927    0.36231203217765
 s    3 1.00
             7.8682724   -0.11933240861517
             1.8812885   -0.16085421161283
             0.5442493     1.1434564825515
 s    1 1.00
             0.1687144                   1
 p    3 1.00
             7.8682724   0.068999095584993
             1.8812885    0.31642397975315
             0.5442493    0.74430825237435
 p    1 1.00
             0.1687144                   1
 d    1 1.00
                   0.8                   1

2 0
 s    3 1.00
             18.731137    0.03349459952309
             2.8253937    0.23472694665786
             0.6401217    0.81375731841339
 s    1 1.00
             0.1612778                   1

3 0
 s    6 1.00
             3047.5249  0.0018347001629433
             457.36951    0.01403730124668
             103.94869   0.068842606114048
             29.210155    0.23218442062076
              9.286663    0.46794134155879
              3.163927    0.36231203217765
 s    3 1.00
             7.8682724   -0.11933240861517
             1.8812885   -0.16085421161283
             0.5442493     1.1434564825515
 s    1 1.00
             0.1687144                   1
 p    3 1.00
             7.8682724   0.068999095584993
             1.8812885    0.31642397975315
             0.5442493    0.74430825237435
 p    1 1.00
             0.1687144                   1
 d    1 1.00
                   0.8                   1

4 0
 s    3 1.00
             18.731137    0.03349459952309
             2.8253937    0.23472694665786
             0.6401217    0.81375731841339
 s    1 1.00
             0.1612778                   1

5 0
 s    6 1.00
             3047.5249  0.0018347001629433
             457.36951    0.01403730124668
             103.94869   0.068842606114048
             29.210155    0.23218442062076
              9.286663    0.46794134155879
              3.163927    0.36231203217765
 s    3 1.00
             7.8682724   -0.11933240861517
             1.8812885   -0.16085421161283
             0.5442493     1.1434564825515
 s    1 1.00
             0.1687144                   1
 p    3 1.00
             7.8682724   0.068999095584993
             1.8812885    0.31642397975315
             0.5442493    0.74430825237435
 p    1 1.00
             0.1687144                   1
 d    1 1.00
                   0.8                   1

6 0
 s    3 1.00
             18.731137    0.03349459952309
             2.8253937    0.23472694665786
             0.6401217    0.81375731841339
 s    1 1.00
             0.1612778                   1

7 0
 s    6 1.00
             3047.5249  0.0018347001629433
             457.36951    0.01403730124668
             103.94869   0.068842606114048
             29.210155    0.23218442062076
              9.286663    0.46794134155879
              3.163927    0.36231203217765
 s    3 1.00
             7.8682724   -0.11933240861517
             1.8812885   -0.16085421161283
             0.5442493     1.1434564825515
 s    1 1.00
             0.1687144                   1
 p    3 1.00
             7.8682724   0.068999095584993
             1.8812885    0.31642397975315
             0.5442493    0.74430825237435
 p    1 1.00
             0.1687144                   1
 d    1 1.00
                   0.8                   1

8 0
 s    3 1.00
             18.731137    0.03349459952309
             2.8253937    0.23472694665786
             0.6401217    0.81375731841339
 s    1 1.00
             0.1612778                   1

9 0
 s    3 1.00
             18.731137    0.03349459952309
             2.8253937    0.23472694665786
             0.6401217    0.81375731841339
 s    1 1.00
             0.1612778                   1

10 0
 s    6 1.00
             3047.5249  0.0018347001629433
             457.36951    0.01403730124668
             103.94869   0.068842606114048
             29.210155    0.23218442062076
              9.286663    0.46794134155879
              3.163927    0.36231203217765
 s    3 1.00
             7.8682724   -0.11933240861517
             1.8812885   -0.16085421161283
             0.5442493     1.1434564825515
 s    1 1.00
             0.1687144                   1
 p    3 1.00
             7.8682724   0.068999095584993
             1.8812885    0.31642397975315
             0.5442493    0.74430825237435
 p    1 1.00
             0.1687144                   1
 d    1 1.00
                   0.8                   1

11 0
 s    3 1.00
             18.731137    0.03349459952309
             2.8253937    0.23472694665786
             0.6401217    0.81375731841339
 s    1 1.00
             0.1612778                   1

12 0
 s    6 1.00
             3047.5249  0.0018347001629433
             457.36951    0.01403730124668
             103.94869   0.068842606114048
             29.210155    0.23218442062076
              9.286663    0.46794134155879
              3.163927    0.36231203217765
 s    3 1.00
             7.8682724   -0.11933240861517
             1.8812885   -0.16085421161283
             0.5442493     1.1434564825515
 s    1 1.00
             0.1687144                   1
 p    3 1.00
             7.8682724   0.068999095584993
             1.8812885    0.31642397975315
             0.5442493    0.74430825237435
 p    1 1.00
             0.1687144                   1
 d    1 1.00
                   0.8                   1

13 0
 s    3 1.00
             18.731137    0.03349459952309
             2.8253937    0.23472694665786
             0.6401217    0.81375731841339
 s    1 1.00
             0.1612778                   1

14 0
 s    3 1.00
             18.731137    0.03349459952309
             2.8253937    0.23472694665786
             0.6401217    0.81375731841339
 s    1 1.00
             0.1612778                   1

15 0
 s    6 1.00
             3047.5249  0.0018347001629433
             457.36951    0.01403730124668
             103.94869   0.068842606114048
             29.210155    0.23218442062076
              9.286663    0.46794134155879
              3.163927    0.36231203217765
 s    3 1.00
             7.8682724   -0.11933240861517
             1.8812885   -0.16085421161283
             0.5442493     1.1434564825515
 s    1 1.00
             0.1687144                   1
 p    3 1.00
             7.8682724   0.068999095584993
             1.8812885    0.31642397975315
             0.5442493    0.74430825237435
 p    1 1.00
             0.1687144                   1
 d    1 1.00
                   0.8                   1

16 0
 s    6 1.00
             3047.5249  0.0018347001629433
             457.36951    0.01403730124668
             103.94869   0.068842606114048
             29.210155    0.23218442062076
              9.286663    0.46794134155879
              3.163927    0.36231203217765
 s    3 1.00
             7.8682724   -0.11933240861517
             1.8812885   -0.16085421161283
             0.5442493     1.1434564825515
 s    1 1.00
             0.1687144                   1
 p    3 1.00
             7.8682724   0.068999095584993
             1.8812885    0.31642397975315
             0.5442493    0.74430825237435
 p    1 1.00
             0.1687144                   1
 d    1 1.00
                   0.8                   1

17 0
 s    6 1.00
             3047.5249  0.0018347001629433
             457.36951    0.01403730124668
             103.94869   0.068842606114048
             29.210155    0.23218442062076
              9.286663    0.46794134155879
              3.163927    0.36231203217765
 s    3 1.00
             7.8682724   -0.11933240861517
             1.8812885   -0.16085421161283
             0.5442493     1.1434564825515
 s    1 1.00
             0.1687144                   1
 p    3 1.00
             7.8682724   0.068999095584993
             1.8812885    0.31642397975315
             0.5442493    0.74430825237435
 p    1 1.00
             0.1687144                   1
 d    1 1.00
                   0.8                   1

18 0
 s    6 1.00
             3047.5249  0.0018347001629433
             457.36951    0.01403730124668
             103.94869   0.068842606114048
             29.210155    0.23218442062076
              9.286663    0.46794134155879
              3.163927    0.36231203217765
 s    3 1.00
             7.8682724   -0.11933240861517
             1.8812885   -0.16085421161283
             0.5442493     1.1434564825515
 s    1 1.00
             0.1687144                   1
 p    3 1.00
             7.8682724   0.068999095584993
             1.8812885    0.31642397975315
             0.5442493    0.74430825237435
 p    1 1.00
             0.1687144                   1
 d    1 1.00
                   0.8                   1

19 0
 s    6 1.00
             3047.5249  0.0018347001629433
             457.36951    0.01403730124668
             103.94869   0.068842606114048
             29.210155    0.23218442062076
              9.286663    0.46794134155879
              3.163927    0.36231203217765
 s    3 1.00
             7.8682724   -0.11933240861517
             1.8812885   -0.16085421161283
             0.5442493     1.1434564825515
 s    1 1.00
             0.1687144                   1
 p    3 1.00
             7.8682724   0.068999095584993
             1.8812885    0.31642397975315
             0.5442493    0.74430825237435
 p    1 1.00
             0.1687144                   1
 d    1 1.00
                   0.8                   1

20 0
 s    6 1.00
             3047.5249  0.0018347001629433
             457.36951    0.01403730124668
             103.94869   0.068842606114048
             29.210155    0.23218442062076
              9.286663    0.46794134155879
              3.163927    0.36231203217765
 s    3 1.00
             7.8682724   -0.11933240861517
             1.8812885   -0.16085421161283
             0.5442493     1.1434564825515
 s    1 1.00
             0.1687144                   1
 p    3 1.00
             7.8682724   0.068999095584993
             1.8812885    0.31642397975315
             0.5442493    0.74430825237435
 p    1 1.00
             0.1687144                   1
 d    1 1.00
                   0.8                   1

21 0
 s    6 1.00
             3047.5249  0.0018347001629433
             457.36951    0.01403730124668
             103.94869   0.068842606114048
             29.210155    0.23218442062076
              9.286663    0.46794134155879
              3.163927    0.36231203217765
 s    3 1.00
             7.8682724   -0.11933240861517
             1.8812885   -0.16085421161283
             0.5442493     1.1434564825515
 s    1 1.00
             0.1687144                   1
 p    3 1.00
             7.8682724   0.068999095584993
             1.8812885    0.31642397975315
             0.5442493    0.74430825237435
 p    1 1.00
             0.1687144                   1
 d    1 1.00
                   0.8                   1

22 0
 s    3 1.00
             18.731137    0.03349459952309
             2.8253937    0.23472694665786
             0.6401217    0.81375731841339
 s    1 1.00
             0.1612778                   1

23 0
 s    3 1.00
             18.731137    0.03349459952309
             2.8253937    0.23472694665786
             0.6401217    0.81375731841339
 s    1 1.00
             0.1612778                   1

24 0
 s    3 1.00
             18.731137    0.03349459952309
             2.8253937    0.23472694665786
             0.6401217    0.81375731841339
 s    1 1.00
             0.1612778                   1

25 0
 s    3 1.00
             18.731137    0.03349459952309
             2.8253937    0.23472694665786
             0.6401217    0.81375731841339
 s    1 1.00
             0.1612778                   1

26 0
 s    3 1.00
             18.731137    0.03349459952309
             2.8253937    0.23472694665786
             0.6401217    0.81375731841339
 s    1 1.00
             0.1612778                   1

27 0
 s    3 1.00
             18.731137    0.03349459952309
             2.8253937    0.23472694665786
             0.6401217    0.81375731841339
 s    1 1.00
             0.1612778                   1

28 0
 s    3 1.00
             18.731137    0.03349459952309
             2.8253937    0.23472694665786
             0.6401217    0.81375731841339
 s    1 1.00
             0.1612778                   1

29 0
 s    3 1.00
             18.731137    0.03349459952309
             2.8253937    0.23472694665786
             0.6401217    0.81375731841339
 s    1 1.00
             0.1612778                   1

30 0
 s    3 1.00
             18.731137    0.03349459952309
             2.8253937    0.23472694665786
             0.6401217    0.81375731841339
 s    1 1.00
             0.1612778                   1

31 0
 s    3 1.00
             18.731137    0.03349459952309
             2.8253937    0.23472694665786
             0.6401217    0.81375731841339
 s    1 1.00
             0.1612778                   1

32 0
 s    3 1.00
             18.731137    0.03349459952309
             2.8253937    0.23472694665786
             0.6401217    0.81375731841339
 s    1 1.00
             0.1612778                   1

33 0
 s    6 1.00
             3047.5249  0.0018347001629433
             457.36951    0.01403730124668
             103.94869   0.068842606114048
             29.210155    0.23218442062076
              9.286663    0.46794134155879
              3.163927    0.36231203217765
 s    3 1.00
             7.8682724   -0.11933240861517
             1.8812885   -0.16085421161283
             0.5442493     1.1434564825515
 s    1 1.00
             0.1687144                   1
 p    3 1.00
             7.8682724   0.068999095584993
             1.8812885    0.31642397975315
             0.5442493    0.74430825237435
 p    1 1.00
             0.1687144                   1
 d    1 1.00
                   0.8                   1

34 0
 s    6 1.00
             3047.5249  0.0018347001629433
             457.36951    0.01403730124668
             103.94869   0.068842606114048
             29.210155    0.23218442062076
              9.286663    0.46794134155879
              3.163927    0.36231203217765
 s    3 1.00
             7.8682724   -0.11933240861517
             1.8812885   -0.16085421161283
             0.5442493     1.1434564825515
 s    1 1.00
             0.1687144                   1
 p    3 1.00
             7.8682724   0.068999095584993
             1.8812885    0.31642397975315
             0.5442493    0.74430825237435
 p    1 1.00
             0.1687144                   1
 d    1 1.00
                   0.8                   1

35 0
 s    3 1.00
             18.731137    0.03349459952309
             2.8253937    0.23472694665786
             0.6401217    0.81375731841339
 s    1 1.00
             0.1612778                   1

36 0
 s    6 1.00
             3047.5249  0.0018347001629433
             457.36951    0.01403730124668
             103.94869   0.068842606114048
             29.210155    0.23218442062076
              9.286663    0.46794134155879
              3.163927    0.36231203217765
 s    3 1.00
             7.8682724   -0.11933240861517
             1.8812885   -0.16085421161283
             0.5442493     1.1434564825515
 s    1 1.00
             0.1687144                   1
 p    3 1.00
             7.8682724   0.068999095584993
             1.8812885    0.31642397975315
             0.5442493    0.74430825237435
 p    1 1.00
             0.1687144                   1
 d    1 1.00
                   0.8                   1

37 0
 s    3 1.00
             18.731137    0.03349459952309
             2.8253937    0.23472694665786
             0.6401217    0.81375731841339
 s    1 1.00
             0.1612778                   1

38 0
 s    3 1.00
             18.731137    0.03349459952309
             2.8253937    0.23472694665786
             0.6401217    0.81375731841339
 s    1 1.00
             0.1612778                   1

39 0
 s    6 1.00
             3047.5249  0.0018347001629433
             457.36951    0.01403730124668
             103.94869   0.068842606114048
             29.210155    0.23218442062076
              9.286663    0.46794134155879
              3.163927    0.36231203217765
 s    3 1.00
             7.8682724   -0.11933240861517
             1.8812885   -0.16085421161283
             0.5442493     1.1434564825515
 s    1 1.00
             0.1687144                   1
 p    3 1.00
             7.8682724   0.068999095584993
             1.8812885    0.31642397975315
             0.5442493    0.74430825237435
 p    1 1.00
             0.1687144                   1
 d    1 1.00
                   0.8                   1

40 0
 s    6 1.00
             3047.5249  0.0018347001629433
             457.36951    0.01403730124668
             103.94869   0.068842606114048
             29.210155    0.23218442062076
              9.286663    0.46794134155879
              3.163927    0.36231203217765
 s    3 1.00
             7.8682724   -0.11933240861517
             1.8812885   -0.16085421161283
             0.5442493     1.1434564825515
 s    1 1.00
             0.1687144                   1
 p    3 1.00
             7.8682724   0.068999095584993
             1.8812885    0.31642397975315
             0.5442493    0.74430825237435
 p    1 1.00
             0.1687144                   1
 d    1 1.00
                   0.8                   1

41 0
 s    3 1.00
             18.731137    0.03349459952309
             2.8253937    0.23472694665786
             0.6401217    0.81375731841339
 s    1 1.00
             0.1612778                   1

42 0
 s    6 1.00
             5484.6717   0.001831099805527
             825.23495   0.013950098518422
             188.04696    0.06844509273075
               52.9645    0.23271427528445
              16.89757    0.47019295006289
             5.7996353    0.35852086192309
 s    3 1.00
             15.539616   -0.11077750382508
             3.5999336   -0.14802630511126
             1.0137618     1.1307670390447
 s    1 1.00
             0.2700058                   1
 p    3 1.00
             15.539616   0.070874299543311
             3.5999336    0.33975279781076
             1.0137618    0.72715859531445
 p    1 1.00
             0.2700058                   1
 d    1 1.00
                   0.8                   1

43 0
 s    3 1.00
             18.731137    0.03349459952309
             2.8253937    0.23472694665786
             0.6401217    0.81375731841339
 s    1 1.00
             0.1612778                   1

[5d]
[7f]
[9g]

[MO]
 Sym= A
 Ene=               0
 Spin= Alpha
 Occup=    1.00000
   1     -0.01248466959743
   2    0.0013131163490922
   3    -0.007968052031779
   4    -0.00049035621301361
   5    0.00017930914527145
   6    -0.0013548682217987
   7    -0.00085227693015936
   8    -0.0014425732804311
   9    0.0060095034026552
  10    0.00097470027519166
  11    0.00095271161214428
  12    -0.00014945130233564
  13    0.0002298733133486
  14    -4.425194960707e-05
  15    0.00057161121453553
  16    0.0011170328468255
  17     -0.99475459395712
  18    -0.039385552888129
  19      0.03133946910663
  20    -0.0010721186407323
  21    -0.00022676913684513
  22    0.00059734083991654
  23    0.0040246793615146
  24    0.0011968890334813
  25    0.00091144194189054
  26    -0.0008035482202616
  27    0.00031883917394044
  28    0.00034619606257486
  29    -0.00027277286884239
  30    -0.00021188653998068
  31    0.0013232614595733
  32    -0.0041451351407076
  33    -0.013471234416045
  34    0.00038907595724115
  35    -0.0011669473986742
  36    -0.00093645569456234
  37    -0.00038777601861113
  38    0.0013190987435338
  39    0.0028864463294632
  40    -0.0037251408069122
  41    -0.0042575027902033
  42    0.0006600639114444
  43    -0.0013258260181059
  44    -0.00054088731529512
  45    0.00039632499442571
  46    0.0004146872201517
  47    0.00060963719811711
  48    0.00061032542947982
  49    0.00030162971202177
  50    0.00059000949379777
  51    -0.00022893077794718
  52    -0.00031804445913897
  53    -6.2722848588193e-05
  54    0.00040733443702226
  55    0.0056097130538452
  56    -0.0011347717322798
  57    -0.0073454255381957
  58    0.00018746432771851
  59    8.9579726456584e-06
  60    -0.00013221757029481
  61    0.00024091325796063
  62    0.00024606568053095
  63    0.00049752923868117
  64    -0.00034323832929989
  65    8.8954513896349e-06
  66    2.1087499240137e-05
  67    2.6756738117457e-06
  68    -6.9062825443427e-06
  69    1.0701950741045e-06
  70    -1.3655721192864e-05
  71    5.9418269731779e-06
  72    1.3593552835797e-05
  73    -2.8547353533219e-05
  74    -1.625023914067e-05
  75    -1.9612608195993e-05
  76    9.5678527546993e-07
  77    1.0088745154921e-06
  78    -6.2210836743859e-07
  79    -5.8424886701111e-07
  80    1.2038836115384e-06
  81    9.5042428211394e-07
  82    -3.6812236145154e-06
  83    -2.101738107543e-06
  84    7.6821761185428e-07
  85    5.9719215538807e-05
  86    6.4803176619794e-06
  87    1.8477937601186e-05
  88    -2.4357437735775e-05
  89    -1.628863108127e-05
  90    7.2527256467202e-05
  91    -1.0108665575948e-05
  92    -2.3025356376306e-06
  93    5.7015181719618e-06
  94    4.0267916463747e-07
  95    2.7294257654397e-06
  96    5.2370211862514e-06
  97    2.1037762570607e-05
  98    3.2373601432088e-05
  99    -1.9725596561128e-05
 100    -1.9163217290961e-05
 101    1.0501964005768e-05
 102    -4.4667373815841e-07
 103    -0.00028700227429605
 104    -4.0113843674003e-05
 105    -0.00012282715510409
 106    3.4900744649591e-05
 107    0.00017306032571295
 108    -0.00029985285555652
 109    -0.00010831594701093
 110    7.2348002721695e-06
 111    -9.101308239137e-07
 112    1.456233119211e-06
 113    2.4572057344895e-06
 114    1.005221141012e-05
 115    2.0710686490281e-06
 116    3.5556798497124e-05
 117    -0.00023521338784617
 118    4.8375747650524e-06
 119    1.5320139480123e-05
 120    -1.8108903331573e-05
 121    4.3694225325856e-05
 122    -7.1491157668973e-07
 123    -4.2649105938047e-05
 124    -1.0987703692871e-06
 125    1.2212114246814e-06
 126    8.2120971015031e-07
 127    3.2008979652632e-06
 128    6.3856463096929e-06
 129    1.8521327876896e-05
 130     2.05699761673e-05
 131    -0.00017410730037594
 132    -6.1269374673424e-05
 133    -7.2595548369275e-05
 134    -1.5439602243366e-06
 135    0.00037894473325804
 136    -0.00011265506537291
 137    0.0004190515680318
 138    -6.1066996181855e-06
 139    -2.0025201593969e-05
 140    -1.1873640721313e-05
 141    -1.1757294657399e-05
 142    -1.0697846994328e-05
 143    -3.209856566501e-06
 144    3.5544870222159e-05
 145    2.0847350820888e-05
 146    1.0361726668134e-05
 147    -6.9067886125467e-06
 148    -1.9810594408621e-05
 149    1.1611798382238e-05
 150    -3.5291784887763e-05
 151    8.6755396795113e-05
 152    6.8383503935299e-06
 153    6.2897580781307e-06
 154    5.5767078873391e-06
 155    -6.6270746250987e-06
 156    1.9187907615694e-06
 157    -4.0638932604748e-06
 158    -1.1368308269663e-05
 159    7.215343081575e-05
 160    -3.3479561746883e-06
 161    -1.0243507345913e-05
 162    2.7812000208774e-06
 163    6.5450405733487e-05
 164    -4.3670753813348e-05
 165    -1.167330053627e-05
 166    -4.7696727094265e-06
 167    1.4358259734073e-06
 168    -1.1187709334575e-07
 169    -1.31977685986e-06
 170    -2.3089952951467e-06
 171    3.0841792274738e-06
 172    7.1532677752624e-06
 173    -4.912708838301e-05
 174    -1.6781868707688e-05
 175    -4.8685749710195e-06
 176    -3.6911631838932e-05
 177    -2.4232078238723e-05
 178    -3.9697264333656e-06
 179    3.1043240729428e-06
 180    -1.3354297906589e-06
 181    -5.1564189751261e-06
 182    -6.0172352852569e-07
 183    2.3812728348219e-06
 184    -1.9998456054574e-06
 185    3.9964035816429e-06
 186    3.691475135558e-05
 187    -0.00013011337426756
 188    3.9355351042507e-06
 189    6.6406030856279e-06
 190    -1.2697836131371e-05
 191    -4.6690154674306e-07
 192    3.9612573254673e-05
 193    9.051944466718e-05
 194    -3.2002297478889e-06
 195    -1.7240174523377e-06
 196    -3.4557673218848e-06
 197    -4.3932381484581e-07
 198    -2.3512907451672e-07
 199    1.3100369181793e-05
 200    -3.0430760662053e-06
 201    -1.1022678460443e-06
 202    -3.0545315202815e-05
 203    -1.1682754008091e-05
 204    -2.6883054949485e-05
 205    2.5019472964304e-05
 206    7.0170719138677e-05
 207    -1.1436158083576e-05
 208    4.8693482063086e-05
 209    -1.1893619157474e-05
 210    3.4170596197504e-05
 211    -9.670332725794e-06
 212    -2.5772132260973e-05
 213    -2.0883096056893e-06
 214    2.1420027415687e-05
 215    1.7487824161667e-05
 216    2.7443401203819e-05
 217    -3.0620225975794e-06
 218    -5.9197721847643e-07
 219    -9.2727617693982e-06
 220    5.6758650861176e-06
 221    -1.351278573323e-05
 222    7.1629122081465e-05
 223    -0.0010301849976953
 224    0.00020529346598271
 225    0.00012346743707819
 226    -3.9137649872673e-05
 227    -0.00063283298469974
 228    -0.00026900836894144
 229    0.00099336244294796
 230    -1.1014898954819e-05
 231    4.2473726018293e-05
 232     1.88006404564e-05
 233    -2.8911164427396e-05
 234    -2.2718260998696e-05
 235    0.00021216083617999
 236    -0.00027950862826177
 237    -2.0135346635363e-06
 238    5.9537535315627e-05
 239    4.5946703848162e-05
 240    0.00053543079311715
 241    -0.00035009185114113
 242    -0.00034026454401667
 243    0.0018633852915276
 244    -2.0257634393754e-05
 245    -7.6355871107431e-05
 246    -1.0061871159436e-05
 247    -2.1151182598127e-05
 248    -5.6190639476167e-08
 249    -7.8412198159096e-05
 250    -0.0003976048564335
 251    -0.00016010723890827
 252    0.00033717781010126
 253    -0.0021301555163912
 254    -0.00070878944461913
 255    4.123100172541e-05
 256    -0.00068589378095826
 257    -0.00017015777875651
 258    -0.00033111810851459
 259      0.00169247455434
 260    4.7452397111974e-05
 261    1.7876197189499e-05
 262    2.1538424421751e-05
 263    -0.00013994289635485
 264    -7.8909875658384e-05
 265    7.3594967186903e-05
 266    -0.00013711557653351
 267    0.00052862092460507
 268    0.00088852833763847
 269    0.00011628997128043
 270    0.00068605987373011
 271    -0.0069623640917202
 272    0.00015860961644389
 273    -0.00034086874597665
 274    -0.0002595311238394
 275    0.0015201442459892
 276    0.0028116437622626
 277    -0.0031349000623926
 278    -9.2898338322772e-05
 279    0.00018535199726796
 280    0.00011669296783483