[Molden Format]
made by pyscf v[2.0.1]
[Atoms] (AU)
C   1   6     0.69100024066471     0.64692934207205    -3.48223131169301
H   2   1     2.68052439830868     1.13355088658700    -3.25784032593313
C   3   6    -0.36286361513219     0.85440132524594    -5.97030179418974
H   4   1    -2.35448549047279     0.36322488579172    -6.17995817793143
C   5   6     0.93697958957450     1.61209284601821    -8.05828437677121
H   6   1     2.28684852848462     3.15852966115860    -7.89296704602693
C   7   6     0.63106041134958     0.47904579632082   -10.50346361691732
H   8   1    -0.72718870892227    -1.06897620367389   -10.63951300078030
H   9   1     1.55630230933075    -1.92953025305990    12.99630010416247
C   10   6     0.75233899775814    -2.21270439606481    11.10705728102219
H   11   1    -0.43433408177274    -3.90944857546550    11.22216085340412
C   12   6     2.86362581178706    -2.63237380607947     9.17926416456045
H   13   1     4.39038949912609    -1.24955421540245     9.49899813497433
H   14   1     3.74629220191363    -4.48798724300892     9.47414880959024
C   15   6     2.02478325613682    -2.42177285709634     6.44560829588644
C   16   6     3.88048732735477    -3.58795445234514     4.61402886975252
C   17   6    -0.18412382258602    -1.30464291234259     5.76021113872346
C   18   6    -2.10044360464350    -0.26837831858460     7.71610340967100
C   19   6    -3.08956938670431     2.35282328359417     6.88693925039594
C   20   6    -4.37372924086464    -2.09766595989678     7.93610724222001
C   21   6    -0.83850430601230     0.06372213486173    10.33002307638377
H   22   1     0.38411922151109     1.74281358582432    10.27380136542181
H   23   1    -2.30980003007874     0.45460143924521    11.73986301809809
H   24   1     4.58527064644668    -5.38706904487420     5.36778158031719
H   25   1     5.54944938085014    -2.37631462192748     4.35398898413318
H   26   1     3.06633019150423    -3.94118377050688     2.75255466040884
H   27   1    -4.17727778763735     2.26573369139522     5.12914900961283
H   28   1    -1.52662344944051     3.68001877445626     6.59540397144508
H   29   1    -4.32916174397830     3.13643051467482     8.35225460090378
H   30   1    -5.32329548508442    -2.36691813602939     6.11583672749896
H   31   1    -5.77989366602257    -1.33896741843465     9.25748940450990
H   32   1    -3.79310905208926    -3.96389819310853     8.61386170102686
C   33   6    -1.01100794811226    -1.06331657314144     3.11929490449947
C   34   6     0.37686231036534    -0.33275864505552     1.09165013605873
H   35   1    -3.01671213906703    -1.40297922279997     2.77827895090944
C   36   6    -0.64382707979370    -0.11591880174385    -1.42063131251064
H   37   1     2.35569259782137     0.17174499283897     1.33641070251401
H   38   1    -2.63317482980319    -0.60229203511219    -1.66119700387645
C   39   6     1.88057107480096     1.17167710004378   -12.63318625924474
C   40   6     1.43424299107759    -0.10242214041261   -15.03828188134704
H   41   1     3.25774949416826     2.69847908646217   -12.62832443574420
O   42   8     2.48751113017790     0.42264932688836   -17.02215443525925
H   43   1     0.01015752982003    -1.65333508727432   -14.95564685399208
[GTO]
1 0
 s    6 1.00
             3047.5249  0.0018347001629433
             457.36951    0.01403730124668
             103.94869   0.068842606114048
             29.210155    0.23218442062076
              9.286663    0.46794134155879
              3.163927    0.36231203217765
 s    3 1.00
             7.8682724   -0.11933240861517
             1.8812885   -0.16085421161283
             0.5442493     1.1434564825515
 s    1 1.00
             0.1687144                   1
 p    3 1.00
             7.8682724   0.068999095584993
             1.8812885    0.31642397975315
             0.5442493    0.74430825237435
 p    1 1.00
             0.1687144                   1
 d    1 1.00
                   0.8                   1

2 0
 s    3 1.00
             18.731137    0.03349459952309
             2.8253937    0.23472694665786
             0.6401217    0.81375731841339
 s    1 1.00
             0.1612778                   1

3 0
 s    6 1.00
             3047.5249  0.0018347001629433
             457.36951    0.01403730124668
             103.94869   0.068842606114048
             29.210155    0.23218442062076
              9.286663    0.46794134155879
              3.163927    0.36231203217765
 s    3 1.00
             7.8682724   -0.11933240861517
             1.8812885   -0.16085421161283
             0.5442493     1.1434564825515
 s    1 1.00
             0.1687144                   1
 p    3 1.00
             7.8682724   0.068999095584993
             1.8812885    0.31642397975315
             0.5442493    0.74430825237435
 p    1 1.00
             0.1687144                   1
 d    1 1.00
                   0.8                   1

4 0
 s    3 1.00
             18.731137    0.03349459952309
             2.8253937    0.23472694665786
             0.6401217    0.81375731841339
 s    1 1.00
             0.1612778                   1

5 0
 s    6 1.00
             3047.5249  0.0018347001629433
             457.36951    0.01403730124668
             103.94869   0.068842606114048
             29.210155    0.23218442062076
              9.286663    0.46794134155879
              3.163927    0.36231203217765
 s    3 1.00
             7.8682724   -0.11933240861517
             1.8812885   -0.16085421161283
             0.5442493     1.1434564825515
 s    1 1.00
             0.1687144                   1
 p    3 1.00
             7.8682724   0.068999095584993
             1.8812885    0.31642397975315
             0.5442493    0.74430825237435
 p    1 1.00
             0.1687144                   1
 d    1 1.00
                   0.8                   1

6 0
 s    3 1.00
             18.731137    0.03349459952309
             2.8253937    0.23472694665786
             0.6401217    0.81375731841339
 s    1 1.00
             0.1612778                   1

7 0
 s    6 1.00
             3047.5249  0.0018347001629433
             457.36951    0.01403730124668
             103.94869   0.068842606114048
             29.210155    0.23218442062076
              9.286663    0.46794134155879
              3.163927    0.36231203217765
 s    3 1.00
             7.8682724   -0.11933240861517
             1.8812885   -0.16085421161283
             0.5442493     1.1434564825515
 s    1 1.00
             0.1687144                   1
 p    3 1.00
             7.8682724   0.068999095584993
             1.8812885    0.31642397975315
             0.5442493    0.74430825237435
 p    1 1.00
             0.1687144                   1
 d    1 1.00
                   0.8                   1

8 0
 s    3 1.00
             18.731137    0.03349459952309
             2.8253937    0.23472694665786
             0.6401217    0.81375731841339
 s    1 1.00
             0.1612778                   1

9 0
 s    3 1.00
             18.731137    0.03349459952309
             2.8253937    0.23472694665786
             0.6401217    0.81375731841339
 s    1 1.00
             0.1612778                   1

10 0
 s    6 1.00
             3047.5249  0.0018347001629433
             457.36951    0.01403730124668
             103.94869   0.068842606114048
             29.210155    0.23218442062076
              9.286663    0.46794134155879
              3.163927    0.36231203217765
 s    3 1.00
             7.8682724   -0.11933240861517
             1.8812885   -0.16085421161283
             0.5442493     1.1434564825515
 s    1 1.00
             0.1687144                   1
 p    3 1.00
             7.8682724   0.068999095584993
             1.8812885    0.31642397975315
             0.5442493    0.74430825237435
 p    1 1.00
             0.1687144                   1
 d    1 1.00
                   0.8                   1

11 0
 s    3 1.00
             18.731137    0.03349459952309
             2.8253937    0.23472694665786
             0.6401217    0.81375731841339
 s    1 1.00
             0.1612778                   1

12 0
 s    6 1.00
             3047.5249  0.0018347001629433
             457.36951    0.01403730124668
             103.94869   0.068842606114048
             29.210155    0.23218442062076
              9.286663    0.46794134155879
              3.163927    0.36231203217765
 s    3 1.00
             7.8682724   -0.11933240861517
             1.8812885   -0.16085421161283
             0.5442493     1.1434564825515
 s    1 1.00
             0.1687144                   1
 p    3 1.00
             7.8682724   0.068999095584993
             1.8812885    0.31642397975315
             0.5442493    0.74430825237435
 p    1 1.00
             0.1687144                   1
 d    1 1.00
                   0.8                   1

13 0
 s    3 1.00
             18.731137    0.03349459952309
             2.8253937    0.23472694665786
             0.6401217    0.81375731841339
 s    1 1.00
             0.1612778                   1

14 0
 s    3 1.00
             18.731137    0.03349459952309
             2.8253937    0.23472694665786
             0.6401217    0.81375731841339
 s    1 1.00
             0.1612778                   1

15 0
 s    6 1.00
             3047.5249  0.0018347001629433
             457.36951    0.01403730124668
             103.94869   0.068842606114048
             29.210155    0.23218442062076
              9.286663    0.46794134155879
              3.163927    0.36231203217765
 s    3 1.00
             7.8682724   -0.11933240861517
             1.8812885   -0.16085421161283
             0.5442493     1.1434564825515
 s    1 1.00
             0.1687144                   1
 p    3 1.00
             7.8682724   0.068999095584993
             1.8812885    0.31642397975315
             0.5442493    0.74430825237435
 p    1 1.00
             0.1687144                   1
 d    1 1.00
                   0.8                   1

16 0
 s    6 1.00
             3047.5249  0.0018347001629433
             457.36951    0.01403730124668
             103.94869   0.068842606114048
             29.210155    0.23218442062076
              9.286663    0.46794134155879
              3.163927    0.36231203217765
 s    3 1.00
             7.8682724   -0.11933240861517
             1.8812885   -0.16085421161283
             0.5442493     1.1434564825515
 s    1 1.00
             0.1687144                   1
 p    3 1.00
             7.8682724   0.068999095584993
             1.8812885    0.31642397975315
             0.5442493    0.74430825237435
 p    1 1.00
             0.1687144                   1
 d    1 1.00
                   0.8                   1

17 0
 s    6 1.00
             3047.5249  0.0018347001629433
             457.36951    0.01403730124668
             103.94869   0.068842606114048
             29.210155    0.23218442062076
              9.286663    0.46794134155879
              3.163927    0.36231203217765
 s    3 1.00
             7.8682724   -0.11933240861517
             1.8812885   -0.16085421161283
             0.5442493     1.1434564825515
 s    1 1.00
             0.1687144                   1
 p    3 1.00
             7.8682724   0.068999095584993
             1.8812885    0.31642397975315
             0.5442493    0.74430825237435
 p    1 1.00
             0.1687144                   1
 d    1 1.00
                   0.8                   1

18 0
 s    6 1.00
             3047.5249  0.0018347001629433
             457.36951    0.01403730124668
             103.94869   0.068842606114048
             29.210155    0.23218442062076
              9.286663    0.46794134155879
              3.163927    0.36231203217765
 s    3 1.00
             7.8682724   -0.11933240861517
             1.8812885   -0.16085421161283
             0.5442493     1.1434564825515
 s    1 1.00
             0.1687144                   1
 p    3 1.00
             7.8682724   0.068999095584993
             1.8812885    0.31642397975315
             0.5442493    0.74430825237435
 p    1 1.00
             0.1687144                   1
 d    1 1.00
                   0.8                   1

19 0
 s    6 1.00
             3047.5249  0.0018347001629433
             457.36951    0.01403730124668
             103.94869   0.068842606114048
             29.210155    0.23218442062076
              9.286663    0.46794134155879
              3.163927    0.36231203217765
 s    3 1.00
             7.8682724   -0.11933240861517
             1.8812885   -0.16085421161283
             0.5442493     1.1434564825515
 s    1 1.00
             0.1687144                   1
 p    3 1.00
             7.8682724   0.068999095584993
             1.8812885    0.31642397975315
             0.5442493    0.74430825237435
 p    1 1.00
             0.1687144                   1
 d    1 1.00
                   0.8                   1

20 0
 s    6 1.00
             3047.5249  0.0018347001629433
             457.36951    0.01403730124668
             103.94869   0.068842606114048
             29.210155    0.23218442062076
              9.286663    0.46794134155879
              3.163927    0.36231203217765
 s    3 1.00
             7.8682724   -0.11933240861517
             1.8812885   -0.16085421161283
             0.5442493     1.1434564825515
 s    1 1.00
             0.1687144                   1
 p    3 1.00
             7.8682724   0.068999095584993
             1.8812885    0.31642397975315
             0.5442493    0.74430825237435
 p    1 1.00
             0.1687144                   1
 d    1 1.00
                   0.8                   1

21 0
 s    6 1.00
             3047.5249  0.0018347001629433
             457.36951    0.01403730124668
             103.94869   0.068842606114048
             29.210155    0.23218442062076
              9.286663    0.46794134155879
              3.163927    0.36231203217765
 s    3 1.00
             7.8682724   -0.11933240861517
             1.8812885   -0.16085421161283
             0.5442493     1.1434564825515
 s    1 1.00
             0.1687144                   1
 p    3 1.00
             7.8682724   0.068999095584993
             1.8812885    0.31642397975315
             0.5442493    0.74430825237435
 p    1 1.00
             0.1687144                   1
 d    1 1.00
                   0.8                   1

22 0
 s    3 1.00
             18.731137    0.03349459952309
             2.8253937    0.23472694665786
             0.6401217    0.81375731841339
 s    1 1.00
             0.1612778                   1

23 0
 s    3 1.00
             18.731137    0.03349459952309
             2.8253937    0.23472694665786
             0.6401217    0.81375731841339
 s    1 1.00
             0.1612778                   1

24 0
 s    3 1.00
             18.731137    0.03349459952309
             2.8253937    0.23472694665786
             0.6401217    0.81375731841339
 s    1 1.00
             0.1612778                   1

25 0
 s    3 1.00
             18.731137    0.03349459952309
             2.8253937    0.23472694665786
             0.6401217    0.81375731841339
 s    1 1.00
             0.1612778                   1

26 0
 s    3 1.00
             18.731137    0.03349459952309
             2.8253937    0.23472694665786
             0.6401217    0.81375731841339
 s    1 1.00
             0.1612778                   1

27 0
 s    3 1.00
             18.731137    0.03349459952309
             2.8253937    0.23472694665786
             0.6401217    0.81375731841339
 s    1 1.00
             0.1612778                   1

28 0
 s    3 1.00
             18.731137    0.03349459952309
             2.8253937    0.23472694665786
             0.6401217    0.81375731841339
 s    1 1.00
             0.1612778                   1

29 0
 s    3 1.00
             18.731137    0.03349459952309
             2.8253937    0.23472694665786
             0.6401217    0.81375731841339
 s    1 1.00
             0.1612778                   1

30 0
 s    3 1.00
             18.731137    0.03349459952309
             2.8253937    0.23472694665786
             0.6401217    0.81375731841339
 s    1 1.00
             0.1612778                   1

31 0
 s    3 1.00
             18.731137    0.03349459952309
             2.8253937    0.23472694665786
             0.6401217    0.81375731841339
 s    1 1.00
             0.1612778                   1

32 0
 s    3 1.00
             18.731137    0.03349459952309
             2.8253937    0.23472694665786
             0.6401217    0.81375731841339
 s    1 1.00
             0.1612778                   1

33 0
 s    6 1.00
             3047.5249  0.0018347001629433
             457.36951    0.01403730124668
             103.94869   0.068842606114048
             29.210155    0.23218442062076
              9.286663    0.46794134155879
              3.163927    0.36231203217765
 s    3 1.00
             7.8682724   -0.11933240861517
             1.8812885   -0.16085421161283
             0.5442493     1.1434564825515
 s    1 1.00
             0.1687144                   1
 p    3 1.00
             7.8682724   0.068999095584993
             1.8812885    0.31642397975315
             0.5442493    0.74430825237435
 p    1 1.00
             0.1687144                   1
 d    1 1.00
                   0.8                   1

34 0
 s    6 1.00
             3047.5249  0.0018347001629433
             457.36951    0.01403730124668
             103.94869   0.068842606114048
             29.210155    0.23218442062076
              9.286663    0.46794134155879
              3.163927    0.36231203217765
 s    3 1.00
             7.8682724   -0.11933240861517
             1.8812885   -0.16085421161283
             0.5442493     1.1434564825515
 s    1 1.00
             0.1687144                   1
 p    3 1.00
             7.8682724   0.068999095584993
             1.8812885    0.31642397975315
             0.5442493    0.74430825237435
 p    1 1.00
             0.1687144                   1
 d    1 1.00
                   0.8                   1

35 0
 s    3 1.00
             18.731137    0.03349459952309
             2.8253937    0.23472694665786
             0.6401217    0.81375731841339
 s    1 1.00
             0.1612778                   1

36 0
 s    6 1.00
             3047.5249  0.0018347001629433
             457.36951    0.01403730124668
             103.94869   0.068842606114048
             29.210155    0.23218442062076
              9.286663    0.46794134155879
              3.163927    0.36231203217765
 s    3 1.00
             7.8682724   -0.11933240861517
             1.8812885   -0.16085421161283
             0.5442493     1.1434564825515
 s    1 1.00
             0.1687144                   1
 p    3 1.00
             7.8682724   0.068999095584993
             1.8812885    0.31642397975315
             0.5442493    0.74430825237435
 p    1 1.00
             0.1687144                   1
 d    1 1.00
                   0.8                   1

37 0
 s    3 1.00
             18.731137    0.03349459952309
             2.8253937    0.23472694665786
             0.6401217    0.81375731841339
 s    1 1.00
             0.1612778                   1

38 0
 s    3 1.00
             18.731137    0.03349459952309
             2.8253937    0.23472694665786
             0.6401217    0.81375731841339
 s    1 1.00
             0.1612778                   1

39 0
 s    6 1.00
             3047.5249  0.0018347001629433
             457.36951    0.01403730124668
             103.94869   0.068842606114048
             29.210155    0.23218442062076
              9.286663    0.46794134155879
              3.163927    0.36231203217765
 s    3 1.00
             7.8682724   -0.11933240861517
             1.8812885   -0.16085421161283
             0.5442493     1.1434564825515
 s    1 1.00
             0.1687144                   1
 p    3 1.00
             7.8682724   0.068999095584993
             1.8812885    0.31642397975315
             0.5442493    0.74430825237435
 p    1 1.00
             0.1687144                   1
 d    1 1.00
                   0.8                   1

40 0
 s    6 1.00
             3047.5249  0.0018347001629433
             457.36951    0.01403730124668
             103.94869   0.068842606114048
             29.210155    0.23218442062076
              9.286663    0.46794134155879
              3.163927    0.36231203217765
 s    3 1.00
             7.8682724   -0.11933240861517
             1.8812885   -0.16085421161283
             0.5442493     1.1434564825515
 s    1 1.00
             0.1687144                   1
 p    3 1.00
             7.8682724   0.068999095584993
             1.8812885    0.31642397975315
             0.5442493    0.74430825237435
 p    1 1.00
             0.1687144                   1
 d    1 1.00
                   0.8                   1

41 0
 s    3 1.00
             18.731137    0.03349459952309
             2.8253937    0.23472694665786
             0.6401217    0.81375731841339
 s    1 1.00
             0.1612778                   1

42 0
 s    6 1.00
             5484.6717   0.001831099805527
             825.23495   0.013950098518422
             188.04696    0.06844509273075
               52.9645    0.23271427528445
              16.89757    0.47019295006289
             5.7996353    0.35852086192309
 s    3 1.00
             15.539616   -0.11077750382508
             3.5999336   -0.14802630511126
             1.0137618     1.1307670390447
 s    1 1.00
             0.2700058                   1
 p    3 1.00
             15.539616   0.070874299543311
             3.5999336    0.33975279781076
             1.0137618    0.72715859531445
 p    1 1.00
             0.2700058                   1
 d    1 1.00
                   0.8                   1

43 0
 s    3 1.00
             18.731137    0.03349459952309
             2.8253937    0.23472694665786
             0.6401217    0.81375731841339
 s    1 1.00
             0.1612778                   1

[5d]
[7f]
[9g]

[MO]
 Sym= A
 Ene=               0
 Spin= Alpha
 Occup=    1.00000
   1    0.0096462532084592
   2    -0.0013356938241816
   3    0.0074768978857911
   4    0.00051489861510713
   5    -8.2369996438323e-05
   6    0.0013574280322271
   7    0.00063263000280763
   8    0.00080623498771101
   9    -0.0040024702880431
  10    -0.0010469034403065
  11    -0.0010121210587302
  12    0.0001438730315139
  13    -0.00026518741266519
  14    4.7392222986266e-05
  15    -0.00049845935068598
  16    -0.0010636380950445
  17      0.99446461229082
  18     0.038609258876918
  19    -0.029627343429312
  20    0.00082733041860853
  21    0.00021053134242097
  22    -0.00026453503937219
  23    -0.0033755286991533
  24    -0.0010396923558226
  25    -0.00016083105008075
  26    0.00084291127453423
  27    -0.00025576474306043
  28    -0.00040237583949079
  29    0.00023223529511385
  30    0.0001218350219815
  31    -0.0012521589018501
  32    0.0041081893324162
  33     0.026118641076656
  34    -0.00075768777972675
  35    0.0053430786513403
  36    0.00095468472045637
  37    0.00044242969270991
  38    -0.0014795812636315
  39    -0.00031253139819433
  40    0.0010437905715049
  41    0.0050585943352628
  42    -0.00072590107771099
  43    0.0011196289626024
  44    0.00058382912977184
  45    -0.00039464242499809
  46    -0.00045914814174688
  47    -0.0005226403209629
  48    -0.00064303438558949
  49    0.0053853501564626
  50    -0.0002276710217564
  51    0.00032972998977126
  52    2.1801183831009e-05
  53    0.00014198987726167
  54    -0.00033127832857742
  55    -0.0010574745151771
  56    -0.00039296122171361
  57     0.004402695997958
  58    -4.1426290064418e-05
  59    8.4048525885026e-05
  60    0.00012107078236968
  61    -4.8615366775114e-05
  62    0.00013630620544172
  63    -0.00026798863117013
  64    -0.00014383275353168
  65    -3.5473826595898e-06
  66    -8.0937864712458e-06
  67    -7.726622311068e-07
  68    1.7688391823536e-06
  69    2.6327784176368e-06
  70    -3.023383082359e-06
  71    1.6686434993585e-06
  72    -1.3231746417506e-06
  73    8.6173398894115e-06
  74    2.4539987744011e-05
  75    1.2602523979626e-05
  76    -8.4863848557136e-07
  77    -4.2277473014525e-08
  78    -1.4876584472904e-07
  79    5.6972964035843e-07
  80    -2.3054802734422e-07
  81    1.7266662434395e-06
  82    1.1408496097629e-05
  83    2.535940494875e-06
  84    -3.1003233756571e-06
  85    -4.5019282586086e-05
  86    1.4629757251946e-05
  87    -2.0568730287749e-06
  88    1.8375098185029e-05
  89    2.0868443425344e-05
  90    -5.0627983345029e-05
  91    1.2216149807533e-05
  92    4.2036427032769e-07
  93    -1.4830716653902e-06
  94    1.6134386110426e-06
  95    -7.3170059306539e-07
  96    -1.5227696302137e-06
  97    7.3109439516899e-06
  98    1.0319722399949e-05
  99    6.6121241151628e-06
 100    -2.2161414854912e-06
 101    -1.3222372151335e-05
 102    1.0979329918689e-05
 103    0.00019531088198035
 104    -3.1665405225994e-05
 105    2.395606967205e-05
 106    -2.8661282744893e-05
 107    -0.00013510004570376
 108    0.0001450524238333
 109    7.5644390384273e-05
 110    -6.0392012753776e-06
 111    5.2622808280892e-07
 112    -4.1777940634833e-08
 113    1.7325264626158e-06
 114    -3.8751470134703e-06
 115    -4.2264330858692e-06
 116    -2.4794667266514e-05
 117    0.00019320293959541
 118    -1.1652924760855e-06
 119    1.4259109220909e-06
 120    -1.0539047238056e-05
 121    -3.0227297345142e-05
 122    -2.6699569863004e-06
 123    -8.4967113847914e-06
 124    5.7629360022745e-07
 125    -1.7822504186088e-06
 126    -7.9366784174141e-07
 127    6.0281814469484e-07
 128    -1.6012483987013e-06
 129    -1.6379889493254e-05
 130    -1.3803757179643e-05
 131    6.8347775104567e-05
 132    2.7876230146788e-05
 133    -2.0504912259021e-05
 134    -5.259861706407e-06
 135    -0.00022895908425612
 136    3.7761498788343e-05
 137    -0.00026333462821161
 138    1.5406051900275e-06
 139    1.6928688912847e-05
 140    3.2645080095088e-06
 141    6.3554079677401e-06
 142    3.6134579411749e-06
 143    6.3620919435644e-06
 144    -2.9307171732321e-05
 145    -2.3247764628368e-05
 146    -1.8518105395627e-05
 147    2.5457516260008e-05
 148     3.61060841879e-05
 149    -1.7662016865812e-05
 150    -3.0380844857897e-06
 151    -2.1718909420575e-05
 152    -3.9359161956443e-06
 153    -3.0125930266773e-06
 154    -1.6265683399666e-06
 155    3.2284006538402e-06
 156    -1.6335232753267e-06
 157    1.7627580305893e-06
 158    4.9284306338185e-06
 159    -1.7009561572609e-05
 160    1.2375155166749e-05
 161    -3.9395716965197e-06
 162    1.3571258344417e-05
 163    -2.3769023201263e-05
 164    9.9362864733234e-06
 165    1.2382264817331e-05
 166    3.112182684815e-06
 167    -6.0849966198074e-07
 168    -5.0065780790091e-07
 169    1.8015572627191e-07
 170    1.3641356920261e-06
 171    5.0285868964063e-07
 172    -1.2697015303656e-05
 173    2.2372145569939e-05
 174    2.3593945205399e-06
 175    5.5403682697634e-07
 176    2.9948161354948e-05
 177    -5.9071397736333e-06
 178    -5.2187887463944e-06
 179    -1.3902268527691e-05
 180    1.5817092069544e-06
 181    2.9286700430921e-06
 182    7.891735737909e-07
 183    -2.5648836096483e-06
 184    1.0647080740408e-07
 185    -4.2030936966835e-06
 186    -1.7716643982529e-05
 187    7.2833496576558e-05
 188    -6.5231763491341e-07
 189    -7.8118455991156e-06
 190    -9.2041676850863e-06
 191    -5.8290384353157e-06
 192    -1.4969237000422e-05
 193    -6.6059318754791e-05
 194    1.6743169303544e-06
 195    2.2725493957128e-06
 196    2.1706111867424e-07
 197    1.7944952331112e-07
 198    1.6943198734428e-07
 199    -6.6757396940076e-06
 200    6.6920418517841e-07
 201    -1.1349152083186e-05
 202    5.2840779186089e-07
 203    -1.0732853558624e-05
 204    -9.5907578814847e-06
 205    -1.712658372403e-07
 206    -2.2299274533997e-05
 207    1.4166911792172e-05
 208    -7.83154024937e-05
 209    1.7191385633917e-07
 210    -2.2372979446394e-05
 211    4.8079851618512e-06
 212    1.4428130317939e-05
 213    2.828832410701e-07
 214    -1.3930318343196e-05
 215    -8.9052903428291e-06
 216    -4.6990412042469e-05
 217    3.7874285188919e-06
 218    3.6115804863313e-06
 219    5.7699691597263e-06
 220       5.046900961e-06
 221    1.7919651256074e-05
 222    -2.0919693925119e-05
 223    0.0006242771610354
 224    -0.00022106317476738
 225    5.5810522403037e-07
 226    5.1617342096154e-05
 227    0.0004829211053608
 228    0.00022789767133368
 229    -0.00048194321798917
 230    2.8199768092035e-06
 231    -2.2872372961658e-05
 232    -1.6699128047234e-05
 233    1.5761476701854e-05
 234    1.621023392267e-05
 235    -0.00021842992639924
 236    0.00025916835887807
 237    0.00083690208822104
 238    -0.00010789861562895
 239    0.00013683806387331
 240    -0.00051437621348737
 241    6.4156811208073e-05
 242    0.00033473673063426
 243    -0.0016659858136052
 244    3.9997889410153e-05
 245    5.3636514306198e-05
 246    3.1269727443092e-06
 247    1.7316196084995e-05
 248    1.2241509343096e-06
 249    8.0594602587846e-05
 250    0.00036393756776038
 251    0.00017395686924641
 252    -0.00022021463419112
 253    0.00058402948849539
 254    0.00069468822802513
 255    4.8117075173644e-05
 256    0.00070169743187472
 257    -0.00058860126754918
 258    0.00022858355327292
 259    -0.0013750823166409
 260    -6.3963352424969e-05
 261    3.8477951658128e-06
 262    -9.9561735231966e-06
 263    0.00011714915872262
 264    7.7105750610864e-05
 265    -5.251358922218e-05
 266    8.2403349056374e-05
 267    -0.0005371581574831
 268    -0.0010503044741829
 269    -0.00010436721036469
 270    -0.00031303744138141
 271     0.003182074097618
 272    0.00011515093054096
 273    0.00010521647022576
 274    0.00017062143262412
 275    -0.0014936490788602
 276    -0.00070775190487324
 277    0.0016435911863238
 278    3.1341815204576e-05
 279    -8.8282974155091e-05
 280    -1.8468466908042e-05
 281    3.4795356202501e-05