[Molden Format]
made by pyscf v[2.0.1]
[Atoms] (AU)
C   1   6     0.69100024066471     0.64692934207205    -3.48223131169301
H   2   1     2.68052439830868     1.13355088658700    -3.25784032593313
C   3   6    -0.36286361513219     0.85440132524594    -5.97030179418974
H   4   1    -2.35448549047279     0.36322488579172    -6.17995817793143
C   5   6     0.93697958957450     1.61209284601821    -8.05828437677121
H   6   1     1.01317567978386     3.61775130597871    -8.51923024455703
C   7   6     2.23318006711868    -0.09916996805052    -9.71591146992396
H   8   1     2.14101227267567    -2.10272353634710    -9.22908458474476
H   9   1     1.55630230933075    -1.92953025305990    12.99630010416247
C   10   6     0.75233899775814    -2.21270439606481    11.10705728102219
H   11   1    -0.43433408177274    -3.90944857546550    11.22216085340412
C   12   6     2.86362581178706    -2.63237380607947     9.17926416456045
H   13   1     4.39038949912609    -1.24955421540245     9.49899813497433
H   14   1     3.74629220191363    -4.48798724300892     9.47414880959024
C   15   6     2.02478325613682    -2.42177285709634     6.44560829588644
C   16   6     3.88048732735477    -3.58795445234514     4.61402886975252
C   17   6    -0.18412382258602    -1.30464291234259     5.76021113872346
C   18   6    -2.10044360464350    -0.26837831858460     7.71610340967100
C   19   6    -3.08956938670431     2.35282328359417     6.88693925039594
C   20   6    -4.37372924086464    -2.09766595989678     7.93610724222001
C   21   6    -0.83850430601230     0.06372213486173    10.33002307638377
H   22   1     0.38411922151109     1.74281358582432    10.27380136542181
H   23   1    -2.30980003007874     0.45460143924521    11.73986301809809
H   24   1     4.58527064644668    -5.38706904487420     5.36778158031719
H   25   1     5.54944938085014    -2.37631462192748     4.35398898413318
H   26   1     3.06633019150423    -3.94118377050688     2.75255466040884
H   27   1    -4.17727778763735     2.26573369139522     5.12914900961283
H   28   1    -1.52662344944051     3.68001877445626     6.59540397144508
H   29   1    -4.32916174397830     3.13643051467482     8.35225460090378
H   30   1    -5.32329548508442    -2.36691813602939     6.11583672749896
H   31   1    -5.77989366602257    -1.33896741843465     9.25748940450990
H   32   1    -3.79310905208926    -3.96389819310853     8.61386170102686
C   33   6    -1.01100794811226    -1.06331657314144     3.11929490449947
C   34   6     0.37686231036534    -0.33275864505552     1.09165013605873
H   35   1    -3.01671213906703    -1.40297922279997     2.77827895090944
C   36   6    -0.64382707979370    -0.11591880174385    -1.42063131251064
H   37   1     2.35569259782137     0.17174499283897     1.33641070251401
H   38   1    -2.63317482980319    -0.60229203511219    -1.66119700387645
C   39   6     3.54725246111133     0.56802416581284   -11.81467283923754
C   40   6     4.80361465317200    -1.32115012773234   -13.38298311351627
H   41   1     3.71304591439982     2.53035338251259   -12.40589607739641
O   42   8     6.01278787963721    -0.85546385399510   -15.29134904549642
H   43   1     4.58468921437884    -3.30497271823068   -12.70718839688766
[GTO]
1 0
 s    6 1.00
             3047.5249  0.0018347001629433
             457.36951    0.01403730124668
             103.94869   0.068842606114048
             29.210155    0.23218442062076
              9.286663    0.46794134155879
              3.163927    0.36231203217765
 s    3 1.00
             7.8682724   -0.11933240861517
             1.8812885   -0.16085421161283
             0.5442493     1.1434564825515
 s    1 1.00
             0.1687144                   1
 p    3 1.00
             7.8682724   0.068999095584993
             1.8812885    0.31642397975315
             0.5442493    0.74430825237435
 p    1 1.00
             0.1687144                   1
 d    1 1.00
                   0.8                   1

2 0
 s    3 1.00
             18.731137    0.03349459952309
             2.8253937    0.23472694665786
             0.6401217    0.81375731841339
 s    1 1.00
             0.1612778                   1

3 0
 s    6 1.00
             3047.5249  0.0018347001629433
             457.36951    0.01403730124668
             103.94869   0.068842606114048
             29.210155    0.23218442062076
              9.286663    0.46794134155879
              3.163927    0.36231203217765
 s    3 1.00
             7.8682724   -0.11933240861517
             1.8812885   -0.16085421161283
             0.5442493     1.1434564825515
 s    1 1.00
             0.1687144                   1
 p    3 1.00
             7.8682724   0.068999095584993
             1.8812885    0.31642397975315
             0.5442493    0.74430825237435
 p    1 1.00
             0.1687144                   1
 d    1 1.00
                   0.8                   1

4 0
 s    3 1.00
             18.731137    0.03349459952309
             2.8253937    0.23472694665786
             0.6401217    0.81375731841339
 s    1 1.00
             0.1612778                   1

5 0
 s    6 1.00
             3047.5249  0.0018347001629433
             457.36951    0.01403730124668
             103.94869   0.068842606114048
             29.210155    0.23218442062076
              9.286663    0.46794134155879
              3.163927    0.36231203217765
 s    3 1.00
             7.8682724   -0.11933240861517
             1.8812885   -0.16085421161283
             0.5442493     1.1434564825515
 s    1 1.00
             0.1687144                   1
 p    3 1.00
             7.8682724   0.068999095584993
             1.8812885    0.31642397975315
             0.5442493    0.74430825237435
 p    1 1.00
             0.1687144                   1
 d    1 1.00
                   0.8                   1

6 0
 s    3 1.00
             18.731137    0.03349459952309
             2.8253937    0.23472694665786
             0.6401217    0.81375731841339
 s    1 1.00
             0.1612778                   1

7 0
 s    6 1.00
             3047.5249  0.0018347001629433
             457.36951    0.01403730124668
             103.94869   0.068842606114048
             29.210155    0.23218442062076
              9.286663    0.46794134155879
              3.163927    0.36231203217765
 s    3 1.00
             7.8682724   -0.11933240861517
             1.8812885   -0.16085421161283
             0.5442493     1.1434564825515
 s    1 1.00
             0.1687144                   1
 p    3 1.00
             7.8682724   0.068999095584993
             1.8812885    0.31642397975315
             0.5442493    0.74430825237435
 p    1 1.00
             0.1687144                   1
 d    1 1.00
                   0.8                   1

8 0
 s    3 1.00
             18.731137    0.03349459952309
             2.8253937    0.23472694665786
             0.6401217    0.81375731841339
 s    1 1.00
             0.1612778                   1

9 0
 s    3 1.00
             18.731137    0.03349459952309
             2.8253937    0.23472694665786
             0.6401217    0.81375731841339
 s    1 1.00
             0.1612778                   1

10 0
 s    6 1.00
             3047.5249  0.0018347001629433
             457.36951    0.01403730124668
             103.94869   0.068842606114048
             29.210155    0.23218442062076
              9.286663    0.46794134155879
              3.163927    0.36231203217765
 s    3 1.00
             7.8682724   -0.11933240861517
             1.8812885   -0.16085421161283
             0.5442493     1.1434564825515
 s    1 1.00
             0.1687144                   1
 p    3 1.00
             7.8682724   0.068999095584993
             1.8812885    0.31642397975315
             0.5442493    0.74430825237435
 p    1 1.00
             0.1687144                   1
 d    1 1.00
                   0.8                   1

11 0
 s    3 1.00
             18.731137    0.03349459952309
             2.8253937    0.23472694665786
             0.6401217    0.81375731841339
 s    1 1.00
             0.1612778                   1

12 0
 s    6 1.00
             3047.5249  0.0018347001629433
             457.36951    0.01403730124668
             103.94869   0.068842606114048
             29.210155    0.23218442062076
              9.286663    0.46794134155879
              3.163927    0.36231203217765
 s    3 1.00
             7.8682724   -0.11933240861517
             1.8812885   -0.16085421161283
             0.5442493     1.1434564825515
 s    1 1.00
             0.1687144                   1
 p    3 1.00
             7.8682724   0.068999095584993
             1.8812885    0.31642397975315
             0.5442493    0.74430825237435
 p    1 1.00
             0.1687144                   1
 d    1 1.00
                   0.8                   1

13 0
 s    3 1.00
             18.731137    0.03349459952309
             2.8253937    0.23472694665786
             0.6401217    0.81375731841339
 s    1 1.00
             0.1612778                   1

14 0
 s    3 1.00
             18.731137    0.03349459952309
             2.8253937    0.23472694665786
             0.6401217    0.81375731841339
 s    1 1.00
             0.1612778                   1

15 0
 s    6 1.00
             3047.5249  0.0018347001629433
             457.36951    0.01403730124668
             103.94869   0.068842606114048
             29.210155    0.23218442062076
              9.286663    0.46794134155879
              3.163927    0.36231203217765
 s    3 1.00
             7.8682724   -0.11933240861517
             1.8812885   -0.16085421161283
             0.5442493     1.1434564825515
 s    1 1.00
             0.1687144                   1
 p    3 1.00
             7.8682724   0.068999095584993
             1.8812885    0.31642397975315
             0.5442493    0.74430825237435
 p    1 1.00
             0.1687144                   1
 d    1 1.00
                   0.8                   1

16 0
 s    6 1.00
             3047.5249  0.0018347001629433
             457.36951    0.01403730124668
             103.94869   0.068842606114048
             29.210155    0.23218442062076
              9.286663    0.46794134155879
              3.163927    0.36231203217765
 s    3 1.00
             7.8682724   -0.11933240861517
             1.8812885   -0.16085421161283
             0.5442493     1.1434564825515
 s    1 1.00
             0.1687144                   1
 p    3 1.00
             7.8682724   0.068999095584993
             1.8812885    0.31642397975315
             0.5442493    0.74430825237435
 p    1 1.00
             0.1687144                   1
 d    1 1.00
                   0.8                   1

17 0
 s    6 1.00
             3047.5249  0.0018347001629433
             457.36951    0.01403730124668
             103.94869   0.068842606114048
             29.210155    0.23218442062076
              9.286663    0.46794134155879
              3.163927    0.36231203217765
 s    3 1.00
             7.8682724   -0.11933240861517
             1.8812885   -0.16085421161283
             0.5442493     1.1434564825515
 s    1 1.00
             0.1687144                   1
 p    3 1.00
             7.8682724   0.068999095584993
             1.8812885    0.31642397975315
             0.5442493    0.74430825237435
 p    1 1.00
             0.1687144                   1
 d    1 1.00
                   0.8                   1

18 0
 s    6 1.00
             3047.5249  0.0018347001629433
             457.36951    0.01403730124668
             103.94869   0.068842606114048
             29.210155    0.23218442062076
              9.286663    0.46794134155879
              3.163927    0.36231203217765
 s    3 1.00
             7.8682724   -0.11933240861517
             1.8812885   -0.16085421161283
             0.5442493     1.1434564825515
 s    1 1.00
             0.1687144                   1
 p    3 1.00
             7.8682724   0.068999095584993
             1.8812885    0.31642397975315
             0.5442493    0.74430825237435
 p    1 1.00
             0.1687144                   1
 d    1 1.00
                   0.8                   1

19 0
 s    6 1.00
             3047.5249  0.0018347001629433
             457.36951    0.01403730124668
             103.94869   0.068842606114048
             29.210155    0.23218442062076
              9.286663    0.46794134155879
              3.163927    0.36231203217765
 s    3 1.00
             7.8682724   -0.11933240861517
             1.8812885   -0.16085421161283
             0.5442493     1.1434564825515
 s    1 1.00
             0.1687144                   1
 p    3 1.00
             7.8682724   0.068999095584993
             1.8812885    0.31642397975315
             0.5442493    0.74430825237435
 p    1 1.00
             0.1687144                   1
 d    1 1.00
                   0.8                   1

20 0
 s    6 1.00
             3047.5249  0.0018347001629433
             457.36951    0.01403730124668
             103.94869   0.068842606114048
             29.210155    0.23218442062076
              9.286663    0.46794134155879
              3.163927    0.36231203217765
 s    3 1.00
             7.8682724   -0.11933240861517
             1.8812885   -0.16085421161283
             0.5442493     1.1434564825515
 s    1 1.00
             0.1687144                   1
 p    3 1.00
             7.8682724   0.068999095584993
             1.8812885    0.31642397975315
             0.5442493    0.74430825237435
 p    1 1.00
             0.1687144                   1
 d    1 1.00
                   0.8                   1

21 0
 s    6 1.00
             3047.5249  0.0018347001629433
             457.36951    0.01403730124668
             103.94869   0.068842606114048
             29.210155    0.23218442062076
              9.286663    0.46794134155879
              3.163927    0.36231203217765
 s    3 1.00
             7.8682724   -0.11933240861517
             1.8812885   -0.16085421161283
             0.5442493     1.1434564825515
 s    1 1.00
             0.1687144                   1
 p    3 1.00
             7.8682724   0.068999095584993
             1.8812885    0.31642397975315
             0.5442493    0.74430825237435
 p    1 1.00
             0.1687144                   1
 d    1 1.00
                   0.8                   1

22 0
 s    3 1.00
             18.731137    0.03349459952309
             2.8253937    0.23472694665786
             0.6401217    0.81375731841339
 s    1 1.00
             0.1612778                   1

23 0
 s    3 1.00
             18.731137    0.03349459952309
             2.8253937    0.23472694665786
             0.6401217    0.81375731841339
 s    1 1.00
             0.1612778                   1

24 0
 s    3 1.00
             18.731137    0.03349459952309
             2.8253937    0.23472694665786
             0.6401217    0.81375731841339
 s    1 1.00
             0.1612778                   1

25 0
 s    3 1.00
             18.731137    0.03349459952309
             2.8253937    0.23472694665786
             0.6401217    0.81375731841339
 s    1 1.00
             0.1612778                   1

26 0
 s    3 1.00
             18.731137    0.03349459952309
             2.8253937    0.23472694665786
             0.6401217    0.81375731841339
 s    1 1.00
             0.1612778                   1

27 0
 s    3 1.00
             18.731137    0.03349459952309
             2.8253937    0.23472694665786
             0.6401217    0.81375731841339
 s    1 1.00
             0.1612778                   1

28 0
 s    3 1.00
             18.731137    0.03349459952309
             2.8253937    0.23472694665786
             0.6401217    0.81375731841339
 s    1 1.00
             0.1612778                   1

29 0
 s    3 1.00
             18.731137    0.03349459952309
             2.8253937    0.23472694665786
             0.6401217    0.81375731841339
 s    1 1.00
             0.1612778                   1

30 0
 s    3 1.00
             18.731137    0.03349459952309
             2.8253937    0.23472694665786
             0.6401217    0.81375731841339
 s    1 1.00
             0.1612778                   1

31 0
 s    3 1.00
             18.731137    0.03349459952309
             2.8253937    0.23472694665786
             0.6401217    0.81375731841339
 s    1 1.00
             0.1612778                   1

32 0
 s    3 1.00
             18.731137    0.03349459952309
             2.8253937    0.23472694665786
             0.6401217    0.81375731841339
 s    1 1.00
             0.1612778                   1

33 0
 s    6 1.00
             3047.5249  0.0018347001629433
             457.36951    0.01403730124668
             103.94869   0.068842606114048
             29.210155    0.23218442062076
              9.286663    0.46794134155879
              3.163927    0.36231203217765
 s    3 1.00
             7.8682724   -0.11933240861517
             1.8812885   -0.16085421161283
             0.5442493     1.1434564825515
 s    1 1.00
             0.1687144                   1
 p    3 1.00
             7.8682724   0.068999095584993
             1.8812885    0.31642397975315
             0.5442493    0.74430825237435
 p    1 1.00
             0.1687144                   1
 d    1 1.00
                   0.8                   1

34 0
 s    6 1.00
             3047.5249  0.0018347001629433
             457.36951    0.01403730124668
             103.94869   0.068842606114048
             29.210155    0.23218442062076
              9.286663    0.46794134155879
              3.163927    0.36231203217765
 s    3 1.00
             7.8682724   -0.11933240861517
             1.8812885   -0.16085421161283
             0.5442493     1.1434564825515
 s    1 1.00
             0.1687144                   1
 p    3 1.00
             7.8682724   0.068999095584993
             1.8812885    0.31642397975315
             0.5442493    0.74430825237435
 p    1 1.00
             0.1687144                   1
 d    1 1.00
                   0.8                   1

35 0
 s    3 1.00
             18.731137    0.03349459952309
             2.8253937    0.23472694665786
             0.6401217    0.81375731841339
 s    1 1.00
             0.1612778                   1

36 0
 s    6 1.00
             3047.5249  0.0018347001629433
             457.36951    0.01403730124668
             103.94869   0.068842606114048
             29.210155    0.23218442062076
              9.286663    0.46794134155879
              3.163927    0.36231203217765
 s    3 1.00
             7.8682724   -0.11933240861517
             1.8812885   -0.16085421161283
             0.5442493     1.1434564825515
 s    1 1.00
             0.1687144                   1
 p    3 1.00
             7.8682724   0.068999095584993
             1.8812885    0.31642397975315
             0.5442493    0.74430825237435
 p    1 1.00
             0.1687144                   1
 d    1 1.00
                   0.8                   1

37 0
 s    3 1.00
             18.731137    0.03349459952309
             2.8253937    0.23472694665786
             0.6401217    0.81375731841339
 s    1 1.00
             0.1612778                   1

38 0
 s    3 1.00
             18.731137    0.03349459952309
             2.8253937    0.23472694665786
             0.6401217    0.81375731841339
 s    1 1.00
             0.1612778                   1

39 0
 s    6 1.00
             3047.5249  0.0018347001629433
             457.36951    0.01403730124668
             103.94869   0.068842606114048
             29.210155    0.23218442062076
              9.286663    0.46794134155879
              3.163927    0.36231203217765
 s    3 1.00
             7.8682724   -0.11933240861517
             1.8812885   -0.16085421161283
             0.5442493     1.1434564825515
 s    1 1.00
             0.1687144                   1
 p    3 1.00
             7.8682724   0.068999095584993
             1.8812885    0.31642397975315
             0.5442493    0.74430825237435
 p    1 1.00
             0.1687144                   1
 d    1 1.00
                   0.8                   1

40 0
 s    6 1.00
             3047.5249  0.0018347001629433
             457.36951    0.01403730124668
             103.94869   0.068842606114048
             29.210155    0.23218442062076
              9.286663    0.46794134155879
              3.163927    0.36231203217765
 s    3 1.00
             7.8682724   -0.11933240861517
             1.8812885   -0.16085421161283
             0.5442493     1.1434564825515
 s    1 1.00
             0.1687144                   1
 p    3 1.00
             7.8682724   0.068999095584993
             1.8812885    0.31642397975315
             0.5442493    0.74430825237435
 p    1 1.00
             0.1687144                   1
 d    1 1.00
                   0.8                   1

41 0
 s    3 1.00
             18.731137    0.03349459952309
             2.8253937    0.23472694665786
             0.6401217    0.81375731841339
 s    1 1.00
             0.1612778                   1

42 0
 s    6 1.00
             5484.6717   0.001831099805527
             825.23495   0.013950098518422
             188.04696    0.06844509273075
               52.9645    0.23271427528445
              16.89757    0.47019295006289
             5.7996353    0.35852086192309
 s    3 1.00
             15.539616   -0.11077750382508
             3.5999336   -0.14802630511126
             1.0137618     1.1307670390447
 s    1 1.00
             0.2700058                   1
 p    3 1.00
             15.539616   0.070874299543311
             3.5999336    0.33975279781076
             1.0137618    0.72715859531445
 p    1 1.00
             0.2700058                   1
 d    1 1.00
                   0.8                   1

43 0
 s    3 1.00
             18.731137    0.03349459952309
             2.8253937    0.23472694665786
             0.6401217    0.81375731841339
 s    1 1.00
             0.1612778                   1

[5d]
[7f]
[9g]

[MO]
 Sym= A
 Ene=               0
 Spin= Alpha
 Occup=    1.00000
   1     -0.01179285400675
   2    0.0013486394296236
   3    -0.0079509245318905
   4    -0.00048108066263429
   5    0.00014843632194642
   6    -0.0013717850773027
   7    -0.00086308846136072
   8    -0.0013577058260442
   9    0.0060149320080018
  10    0.00097598878350646
  11    0.00094850370214752
  12    -0.00015787802484435
  13    0.00022793172776608
  14    -4.3142197912279e-05
  15    0.00057378017809612
  16    0.0011034824757945
  17     -0.99477694735771
  18    -0.039389549532733
  19     0.031354910080063
  20    -0.0010593451278723
  21    -0.00019227448809542
  22    0.00062818783560606
  23    0.0039832408568273
  24    0.0011753165786587
  25    0.00088927847956703
  26    -0.00080759903802705
  27    0.00032022092765233
  28    0.00035743037636508
  29    -0.00028301482488881
  30    -0.00018796388281341
  31    0.0013037575087895
  32    -0.0041908268887614
  33    -0.012413739918452
  34    0.00041445130159329
  35    -0.0011192249074196
  36    -0.00096126618048315
  37    -0.00038760747576693
  38    0.0013097112930727
  39    0.0025880351294655
  40    -0.0038269808128777
  41    -0.0045019474123203
  42    0.00068027288267523
  43    -0.0013257075831247
  44    -0.00052568291729985
  45    0.00038556662140429
  46    0.00042502151766878
  47    0.00060674027603926
  48    0.00063950938356186
  49    -7.2922072114369e-05
  50    0.00058443051521058
  51    -0.00029575854970147
  52    -0.00027538291689149
  53    -4.3716388124784e-05
  54    0.00044051169444859
  55    0.0052844338678312
  56    -0.0012413780565837
  57    -0.0076302145624709
  58    0.00017135586099079
  59    1.136830213302e-05
  60    -0.00016985849659619
  61    0.0002676036858028
  62    0.00020496985918884
  63    0.00050599609845094
  64    -0.00033472699143761
  65    1.8254427556799e-06
  66    -3.6632404933702e-08
  67    1.2814206575406e-07
  68    3.377497087365e-06
  69    -7.4300808735713e-06
  70    9.8158050538273e-06
  71    -3.0268843376894e-06
  72    -5.5284641208754e-06
  73    -6.3859524219055e-06
  74    -3.7976953519661e-05
  75    -8.2423294504769e-06
  76    4.1025501091404e-07
  77    -4.0570710546198e-07
  78    1.9833316573505e-07
  79    -9.4038078053736e-07
  80    -3.6041494958505e-07
  81    -4.1436450194862e-06
  82    -1.971283037081e-05
  83    -3.0273755144273e-06
  84    1.2552021100594e-06
  85    8.0481914450986e-05
  86    -2.6762502051058e-05
  87    -8.0985235053258e-06
  88    -1.6677681231548e-05
  89    -3.8966192853659e-05
  90    7.2959550996254e-05
  91    -1.6958425653213e-05
  92    -1.47340140237e-08
  93    9.7900347849592e-07
  94    -5.2381081541967e-06
  95    3.1425176308079e-07
  96    -7.906683855587e-10
  97    -2.588960433403e-05
  98    -3.6963996231815e-05
  99    2.2266031251095e-06
 100    2.2729363560426e-05
 101    1.5542028281396e-05
 102    -9.9721098905315e-06
 103    -0.00032115783689236
 104    6.8145716037019e-05
 105    3.0382216196547e-05
 106    2.8464172561245e-05
 107    0.00022977532166545
 108    -0.0001793746173432
 109    -0.00012122973103141
 110    6.738936812478e-06
 111    -1.729727180163e-06
 112    -1.8258711638432e-07
 113    -3.3696236331369e-06
 114    4.7205093379415e-06
 115    5.8997864248005e-06
 116    2.7438765674041e-05
 117    -0.00025636165929956
 118    -3.7004234816519e-08
 119    -1.2350896747817e-05
 120    2.2836921117026e-05
 121    4.0323082284526e-05
 122    8.8168273598696e-06
 123    -2.9016473382594e-06
 124    -1.2937815966997e-06
 125    4.1995595830576e-06
 126    2.1999120548856e-06
 127    -3.0231759885984e-06
 128    3.8036525199734e-07
 129    1.7204168859174e-05
 130    2.4946858600058e-05
 131    -0.00017313507892683
 132    -1.6404613452538e-05
 133    6.809117696056e-05
 134    7.7559018515854e-06
 135    0.00041659405463525
 136    -1.3674934605088e-05
 137    0.00041251533441255
 138    -4.6135650264343e-06
 139    -2.1915725164336e-05
 140    -4.4268598037549e-06
 141    -4.6940403112262e-06
 142    -4.5050076052368e-06
 143    -7.0123984001506e-06
 144    4.2306377676886e-05
 145    4.0390049733624e-05
 146    2.0841490179425e-05
 147    -3.6205995975875e-05
 148    -5.5485692902439e-05
 149    2.3150749021541e-05
 150    -3.0646382712315e-05
 151    5.1350874757772e-05
 152    6.1461111254411e-06
 153    2.915749349771e-06
 154    3.4844473836679e-06
 155    -2.8850639830608e-06
 156    4.9592927821186e-06
 157    -2.0257281098449e-06
 158    -1.4583250649462e-05
 159    5.3261581765297e-05
 160    -1.964389486424e-05
 161    1.0785384295852e-05
 162    -1.8180087282511e-05
 163    3.8312521226775e-05
 164    -2.0582892116896e-05
 165    -2.3009544659301e-05
 166    -5.672069244318e-06
 167    1.2491384684484e-06
 168    7.4255751832724e-07
 169    -6.9168841698119e-07
 170    -2.6874888363884e-06
 171    -2.6766163075209e-06
 172    1.8385565854743e-05
 173    -8.4874756412595e-06
 174    9.9749702694484e-06
 175    3.432366544737e-06
 176    -3.2447024450035e-05
 177    -3.417646396138e-06
 178    3.0241236263833e-06
 179    1.4742717039005e-05
 180    -1.5438416044758e-06
 181    -5.3289312607804e-06
 182    -1.3881420527355e-06
 183    2.1130393605585e-06
 184    -1.4003633649562e-06
 185    6.5731266283077e-06
 186    2.6613328875318e-05
 187    -0.00011652144591022
 188    1.552929990473e-06
 189    8.4847317009322e-06
 190    1.8531563889628e-05
 191    1.1113324505204e-05
 192    2.0954886661594e-05
 193    9.8707523797998e-05
 194    -2.8135465219179e-06
 195    -4.2533090675852e-06
 196    -1.7586140993658e-06
 197    5.317384507038e-07
 198    -6.312875796071e-07
 199    8.5999803491015e-06
 200    -3.0159654485222e-07
 201    1.8851966745402e-05
 202    4.9835683230388e-06
 203    2.6761271750293e-05
 204    3.6558465610949e-05
 205    -1.5793958608368e-05
 206    8.7376218801531e-06
 207    -1.6660334528404e-05
 208    8.7879454632491e-05
 209    -2.6513433072419e-06
 210    2.3030828031364e-05
 211    -7.3075610033493e-06
 212    -2.0103026849206e-05
 213    9.5632576209087e-07
 214    2.4811973807833e-05
 215    1.100324880194e-05
 216    2.195664900938e-05
 217    -6.9981207463681e-06
 218    -1.1956264726694e-05
 219    -5.6008164939453e-06
 220    -6.9378772926645e-06
 221    -1.2143478094443e-05
 222    7.1021086369479e-05
 223    -0.0010489735731709
 224    0.00022783570397195
 225    -4.9467909035112e-05
 226    -7.201071907633e-05
 227    -0.00061742002222417
 228    -0.00038223608550407
 229    0.00096153321204482
 230    -9.2064863077933e-06
 231    4.1712109135849e-05
 232    3.1917178431854e-05
 233    -2.23726052811e-05
 234    -2.4518775120368e-05
 235    0.00021530588118868
 236    -0.00028627774056919
 237    -1.874758660675e-05
 238    0.00013443160802279
 239     -0.00020538409714
 240    0.00047199701858895
 241    -0.00029955491436941
 242    -0.00049605319237088
 243    0.0018378130005361
 244    -2.129248596504e-05
 245    -7.4279434592152e-05
 246    -1.2423879521468e-05
 247    -2.3101533037354e-05
 248    3.8828192782604e-06
 249    -5.9791287778189e-05
 250    -0.00036504277638053
 251    -0.00016067799726537
 252    0.0003354104593337
 253    -0.0021162622698431
 254    -0.00067486170306225
 255    -8.4418341082255e-05
 256    -0.00070225121754972
 257    -0.0001346019844363
 258    -0.00044833199298831
 259    0.0016770409932601
 260    4.4609799343598e-05
 261    2.0207558340803e-05
 262    1.7569149911321e-05
 263    -0.00013806920017245
 264    -8.5491691940378e-05
 265    7.549110096267e-05
 266    -0.00013323485491451
 267    0.0005269151767068
 268    0.00089274830892936
 269    0.0001331674673162
 270    0.00063603195639894
 271    -0.0070670632822948
 272    0.00012633019594859
 273    -0.00026473707367195
 274    -0.0002182094120932
 275    0.0016907755417889
 276    0.0029057739905062
 277    -0.0029765780994279
 278    -8.5554895232151e-05
 279    0.00018940771609218
 280    0.00010651953503234
 281    3.632196125323e-05