[Molden Format]
made by pyscf v[2.0.1]
[Atoms] (AU)
C   1   6     0.69100024066471     0.64692934207205    -3.48223131169301
H   2   1     2.68052439830868     1.13355088658700    -3.25784032593313
C   3   6    -0.36286361513219     0.85440132524594    -5.97030179418974
H   4   1    -2.35448549047279     0.36322488579172    -6.17995817793143
C   5   6     0.93697958957450     1.61209284601821    -8.05828437677121
H   6   1     1.03927160684768     3.62047501567417    -8.50199621914587
C   7   6     2.20035018302409    -0.10258413888539    -9.73758817852609
H   8   1     2.08224949102462    -2.10886499715255    -9.26789512642378
H   9   1     1.55630230933075    -1.92953025305990    12.99630010416247
C   10   6     0.75233899775814    -2.21270439606481    11.10705728102219
H   11   1    -0.43433408177274    -3.90944857546550    11.22216085340412
C   12   6     2.86362581178706    -2.63237380607947     9.17926416456045
H   13   1     4.39038949912609    -1.24955421540245     9.49899813497433
H   14   1     3.74629220191363    -4.48798724300892     9.47414880959024
C   15   6     2.02478325613682    -2.42177285709634     6.44560829588644
C   16   6     3.88048732735477    -3.58795445234514     4.61402886975252
C   17   6    -0.18412382258602    -1.30464291234259     5.76021113872346
C   18   6    -2.10044360464350    -0.26837831858460     7.71610340967100
C   19   6    -3.08956938670431     2.35282328359417     6.88693925039594
C   20   6    -4.37372924086464    -2.09766595989678     7.93610724222001
C   21   6    -0.83850430601230     0.06372213486173    10.33002307638377
H   22   1     0.38411922151109     1.74281358582432    10.27380136542181
H   23   1    -2.30980003007874     0.45460143924521    11.73986301809809
H   24   1     4.58527064644668    -5.38706904487420     5.36778158031719
H   25   1     5.54944938085014    -2.37631462192748     4.35398898413318
H   26   1     3.06633019150423    -3.94118377050688     2.75255466040884
H   27   1    -4.17727778763735     2.26573369139522     5.12914900961283
H   28   1    -1.52662344944051     3.68001877445626     6.59540397144508
H   29   1    -4.32916174397830     3.13643051467482     8.35225460090378
H   30   1    -5.32329548508442    -2.36691813602939     6.11583672749896
H   31   1    -5.77989366602257    -1.33896741843465     9.25748940450990
H   32   1    -3.79310905208926    -3.96389819310853     8.61386170102686
C   33   6    -1.01100794811226    -1.06331657314144     3.11929490449947
C   34   6     0.37686231036534    -0.33275864505552     1.09165013605873
H   35   1    -3.01671213906703    -1.40297922279997     2.77827895090944
C   36   6    -0.64382707979370    -0.11591880174385    -1.42063131251064
H   37   1     2.35569259782137     0.17174499283897     1.33641070251401
H   38   1    -2.63317482980319    -0.60229203511219    -1.66119700387645
C   39   6     3.51308281939799     0.56451683374771   -11.83721740116087
C   40   6     4.73454985947753    -1.32827425009098   -13.42856361339847
H   41   1     3.70368628307445     2.52946227119814   -12.41204614817202
O   42   8     5.94050384923934    -0.86285538356078   -15.33903067176323
H   43   1     4.49094488416901    -3.31470750932465   -12.76908014850535
[GTO]
1 0
 s    6 1.00
             3047.5249  0.0018347001629433
             457.36951    0.01403730124668
             103.94869   0.068842606114048
             29.210155    0.23218442062076
              9.286663    0.46794134155879
              3.163927    0.36231203217765
 s    3 1.00
             7.8682724   -0.11933240861517
             1.8812885   -0.16085421161283
             0.5442493     1.1434564825515
 s    1 1.00
             0.1687144                   1
 p    3 1.00
             7.8682724   0.068999095584993
             1.8812885    0.31642397975315
             0.5442493    0.74430825237435
 p    1 1.00
             0.1687144                   1
 d    1 1.00
                   0.8                   1

2 0
 s    3 1.00
             18.731137    0.03349459952309
             2.8253937    0.23472694665786
             0.6401217    0.81375731841339
 s    1 1.00
             0.1612778                   1

3 0
 s    6 1.00
             3047.5249  0.0018347001629433
             457.36951    0.01403730124668
             103.94869   0.068842606114048
             29.210155    0.23218442062076
              9.286663    0.46794134155879
              3.163927    0.36231203217765
 s    3 1.00
             7.8682724   -0.11933240861517
             1.8812885   -0.16085421161283
             0.5442493     1.1434564825515
 s    1 1.00
             0.1687144                   1
 p    3 1.00
             7.8682724   0.068999095584993
             1.8812885    0.31642397975315
             0.5442493    0.74430825237435
 p    1 1.00
             0.1687144                   1
 d    1 1.00
                   0.8                   1

4 0
 s    3 1.00
             18.731137    0.03349459952309
             2.8253937    0.23472694665786
             0.6401217    0.81375731841339
 s    1 1.00
             0.1612778                   1

5 0
 s    6 1.00
             3047.5249  0.0018347001629433
             457.36951    0.01403730124668
             103.94869   0.068842606114048
             29.210155    0.23218442062076
              9.286663    0.46794134155879
              3.163927    0.36231203217765
 s    3 1.00
             7.8682724   -0.11933240861517
             1.8812885   -0.16085421161283
             0.5442493     1.1434564825515
 s    1 1.00
             0.1687144                   1
 p    3 1.00
             7.8682724   0.068999095584993
             1.8812885    0.31642397975315
             0.5442493    0.74430825237435
 p    1 1.00
             0.1687144                   1
 d    1 1.00
                   0.8                   1

6 0
 s    3 1.00
             18.731137    0.03349459952309
             2.8253937    0.23472694665786
             0.6401217    0.81375731841339
 s    1 1.00
             0.1612778                   1

7 0
 s    6 1.00
             3047.5249  0.0018347001629433
             457.36951    0.01403730124668
             103.94869   0.068842606114048
             29.210155    0.23218442062076
              9.286663    0.46794134155879
              3.163927    0.36231203217765
 s    3 1.00
             7.8682724   -0.11933240861517
             1.8812885   -0.16085421161283
             0.5442493     1.1434564825515
 s    1 1.00
             0.1687144                   1
 p    3 1.00
             7.8682724   0.068999095584993
             1.8812885    0.31642397975315
             0.5442493    0.74430825237435
 p    1 1.00
             0.1687144                   1
 d    1 1.00
                   0.8                   1

8 0
 s    3 1.00
             18.731137    0.03349459952309
             2.8253937    0.23472694665786
             0.6401217    0.81375731841339
 s    1 1.00
             0.1612778                   1

9 0
 s    3 1.00
             18.731137    0.03349459952309
             2.8253937    0.23472694665786
             0.6401217    0.81375731841339
 s    1 1.00
             0.1612778                   1

10 0
 s    6 1.00
             3047.5249  0.0018347001629433
             457.36951    0.01403730124668
             103.94869   0.068842606114048
             29.210155    0.23218442062076
              9.286663    0.46794134155879
              3.163927    0.36231203217765
 s    3 1.00
             7.8682724   -0.11933240861517
             1.8812885   -0.16085421161283
             0.5442493     1.1434564825515
 s    1 1.00
             0.1687144                   1
 p    3 1.00
             7.8682724   0.068999095584993
             1.8812885    0.31642397975315
             0.5442493    0.74430825237435
 p    1 1.00
             0.1687144                   1
 d    1 1.00
                   0.8                   1

11 0
 s    3 1.00
             18.731137    0.03349459952309
             2.8253937    0.23472694665786
             0.6401217    0.81375731841339
 s    1 1.00
             0.1612778                   1

12 0
 s    6 1.00
             3047.5249  0.0018347001629433
             457.36951    0.01403730124668
             103.94869   0.068842606114048
             29.210155    0.23218442062076
              9.286663    0.46794134155879
              3.163927    0.36231203217765
 s    3 1.00
             7.8682724   -0.11933240861517
             1.8812885   -0.16085421161283
             0.5442493     1.1434564825515
 s    1 1.00
             0.1687144                   1
 p    3 1.00
             7.8682724   0.068999095584993
             1.8812885    0.31642397975315
             0.5442493    0.74430825237435
 p    1 1.00
             0.1687144                   1
 d    1 1.00
                   0.8                   1

13 0
 s    3 1.00
             18.731137    0.03349459952309
             2.8253937    0.23472694665786
             0.6401217    0.81375731841339
 s    1 1.00
             0.1612778                   1

14 0
 s    3 1.00
             18.731137    0.03349459952309
             2.8253937    0.23472694665786
             0.6401217    0.81375731841339
 s    1 1.00
             0.1612778                   1

15 0
 s    6 1.00
             3047.5249  0.0018347001629433
             457.36951    0.01403730124668
             103.94869   0.068842606114048
             29.210155    0.23218442062076
              9.286663    0.46794134155879
              3.163927    0.36231203217765
 s    3 1.00
             7.8682724   -0.11933240861517
             1.8812885   -0.16085421161283
             0.5442493     1.1434564825515
 s    1 1.00
             0.1687144                   1
 p    3 1.00
             7.8682724   0.068999095584993
             1.8812885    0.31642397975315
             0.5442493    0.74430825237435
 p    1 1.00
             0.1687144                   1
 d    1 1.00
                   0.8                   1

16 0
 s    6 1.00
             3047.5249  0.0018347001629433
             457.36951    0.01403730124668
             103.94869   0.068842606114048
             29.210155    0.23218442062076
              9.286663    0.46794134155879
              3.163927    0.36231203217765
 s    3 1.00
             7.8682724   -0.11933240861517
             1.8812885   -0.16085421161283
             0.5442493     1.1434564825515
 s    1 1.00
             0.1687144                   1
 p    3 1.00
             7.8682724   0.068999095584993
             1.8812885    0.31642397975315
             0.5442493    0.74430825237435
 p    1 1.00
             0.1687144                   1
 d    1 1.00
                   0.8                   1

17 0
 s    6 1.00
             3047.5249  0.0018347001629433
             457.36951    0.01403730124668
             103.94869   0.068842606114048
             29.210155    0.23218442062076
              9.286663    0.46794134155879
              3.163927    0.36231203217765
 s    3 1.00
             7.8682724   -0.11933240861517
             1.8812885   -0.16085421161283
             0.5442493     1.1434564825515
 s    1 1.00
             0.1687144                   1
 p    3 1.00
             7.8682724   0.068999095584993
             1.8812885    0.31642397975315
             0.5442493    0.74430825237435
 p    1 1.00
             0.1687144                   1
 d    1 1.00
                   0.8                   1

18 0
 s    6 1.00
             3047.5249  0.0018347001629433
             457.36951    0.01403730124668
             103.94869   0.068842606114048
             29.210155    0.23218442062076
              9.286663    0.46794134155879
              3.163927    0.36231203217765
 s    3 1.00
             7.8682724   -0.11933240861517
             1.8812885   -0.16085421161283
             0.5442493     1.1434564825515
 s    1 1.00
             0.1687144                   1
 p    3 1.00
             7.8682724   0.068999095584993
             1.8812885    0.31642397975315
             0.5442493    0.74430825237435
 p    1 1.00
             0.1687144                   1
 d    1 1.00
                   0.8                   1

19 0
 s    6 1.00
             3047.5249  0.0018347001629433
             457.36951    0.01403730124668
             103.94869   0.068842606114048
             29.210155    0.23218442062076
              9.286663    0.46794134155879
              3.163927    0.36231203217765
 s    3 1.00
             7.8682724   -0.11933240861517
             1.8812885   -0.16085421161283
             0.5442493     1.1434564825515
 s    1 1.00
             0.1687144                   1
 p    3 1.00
             7.8682724   0.068999095584993
             1.8812885    0.31642397975315
             0.5442493    0.74430825237435
 p    1 1.00
             0.1687144                   1
 d    1 1.00
                   0.8                   1

20 0
 s    6 1.00
             3047.5249  0.0018347001629433
             457.36951    0.01403730124668
             103.94869   0.068842606114048
             29.210155    0.23218442062076
              9.286663    0.46794134155879
              3.163927    0.36231203217765
 s    3 1.00
             7.8682724   -0.11933240861517
             1.8812885   -0.16085421161283
             0.5442493     1.1434564825515
 s    1 1.00
             0.1687144                   1
 p    3 1.00
             7.8682724   0.068999095584993
             1.8812885    0.31642397975315
             0.5442493    0.74430825237435
 p    1 1.00
             0.1687144                   1
 d    1 1.00
                   0.8                   1

21 0
 s    6 1.00
             3047.5249  0.0018347001629433
             457.36951    0.01403730124668
             103.94869   0.068842606114048
             29.210155    0.23218442062076
              9.286663    0.46794134155879
              3.163927    0.36231203217765
 s    3 1.00
             7.8682724   -0.11933240861517
             1.8812885   -0.16085421161283
             0.5442493     1.1434564825515
 s    1 1.00
             0.1687144                   1
 p    3 1.00
             7.8682724   0.068999095584993
             1.8812885    0.31642397975315
             0.5442493    0.74430825237435
 p    1 1.00
             0.1687144                   1
 d    1 1.00
                   0.8                   1

22 0
 s    3 1.00
             18.731137    0.03349459952309
             2.8253937    0.23472694665786
             0.6401217    0.81375731841339
 s    1 1.00
             0.1612778                   1

23 0
 s    3 1.00
             18.731137    0.03349459952309
             2.8253937    0.23472694665786
             0.6401217    0.81375731841339
 s    1 1.00
             0.1612778                   1

24 0
 s    3 1.00
             18.731137    0.03349459952309
             2.8253937    0.23472694665786
             0.6401217    0.81375731841339
 s    1 1.00
             0.1612778                   1

25 0
 s    3 1.00
             18.731137    0.03349459952309
             2.8253937    0.23472694665786
             0.6401217    0.81375731841339
 s    1 1.00
             0.1612778                   1

26 0
 s    3 1.00
             18.731137    0.03349459952309
             2.8253937    0.23472694665786
             0.6401217    0.81375731841339
 s    1 1.00
             0.1612778                   1

27 0
 s    3 1.00
             18.731137    0.03349459952309
             2.8253937    0.23472694665786
             0.6401217    0.81375731841339
 s    1 1.00
             0.1612778                   1

28 0
 s    3 1.00
             18.731137    0.03349459952309
             2.8253937    0.23472694665786
             0.6401217    0.81375731841339
 s    1 1.00
             0.1612778                   1

29 0
 s    3 1.00
             18.731137    0.03349459952309
             2.8253937    0.23472694665786
             0.6401217    0.81375731841339
 s    1 1.00
             0.1612778                   1

30 0
 s    3 1.00
             18.731137    0.03349459952309
             2.8253937    0.23472694665786
             0.6401217    0.81375731841339
 s    1 1.00
             0.1612778                   1

31 0
 s    3 1.00
             18.731137    0.03349459952309
             2.8253937    0.23472694665786
             0.6401217    0.81375731841339
 s    1 1.00
             0.1612778                   1

32 0
 s    3 1.00
             18.731137    0.03349459952309
             2.8253937    0.23472694665786
             0.6401217    0.81375731841339
 s    1 1.00
             0.1612778                   1

33 0
 s    6 1.00
             3047.5249  0.0018347001629433
             457.36951    0.01403730124668
             103.94869   0.068842606114048
             29.210155    0.23218442062076
              9.286663    0.46794134155879
              3.163927    0.36231203217765
 s    3 1.00
             7.8682724   -0.11933240861517
             1.8812885   -0.16085421161283
             0.5442493     1.1434564825515
 s    1 1.00
             0.1687144                   1
 p    3 1.00
             7.8682724   0.068999095584993
             1.8812885    0.31642397975315
             0.5442493    0.74430825237435
 p    1 1.00
             0.1687144                   1
 d    1 1.00
                   0.8                   1

34 0
 s    6 1.00
             3047.5249  0.0018347001629433
             457.36951    0.01403730124668
             103.94869   0.068842606114048
             29.210155    0.23218442062076
              9.286663    0.46794134155879
              3.163927    0.36231203217765
 s    3 1.00
             7.8682724   -0.11933240861517
             1.8812885   -0.16085421161283
             0.5442493     1.1434564825515
 s    1 1.00
             0.1687144                   1
 p    3 1.00
             7.8682724   0.068999095584993
             1.8812885    0.31642397975315
             0.5442493    0.74430825237435
 p    1 1.00
             0.1687144                   1
 d    1 1.00
                   0.8                   1

35 0
 s    3 1.00
             18.731137    0.03349459952309
             2.8253937    0.23472694665786
             0.6401217    0.81375731841339
 s    1 1.00
             0.1612778                   1

36 0
 s    6 1.00
             3047.5249  0.0018347001629433
             457.36951    0.01403730124668
             103.94869   0.068842606114048
             29.210155    0.23218442062076
              9.286663    0.46794134155879
              3.163927    0.36231203217765
 s    3 1.00
             7.8682724   -0.11933240861517
             1.8812885   -0.16085421161283
             0.5442493     1.1434564825515
 s    1 1.00
             0.1687144                   1
 p    3 1.00
             7.8682724   0.068999095584993
             1.8812885    0.31642397975315
             0.5442493    0.74430825237435
 p    1 1.00
             0.1687144                   1
 d    1 1.00
                   0.8                   1

37 0
 s    3 1.00
             18.731137    0.03349459952309
             2.8253937    0.23472694665786
             0.6401217    0.81375731841339
 s    1 1.00
             0.1612778                   1

38 0
 s    3 1.00
             18.731137    0.03349459952309
             2.8253937    0.23472694665786
             0.6401217    0.81375731841339
 s    1 1.00
             0.1612778                   1

39 0
 s    6 1.00
             3047.5249  0.0018347001629433
             457.36951    0.01403730124668
             103.94869   0.068842606114048
             29.210155    0.23218442062076
              9.286663    0.46794134155879
              3.163927    0.36231203217765
 s    3 1.00
             7.8682724   -0.11933240861517
             1.8812885   -0.16085421161283
             0.5442493     1.1434564825515
 s    1 1.00
             0.1687144                   1
 p    3 1.00
             7.8682724   0.068999095584993
             1.8812885    0.31642397975315
             0.5442493    0.74430825237435
 p    1 1.00
             0.1687144                   1
 d    1 1.00
                   0.8                   1

40 0
 s    6 1.00
             3047.5249  0.0018347001629433
             457.36951    0.01403730124668
             103.94869   0.068842606114048
             29.210155    0.23218442062076
              9.286663    0.46794134155879
              3.163927    0.36231203217765
 s    3 1.00
             7.8682724   -0.11933240861517
             1.8812885   -0.16085421161283
             0.5442493     1.1434564825515
 s    1 1.00
             0.1687144                   1
 p    3 1.00
             7.8682724   0.068999095584993
             1.8812885    0.31642397975315
             0.5442493    0.74430825237435
 p    1 1.00
             0.1687144                   1
 d    1 1.00
                   0.8                   1

41 0
 s    3 1.00
             18.731137    0.03349459952309
             2.8253937    0.23472694665786
             0.6401217    0.81375731841339
 s    1 1.00
             0.1612778                   1

42 0
 s    6 1.00
             5484.6717   0.001831099805527
             825.23495   0.013950098518422
             188.04696    0.06844509273075
               52.9645    0.23271427528445
              16.89757    0.47019295006289
             5.7996353    0.35852086192309
 s    3 1.00
             15.539616   -0.11077750382508
             3.5999336   -0.14802630511126
             1.0137618     1.1307670390447
 s    1 1.00
             0.2700058                   1
 p    3 1.00
             15.539616   0.070874299543311
             3.5999336    0.33975279781076
             1.0137618    0.72715859531445
 p    1 1.00
             0.2700058                   1
 d    1 1.00
                   0.8                   1

43 0
 s    3 1.00
             18.731137    0.03349459952309
             2.8253937    0.23472694665786
             0.6401217    0.81375731841339
 s    1 1.00
             0.1612778                   1

[5d]
[7f]
[9g]

[MO]
 Sym= A
 Ene=               0
 Spin= Alpha
 Occup=    1.00000
   1    -0.011955335304303
   2     0.001343725744508
   3    -0.0079358474089057
   4    -0.00048003721432262
   5    0.00014464005671357
   6    -0.0013744541828372
   7    -0.00086618879891448
   8    -0.001341364614046
   9    0.0060067450911409
  10    0.00097744428436047
  11    0.00094834869369579
  12    -0.00015875457380268
  13    0.0002280854515086
  14    -4.3306430215473e-05
  15    0.0005746909855581
  16    0.0011009180987902
  17     -0.99477064989983
  18    -0.039385370488072
  19     0.031340338749726
  20    -0.0010552806615675
  21    -0.00019016371435667
  22    0.00062540606710278
  23     0.003972565274336
  24    0.0011677625444875
  25    0.00088476959811174
  26    -0.00080868432679531
  27    0.00031881002652723
  28    0.00035849774335231
  29    -0.00028366640936604
  30    -0.00018471309733543
  31     0.001300974310277
  32    -0.0041957810902148
  33    -0.012734696804151
  34    0.00040265945852558
  35    -0.001108660568213
  36    -0.00096119853777281
  37    -0.0003869425853966
  38    0.0013102222455224
  39    0.0025278103204414
  40    -0.0038328496667436
  41    -0.004546840529726
  42    0.00068383576436135
  43    -0.0013234151741145
  44    -0.00052259045365421
  45    0.00038342789687713
  46    0.00042741716382597
  47    0.00060677703668352
  48    0.0006410454097962
  49    -8.2280890316202e-05
  50    0.00058548969252454
  51    -0.00031699886243122
  52    -0.00026863022654562
  53    -4.2476639045519e-05
  54    0.00044466532736678
  55    0.0052031607101973
  56    -0.0012570592589153
  57    -0.0076694342986766
  58    0.0001683873244532
  59    1.0508960379911e-05
  60    -0.00017576229363295
  61    0.00027146887446269
  62    0.00019523459354783
  63    0.00050562321070158
  64    -0.00033542511882051
  65    1.8838353440242e-06
  66    9.2309318465022e-08
  67    1.4047470537122e-07
  68    3.3581583136755e-06
  69    -7.5798501447657e-06
  70    9.6788201860251e-06
  71    -2.9840346252062e-06
  72    -5.4187945970299e-06
  73    -6.4227423244477e-06
  74    -3.7781740170265e-05
  75    -8.2617131611384e-06
  76    4.1861273481212e-07
  77    -3.8954364986707e-07
  78    1.8616397476138e-07
  79    -9.4283213702761e-07
  80    -3.4768228391685e-07
  81    -4.0985430096898e-06
  82    -1.956080519098e-05
  83    -3.0392212202189e-06
  84    1.2469821345737e-06
  85    8.0477248107461e-05
  86    -2.6618231267708e-05
  87    -7.9292515662809e-06
  88    -1.6824616872423e-05
  89    -3.904544671698e-05
  90    7.2943667878855e-05
  91    -1.694050467501e-05
  92    -1.9182300420381e-08
  93    1.0123215016385e-06
  94    -5.2066259680687e-06
  95    3.3184002351271e-07
  96    2.5709701446832e-08
  97    -2.5644248091212e-05
  98    -3.6583638855656e-05
  99    2.073791180325e-06
 100    2.2447001628991e-05
 101    1.5555018899243e-05
 102    -9.8080589375508e-06
 103    -0.00032310902827117
 104    6.7674717373136e-05
 105    2.9496983038594e-05
 106    2.8588226919541e-05
 107    0.00023019049138891
 108    -0.00018013346833876
 109    -0.00012064113079205
 110    6.7251165606421e-06
 111    -1.7214656912449e-06
 112    -1.7887402540127e-07
 113    -3.3983271803499e-06
 114    4.7667393913705e-06
 115    5.8917779681523e-06
 116    2.7452622900812e-05
 117    -0.00025645335751726
 118    5.0327074895005e-08
 119    -1.2282688642043e-05
 120    2.2654369584211e-05
 121    4.0125646305921e-05
 122    9.2490705720516e-06
 123    -2.9343227451702e-06
 124    -1.3008433030259e-06
 125    4.1562518127221e-06
 126    2.2017237633027e-06
 127    -2.9583049773266e-06
 128    3.9858740774348e-07
 129    1.7168237338517e-05
 130    2.5100012621041e-05
 131    -0.00017323164559052
 132    -1.6798974633659e-05
 133    6.7493054135805e-05
 134    7.3874789255202e-06
 135    0.00041791262371329
 136    -1.5697444943971e-05
 137    0.00041274230646318
 138    -4.6933787740549e-06
 139    -2.1845749181582e-05
 140    -4.4679475259675e-06
 141    -4.7067671195851e-06
 142    -4.5279656338231e-06
 143    -7.0052365249638e-06
 144    4.1950124355707e-05
 145    4.1851253835982e-05
 146    2.0787306931061e-05
 147    -3.6037423395296e-05
 148    -5.5164909156635e-05
 149    2.3409490503358e-05
 150    -2.9893185748131e-05
 151    5.0290257041876e-05
 152    6.2063417028443e-06
 153    2.8925805899893e-06
 154    3.4820747439289e-06
 155    -2.9163091783202e-06
 156    4.9226223280941e-06
 157    -2.0236569757145e-06
 158    -1.4454329304614e-05
 159    5.2368287194325e-05
 160    -1.9587756515484e-05
 161    1.0697199289173e-05
 162    -1.8190154875196e-05
 163    3.8171458136468e-05
 164    -2.0246566941622e-05
 165    -2.2803164249379e-05
 166    -5.6312943842313e-06
 167    1.2150126096399e-06
 168    7.3493581624358e-07
 169    -6.6854145309131e-07
 170    -2.6751432452236e-06
 171    -2.6466944687279e-06
 172    1.823690196004e-05
 173    -8.4443303068442e-06
 174    9.7664983043252e-06
 175    3.3543318738935e-06
 176    -3.242483706648e-05
 177    -3.2519322157922e-06
 178    2.9869217062676e-06
 179    1.4812312548832e-05
 180    -1.5482907351664e-06
 181    -5.3066256765615e-06
 182    -1.3605347622177e-06
 183    2.1290734406967e-06
 184    -1.3924439622778e-06
 185    6.547683920353e-06
 186    2.6709451981229e-05
 187    -0.00011634652321466
 188    1.5402870401026e-06
 189    8.4544110128235e-06
 190    1.8280855860823e-05
 191    1.0722699308686e-05
 192    2.0840371395832e-05
 193    9.8678424994623e-05
 194    -2.8403080125408e-06
 195    -4.2251995277753e-06
 196    -1.7423788459551e-06
 197    5.3745526669181e-07
 198    -6.2343121953915e-07
 199    8.6368780505825e-06
 200    -2.0184414762647e-07
 201    1.8704262648873e-05
 202    4.6708148548184e-06
 203    2.659916130034e-05
 204    3.6494739879645e-05
 205    -1.5571990243862e-05
 206    8.9860100566905e-06
 207    -1.6756443121186e-05
 208    8.8446801982696e-05
 209    -2.5816332120915e-06
 210    2.3155711978868e-05
 211    -7.2705993527431e-06
 212    -2.0122316427392e-05
 213    9.1190803796002e-07
 214    2.4683737560809e-05
 215    1.1011273558299e-05
 216    2.2213807302471e-05
 217    -6.9777082066743e-06
 218    -1.1824097736984e-05
 219    -5.619333274638e-06
 220    -6.9798534572658e-06
 221    -1.2059990356789e-05
 222    7.0508103491649e-05
 223    -0.0010445217809926
 224    0.00022779075763169
 225    -4.9094438108371e-05
 226    -7.1417136672046e-05
 227    -0.00061657511430565
 228    -0.00038069617020398
 229    0.00096075207129721
 230    -9.0892175643336e-06
 231    4.1601377140494e-05
 232    3.1867284771365e-05
 233    -2.233243879862e-05
 234    -2.4508989322312e-05
 235    0.00021517545440275
 236    -0.00028589375086658
 237    -2.3587665594525e-05
 238    0.00013431489451355
 239    -0.00020447825468372
 240    0.00047182671481135
 241    -0.00029840967007769
 242    -0.00049282689876176
 243    0.0018362730050434
 244    -2.1506533776358e-05
 245    -7.4103283421004e-05
 246    -1.2653761336183e-05
 247    -2.3006359897915e-05
 248    3.5642992522144e-06
 249    -6.0059582728799e-05
 250    -0.00036535640864105
 251    -0.00016056799795871
 252    0.00033621596143742
 253    -0.0021129954886226
 254    -0.00067552535659138
 255    -8.3267934280483e-05
 256    -0.00070190792616361
 257    -0.00013013714719623
 258    -0.00045549963626352
 259    0.0016773185008656
 260    4.4840043518582e-05
 261    1.9942619391304e-05
 262    1.812477113881e-05
 263    -0.00013753889216382
 264    -8.6164569050588e-05
 265    7.5498527099864e-05
 266    -0.00013304974550508
 267    0.00052748791675553
 268    0.00089419793630271
 269    0.00013284602782991
 270    0.00063440208649818
 271    -0.0070484435041245
 272    0.00011995770630192
 273    -0.00026434317775591
 274    -0.00022110986527376
 275    0.0017211837837262
 276     0.002903698905088
 277    -0.0029465066205799
 278    -8.4266208725344e-05
 279    0.00018974396013154
 280    0.00010460245942765