[Molden Format]
made by pyscf v[2.0.1]
[Atoms] (AU)
C   1   6     0.69100024066471     0.64692934207205    -3.48223131169301
H   2   1     2.68052439830868     1.13355088658700    -3.25784032593313
C   3   6    -0.36286361513219     0.85440132524594    -5.97030179418974
H   4   1    -2.35448549047279     0.36322488579172    -6.17995817793143
C   5   6     0.93697958957450     1.61209284601821    -8.05828437677121
H   6   1    -0.06960811584452     2.58702669474359    -9.56733307637730
C   7   6     3.59571274713804     1.19684402678434    -8.39738626626495
H   8   1     4.57899779978681     0.21871567749258    -6.86894337963000
H   9   1     1.55630230933075    -1.92953025305990    12.99630010416247
C   10   6     0.75233899775814    -2.21270439606481    11.10705728102219
H   11   1    -0.43433408177274    -3.90944857546550    11.22216085340412
C   12   6     2.86362581178706    -2.63237380607947     9.17926416456045
H   13   1     4.39038949912609    -1.24955421540245     9.49899813497433
H   14   1     3.74629220191363    -4.48798724300892     9.47414880959024
C   15   6     2.02478325613682    -2.42177285709634     6.44560829588644
C   16   6     3.88048732735477    -3.58795445234514     4.61402886975252
C   17   6    -0.18412382258602    -1.30464291234259     5.76021113872346
C   18   6    -2.10044360464350    -0.26837831858460     7.71610340967100
C   19   6    -3.08956938670431     2.35282328359417     6.88693925039594
C   20   6    -4.37372924086464    -2.09766595989678     7.93610724222001
C   21   6    -0.83850430601230     0.06372213486173    10.33002307638377
H   22   1     0.38411922151109     1.74281358582432    10.27380136542181
H   23   1    -2.30980003007874     0.45460143924521    11.73986301809809
H   24   1     4.58527064644668    -5.38706904487420     5.36778158031719
H   25   1     5.54944938085014    -2.37631462192748     4.35398898413318
H   26   1     3.06633019150423    -3.94118377050688     2.75255466040884
H   27   1    -4.17727778763735     2.26573369139522     5.12914900961283
H   28   1    -1.52662344944051     3.68001877445626     6.59540397144508
H   29   1    -4.32916174397830     3.13643051467482     8.35225460090378
H   30   1    -5.32329548508442    -2.36691813602939     6.11583672749896
H   31   1    -5.77989366602257    -1.33896741843465     9.25748940450990
H   32   1    -3.79310905208926    -3.96389819310853     8.61386170102686
C   33   6    -1.01100794811226    -1.06331657314144     3.11929490449947
C   34   6     0.37686231036534    -0.33275864505552     1.09165013605873
H   35   1    -3.01671213906703    -1.40297922279997     2.77827895090944
C   36   6    -0.64382707979370    -0.11591880174385    -1.42063131251064
H   37   1     2.35569259782137     0.17174499283897     1.33641070251401
H   38   1    -2.63317482980319    -0.60229203511219    -1.66119700387645
C   39   6     4.96665860975130     1.91437223239220   -10.44247655051683
C   40   6     7.67160233174465     1.40206885234173   -10.60935163126053
H   41   1     4.10375913642339     2.89528826049847   -12.03023490303406
O   42   8     9.01623610133373     1.99111078946158   -12.38862500825095
H   43   1     8.47573431044455     0.39495244048141    -8.94223819440966
[GTO]
1 0
 s    6 1.00
             3047.5249  0.0018347001629433
             457.36951    0.01403730124668
             103.94869   0.068842606114048
             29.210155    0.23218442062076
              9.286663    0.46794134155879
              3.163927    0.36231203217765
 s    3 1.00
             7.8682724   -0.11933240861517
             1.8812885   -0.16085421161283
             0.5442493     1.1434564825515
 s    1 1.00
             0.1687144                   1
 p    3 1.00
             7.8682724   0.068999095584993
             1.8812885    0.31642397975315
             0.5442493    0.74430825237435
 p    1 1.00
             0.1687144                   1
 d    1 1.00
                   0.8                   1

2 0
 s    3 1.00
             18.731137    0.03349459952309
             2.8253937    0.23472694665786
             0.6401217    0.81375731841339
 s    1 1.00
             0.1612778                   1

3 0
 s    6 1.00
             3047.5249  0.0018347001629433
             457.36951    0.01403730124668
             103.94869   0.068842606114048
             29.210155    0.23218442062076
              9.286663    0.46794134155879
              3.163927    0.36231203217765
 s    3 1.00
             7.8682724   -0.11933240861517
             1.8812885   -0.16085421161283
             0.5442493     1.1434564825515
 s    1 1.00
             0.1687144                   1
 p    3 1.00
             7.8682724   0.068999095584993
             1.8812885    0.31642397975315
             0.5442493    0.74430825237435
 p    1 1.00
             0.1687144                   1
 d    1 1.00
                   0.8                   1

4 0
 s    3 1.00
             18.731137    0.03349459952309
             2.8253937    0.23472694665786
             0.6401217    0.81375731841339
 s    1 1.00
             0.1612778                   1

5 0
 s    6 1.00
             3047.5249  0.0018347001629433
             457.36951    0.01403730124668
             103.94869   0.068842606114048
             29.210155    0.23218442062076
              9.286663    0.46794134155879
              3.163927    0.36231203217765
 s    3 1.00
             7.8682724   -0.11933240861517
             1.8812885   -0.16085421161283
             0.5442493     1.1434564825515
 s    1 1.00
             0.1687144                   1
 p    3 1.00
             7.8682724   0.068999095584993
             1.8812885    0.31642397975315
             0.5442493    0.74430825237435
 p    1 1.00
             0.1687144                   1
 d    1 1.00
                   0.8                   1

6 0
 s    3 1.00
             18.731137    0.03349459952309
             2.8253937    0.23472694665786
             0.6401217    0.81375731841339
 s    1 1.00
             0.1612778                   1

7 0
 s    6 1.00
             3047.5249  0.0018347001629433
             457.36951    0.01403730124668
             103.94869   0.068842606114048
             29.210155    0.23218442062076
              9.286663    0.46794134155879
              3.163927    0.36231203217765
 s    3 1.00
             7.8682724   -0.11933240861517
             1.8812885   -0.16085421161283
             0.5442493     1.1434564825515
 s    1 1.00
             0.1687144                   1
 p    3 1.00
             7.8682724   0.068999095584993
             1.8812885    0.31642397975315
             0.5442493    0.74430825237435
 p    1 1.00
             0.1687144                   1
 d    1 1.00
                   0.8                   1

8 0
 s    3 1.00
             18.731137    0.03349459952309
             2.8253937    0.23472694665786
             0.6401217    0.81375731841339
 s    1 1.00
             0.1612778                   1

9 0
 s    3 1.00
             18.731137    0.03349459952309
             2.8253937    0.23472694665786
             0.6401217    0.81375731841339
 s    1 1.00
             0.1612778                   1

10 0
 s    6 1.00
             3047.5249  0.0018347001629433
             457.36951    0.01403730124668
             103.94869   0.068842606114048
             29.210155    0.23218442062076
              9.286663    0.46794134155879
              3.163927    0.36231203217765
 s    3 1.00
             7.8682724   -0.11933240861517
             1.8812885   -0.16085421161283
             0.5442493     1.1434564825515
 s    1 1.00
             0.1687144                   1
 p    3 1.00
             7.8682724   0.068999095584993
             1.8812885    0.31642397975315
             0.5442493    0.74430825237435
 p    1 1.00
             0.1687144                   1
 d    1 1.00
                   0.8                   1

11 0
 s    3 1.00
             18.731137    0.03349459952309
             2.8253937    0.23472694665786
             0.6401217    0.81375731841339
 s    1 1.00
             0.1612778                   1

12 0
 s    6 1.00
             3047.5249  0.0018347001629433
             457.36951    0.01403730124668
             103.94869   0.068842606114048
             29.210155    0.23218442062076
              9.286663    0.46794134155879
              3.163927    0.36231203217765
 s    3 1.00
             7.8682724   -0.11933240861517
             1.8812885   -0.16085421161283
             0.5442493     1.1434564825515
 s    1 1.00
             0.1687144                   1
 p    3 1.00
             7.8682724   0.068999095584993
             1.8812885    0.31642397975315
             0.5442493    0.74430825237435
 p    1 1.00
             0.1687144                   1
 d    1 1.00
                   0.8                   1

13 0
 s    3 1.00
             18.731137    0.03349459952309
             2.8253937    0.23472694665786
             0.6401217    0.81375731841339
 s    1 1.00
             0.1612778                   1

14 0
 s    3 1.00
             18.731137    0.03349459952309
             2.8253937    0.23472694665786
             0.6401217    0.81375731841339
 s    1 1.00
             0.1612778                   1

15 0
 s    6 1.00
             3047.5249  0.0018347001629433
             457.36951    0.01403730124668
             103.94869   0.068842606114048
             29.210155    0.23218442062076
              9.286663    0.46794134155879
              3.163927    0.36231203217765
 s    3 1.00
             7.8682724   -0.11933240861517
             1.8812885   -0.16085421161283
             0.5442493     1.1434564825515
 s    1 1.00
             0.1687144                   1
 p    3 1.00
             7.8682724   0.068999095584993
             1.8812885    0.31642397975315
             0.5442493    0.74430825237435
 p    1 1.00
             0.1687144                   1
 d    1 1.00
                   0.8                   1

16 0
 s    6 1.00
             3047.5249  0.0018347001629433
             457.36951    0.01403730124668
             103.94869   0.068842606114048
             29.210155    0.23218442062076
              9.286663    0.46794134155879
              3.163927    0.36231203217765
 s    3 1.00
             7.8682724   -0.11933240861517
             1.8812885   -0.16085421161283
             0.5442493     1.1434564825515
 s    1 1.00
             0.1687144                   1
 p    3 1.00
             7.8682724   0.068999095584993
             1.8812885    0.31642397975315
             0.5442493    0.74430825237435
 p    1 1.00
             0.1687144                   1
 d    1 1.00
                   0.8                   1

17 0
 s    6 1.00
             3047.5249  0.0018347001629433
             457.36951    0.01403730124668
             103.94869   0.068842606114048
             29.210155    0.23218442062076
              9.286663    0.46794134155879
              3.163927    0.36231203217765
 s    3 1.00
             7.8682724   -0.11933240861517
             1.8812885   -0.16085421161283
             0.5442493     1.1434564825515
 s    1 1.00
             0.1687144                   1
 p    3 1.00
             7.8682724   0.068999095584993
             1.8812885    0.31642397975315
             0.5442493    0.74430825237435
 p    1 1.00
             0.1687144                   1
 d    1 1.00
                   0.8                   1

18 0
 s    6 1.00
             3047.5249  0.0018347001629433
             457.36951    0.01403730124668
             103.94869   0.068842606114048
             29.210155    0.23218442062076
              9.286663    0.46794134155879
              3.163927    0.36231203217765
 s    3 1.00
             7.8682724   -0.11933240861517
             1.8812885   -0.16085421161283
             0.5442493     1.1434564825515
 s    1 1.00
             0.1687144                   1
 p    3 1.00
             7.8682724   0.068999095584993
             1.8812885    0.31642397975315
             0.5442493    0.74430825237435
 p    1 1.00
             0.1687144                   1
 d    1 1.00
                   0.8                   1

19 0
 s    6 1.00
             3047.5249  0.0018347001629433
             457.36951    0.01403730124668
             103.94869   0.068842606114048
             29.210155    0.23218442062076
              9.286663    0.46794134155879
              3.163927    0.36231203217765
 s    3 1.00
             7.8682724   -0.11933240861517
             1.8812885   -0.16085421161283
             0.5442493     1.1434564825515
 s    1 1.00
             0.1687144                   1
 p    3 1.00
             7.8682724   0.068999095584993
             1.8812885    0.31642397975315
             0.5442493    0.74430825237435
 p    1 1.00
             0.1687144                   1
 d    1 1.00
                   0.8                   1

20 0
 s    6 1.00
             3047.5249  0.0018347001629433
             457.36951    0.01403730124668
             103.94869   0.068842606114048
             29.210155    0.23218442062076
              9.286663    0.46794134155879
              3.163927    0.36231203217765
 s    3 1.00
             7.8682724   -0.11933240861517
             1.8812885   -0.16085421161283
             0.5442493     1.1434564825515
 s    1 1.00
             0.1687144                   1
 p    3 1.00
             7.8682724   0.068999095584993
             1.8812885    0.31642397975315
             0.5442493    0.74430825237435
 p    1 1.00
             0.1687144                   1
 d    1 1.00
                   0.8                   1

21 0
 s    6 1.00
             3047.5249  0.0018347001629433
             457.36951    0.01403730124668
             103.94869   0.068842606114048
             29.210155    0.23218442062076
              9.286663    0.46794134155879
              3.163927    0.36231203217765
 s    3 1.00
             7.8682724   -0.11933240861517
             1.8812885   -0.16085421161283
             0.5442493     1.1434564825515
 s    1 1.00
             0.1687144                   1
 p    3 1.00
             7.8682724   0.068999095584993
             1.8812885    0.31642397975315
             0.5442493    0.74430825237435
 p    1 1.00
             0.1687144                   1
 d    1 1.00
                   0.8                   1

22 0
 s    3 1.00
             18.731137    0.03349459952309
             2.8253937    0.23472694665786
             0.6401217    0.81375731841339
 s    1 1.00
             0.1612778                   1

23 0
 s    3 1.00
             18.731137    0.03349459952309
             2.8253937    0.23472694665786
             0.6401217    0.81375731841339
 s    1 1.00
             0.1612778                   1

24 0
 s    3 1.00
             18.731137    0.03349459952309
             2.8253937    0.23472694665786
             0.6401217    0.81375731841339
 s    1 1.00
             0.1612778                   1

25 0
 s    3 1.00
             18.731137    0.03349459952309
             2.8253937    0.23472694665786
             0.6401217    0.81375731841339
 s    1 1.00
             0.1612778                   1

26 0
 s    3 1.00
             18.731137    0.03349459952309
             2.8253937    0.23472694665786
             0.6401217    0.81375731841339
 s    1 1.00
             0.1612778                   1

27 0
 s    3 1.00
             18.731137    0.03349459952309
             2.8253937    0.23472694665786
             0.6401217    0.81375731841339
 s    1 1.00
             0.1612778                   1

28 0
 s    3 1.00
             18.731137    0.03349459952309
             2.8253937    0.23472694665786
             0.6401217    0.81375731841339
 s    1 1.00
             0.1612778                   1

29 0
 s    3 1.00
             18.731137    0.03349459952309
             2.8253937    0.23472694665786
             0.6401217    0.81375731841339
 s    1 1.00
             0.1612778                   1

30 0
 s    3 1.00
             18.731137    0.03349459952309
             2.8253937    0.23472694665786
             0.6401217    0.81375731841339
 s    1 1.00
             0.1612778                   1

31 0
 s    3 1.00
             18.731137    0.03349459952309
             2.8253937    0.23472694665786
             0.6401217    0.81375731841339
 s    1 1.00
             0.1612778                   1

32 0
 s    3 1.00
             18.731137    0.03349459952309
             2.8253937    0.23472694665786
             0.6401217    0.81375731841339
 s    1 1.00
             0.1612778                   1

33 0
 s    6 1.00
             3047.5249  0.0018347001629433
             457.36951    0.01403730124668
             103.94869   0.068842606114048
             29.210155    0.23218442062076
              9.286663    0.46794134155879
              3.163927    0.36231203217765
 s    3 1.00
             7.8682724   -0.11933240861517
             1.8812885   -0.16085421161283
             0.5442493     1.1434564825515
 s    1 1.00
             0.1687144                   1
 p    3 1.00
             7.8682724   0.068999095584993
             1.8812885    0.31642397975315
             0.5442493    0.74430825237435
 p    1 1.00
             0.1687144                   1
 d    1 1.00
                   0.8                   1

34 0
 s    6 1.00
             3047.5249  0.0018347001629433
             457.36951    0.01403730124668
             103.94869   0.068842606114048
             29.210155    0.23218442062076
              9.286663    0.46794134155879
              3.163927    0.36231203217765
 s    3 1.00
             7.8682724   -0.11933240861517
             1.8812885   -0.16085421161283
             0.5442493     1.1434564825515
 s    1 1.00
             0.1687144                   1
 p    3 1.00
             7.8682724   0.068999095584993
             1.8812885    0.31642397975315
             0.5442493    0.74430825237435
 p    1 1.00
             0.1687144                   1
 d    1 1.00
                   0.8                   1

35 0
 s    3 1.00
             18.731137    0.03349459952309
             2.8253937    0.23472694665786
             0.6401217    0.81375731841339
 s    1 1.00
             0.1612778                   1

36 0
 s    6 1.00
             3047.5249  0.0018347001629433
             457.36951    0.01403730124668
             103.94869   0.068842606114048
             29.210155    0.23218442062076
              9.286663    0.46794134155879
              3.163927    0.36231203217765
 s    3 1.00
             7.8682724   -0.11933240861517
             1.8812885   -0.16085421161283
             0.5442493     1.1434564825515
 s    1 1.00
             0.1687144                   1
 p    3 1.00
             7.8682724   0.068999095584993
             1.8812885    0.31642397975315
             0.5442493    0.74430825237435
 p    1 1.00
             0.1687144                   1
 d    1 1.00
                   0.8                   1

37 0
 s    3 1.00
             18.731137    0.03349459952309
             2.8253937    0.23472694665786
             0.6401217    0.81375731841339
 s    1 1.00
             0.1612778                   1

38 0
 s    3 1.00
             18.731137    0.03349459952309
             2.8253937    0.23472694665786
             0.6401217    0.81375731841339
 s    1 1.00
             0.1612778                   1

39 0
 s    6 1.00
             3047.5249  0.0018347001629433
             457.36951    0.01403730124668
             103.94869   0.068842606114048
             29.210155    0.23218442062076
              9.286663    0.46794134155879
              3.163927    0.36231203217765
 s    3 1.00
             7.8682724   -0.11933240861517
             1.8812885   -0.16085421161283
             0.5442493     1.1434564825515
 s    1 1.00
             0.1687144                   1
 p    3 1.00
             7.8682724   0.068999095584993
             1.8812885    0.31642397975315
             0.5442493    0.74430825237435
 p    1 1.00
             0.1687144                   1
 d    1 1.00
                   0.8                   1

40 0
 s    6 1.00
             3047.5249  0.0018347001629433
             457.36951    0.01403730124668
             103.94869   0.068842606114048
             29.210155    0.23218442062076
              9.286663    0.46794134155879
              3.163927    0.36231203217765
 s    3 1.00
             7.8682724   -0.11933240861517
             1.8812885   -0.16085421161283
             0.5442493     1.1434564825515
 s    1 1.00
             0.1687144                   1
 p    3 1.00
             7.8682724   0.068999095584993
             1.8812885    0.31642397975315
             0.5442493    0.74430825237435
 p    1 1.00
             0.1687144                   1
 d    1 1.00
                   0.8                   1

41 0
 s    3 1.00
             18.731137    0.03349459952309
             2.8253937    0.23472694665786
             0.6401217    0.81375731841339
 s    1 1.00
             0.1612778                   1

42 0
 s    6 1.00
             5484.6717   0.001831099805527
             825.23495   0.013950098518422
             188.04696    0.06844509273075
               52.9645    0.23271427528445
              16.89757    0.47019295006289
             5.7996353    0.35852086192309
 s    3 1.00
             15.539616   -0.11077750382508
             3.5999336   -0.14802630511126
             1.0137618     1.1307670390447
 s    1 1.00
             0.2700058                   1
 p    3 1.00
             15.539616   0.070874299543311
             3.5999336    0.33975279781076
             1.0137618    0.72715859531445
 p    1 1.00
             0.2700058                   1
 d    1 1.00
                   0.8                   1

43 0
 s    3 1.00
             18.731137    0.03349459952309
             2.8253937    0.23472694665786
             0.6401217    0.81375731841339
 s    1 1.00
             0.1612778                   1

[5d]
[7f]
[9g]

[MO]
 Sym= A
 Ene=               0
 Spin= Alpha
 Occup=    1.00000
   1    -0.0099564562401532
   2    0.0013807556858642
   3    -0.008935938677384
   4    -0.00057034650855325
   5    0.00014931773422827
   6    -0.0012772437214541
   7    1.4259200017707e-05
   8    -0.00094198771918357
   9    0.0039958309273394
  10    0.00099159366866603
  11    0.0010307222406483
  12    -0.00011369199318473
  13    0.00026689741323585
  14    -6.3662055301811e-05
  15    0.00046315316069774
  16    0.0010291573440612
  17     -0.99441815121594
  18    -0.038621229496799
  19     0.030338170991185
  20    -0.00090941503929956
  21    -0.00024374669401755
  22    0.00012862778290337
  23     0.003901912221973
  24    0.00088443608020359
  25    0.00073204485270262
  26    -0.00077199851182283
  27    0.00025908354979327
  28    0.00038706948844551
  29    -0.00017996787624227
  30    -0.00021649785268157
  31     0.001349979644945
  32    -0.0039620693225829
  33     -0.02817794915474
  34     0.001086024033877
  35    -0.0077608190386408
  36    -0.00090585920368179
  37    -0.00051754661565113
  38    0.0014879282197975
  39    0.0011746983121155
  40    0.00054418354267758
  41    -0.0031971980403669
  42    0.00062046941484371
  43    -0.0011196302597215
  44    -0.000622642884827
  45    0.0003297754125027
  46    0.00051296212527121
  47    0.00034427457571091
  48    -0.00031485685824571
  49    -0.0046296789243961
  50    6.0665347846286e-05
  51    0.0030198693190738
  52    -0.00026419371761559
  53    -0.00019202151765019
  54    0.00021020437272581
  55    0.0017629739518623
  56    0.0014437882975653
  57    -0.002457203942918
  58    1.1632015855551e-05
  59    -0.00019939828165399
  60    6.6244099018593e-05
  61    -4.0627398357258e-05
  62    9.7286007308278e-05
  63    0.00025346372387091
  64    0.00015319819028974
  65    5.7156814092599e-06
  66    1.6164375213996e-05
  67    1.6758820668946e-06
  68    -7.7551543162196e-06
  69    9.9391205474933e-06
  70    -4.8520335504309e-06
  71    2.0237438847595e-06
  72    8.5753045991406e-06
  73    -2.0148078575262e-05
  74    -1.9661694978481e-05
  75    -2.0609687607345e-05
  76    7.647683343728e-07
  77    7.0950489638663e-08
  78    1.8717669914104e-07
  79    -2.7553402029483e-07
  80    4.4834701417052e-07
  81    -8.281845301925e-07
  82    -9.0834693499357e-06
  83    -1.5755827130516e-06
  84    2.205555281233e-06
  85    7.4335660446133e-06
  86    -3.862423630402e-07
  87    1.0073490705448e-05
  88    -1.6335508591258e-05
  89    -1.0772469396701e-06
  90    5.0180205338088e-05
  91    -4.7752608388985e-07
  92    -1.3890400602568e-06
  93    2.5500240451065e-06
  94    9.2403058585453e-07
  95    1.6963422275254e-06
  96    3.2987557632198e-06
  97    1.0642268166517e-05
  98    1.4286475957106e-05
  99    -1.2915138663042e-05
 100    -1.071016856635e-05
 101    9.6165619177901e-06
 102    -1.0021849790253e-05
 103    -0.00010113706689811
 104    -1.1160625322687e-05
 105    -7.8808588283453e-05
 106    2.6030470493964e-05
 107    6.0954758324907e-05
 108    -0.00016180133527242
 109    -2.6375429640914e-05
 110    6.5476591202274e-06
 111    -1.3979548614332e-06
 112    1.1384182533664e-06
 113     2.08981643115e-06
 114    4.3102259073473e-06
 115    2.2508039232903e-06
 116    2.7641322281068e-05
 117    -0.00014049914548064
 118    -4.0509337246831e-08
 119    1.2456366770315e-05
 120    -5.1654393024916e-06
 121    2.6745362337094e-05
 122    -1.331222597739e-05
 123    4.9856667685807e-06
 124    -5.9686345869763e-07
 125    8.6465051176201e-07
 126    2.8398847398212e-07
 127    1.0621737177283e-06
 128    3.5170237878663e-06
 129    1.6096544431822e-05
 130    -1.9818005803833e-06
 131    6.7482206947487e-05
 132    -3.7293662533671e-05
 133    -3.153748920862e-05
 134    1.1379584989235e-05
 135    0.00013438055894869
 136    -3.3841765014221e-05
 137    8.8982484039363e-05
 138    5.4821009785756e-06
 139    -1.5298329760483e-05
 140    -6.1625361852706e-06
 141    -9.5676451675095e-06
 142    -7.3035205330393e-06
 143    -5.0452610005337e-06
 144    2.7467913512743e-05
 145    1.6737443268682e-05
 146    1.2729928393636e-05
 147    -1.5466034136122e-05
 148    -2.5310502319667e-05
 149    3.8475008671604e-05
 150    -2.848005241742e-05
 151    7.6834358070352e-05
 152    1.1112244846637e-06
 153    5.3962023554087e-06
 154    2.568934629387e-06
 155    -3.0142050939235e-06
 156    -4.2024223091385e-07
 157    -2.6752556929876e-06
 158    -8.284448330226e-06
 159    5.7472269246503e-05
 160    -5.4786381919201e-06
 161    -4.109577252493e-06
 162    -1.8639875965872e-06
 163    3.3663500950147e-05
 164    -3.4765050146533e-05
 165    -1.513051814537e-05
 166    -3.0986309919757e-06
 167    1.2383253012242e-06
 168    5.9202438875169e-07
 169    -1.7960107085553e-06
 170    -6.8648471981435e-07
 171    1.7382641722265e-06
 172    1.2447401565637e-05
 173    -4.3128942149423e-05
 174    -9.5001532397148e-06
 175    -2.8608640579617e-06
 176    -3.2883428969928e-05
 177    -1.5347583238959e-05
 178    9.9405813310011e-06
 179    7.1889120643975e-06
 180    -1.3515411799982e-06
 181    -3.5784894430193e-06
 182    -1.0113862547373e-06
 183    1.4359729259156e-06
 184    -6.1052420064388e-07
 185    3.2556248468331e-06
 186    1.6879492829595e-05
 187    -9.4665711922956e-05
 188    2.0024682684106e-06
 189    7.7133457449801e-06
 190    1.8528072074244e-06
 191    1.7596590865737e-05
 192    2.8039586583336e-05
 193    6.0804312952444e-05
 194    -1.1235722888282e-06
 195    -2.0417297623793e-06
 196    -1.1978723655928e-06
 197    -5.8685487546811e-07
 198    -5.3207801392528e-07
 199    7.2171280840922e-06
 200    -6.2716771588832e-06
 201    5.1998040582966e-06
 202    -4.8889279321279e-06
 203    -5.9079825279872e-06
 204    -2.6364703743204e-05
 205    1.5792808150399e-05
 206    4.632878934375e-05
 207    -1.0764881443674e-05
 208    4.7751463437897e-05
 209    -6.509230289033e-06
 210    1.6729243646174e-05
 211    -6.8100066465476e-06
 212    -1.371629613536e-05
 213    -8.0023416062137e-07
 214    1.6081377583233e-05
 215    1.2777925761913e-05
 216    4.1709001307907e-05
 217    -2.7374754403804e-06
 218    -5.450369692763e-06
 219    -5.9824805581694e-06
 220    6.6675144973461e-06
 221    -1.8811271977436e-05
 222    3.8505976795884e-05
 223    -0.00096941205438572
 224    0.00020477680726042
 225    7.7058092186028e-05
 226    -3.5156539515384e-05
 227    -0.00061262196784154
 228    -0.00019013059514371
 229    0.00037390863104971
 230    -1.1342528865514e-05
 231    2.2774006611752e-05
 232    1.1631366387037e-05
 233    -1.9520853524695e-05
 234    -1.4630593233205e-05
 235    0.00022231027592095
 236    -0.00026328556436767
 237    -0.00072907295343915
 238    8.0211345233947e-05
 239    -3.042428602501e-05
 240    0.00054166162031729
 241    -0.00019289917035524
 242    -0.00039674788559098
 243    0.0018504726139307
 244    -3.9489258707509e-05
 245    -6.2151572809976e-05
 246    5.1809300826717e-06
 247    -1.8447716245606e-05
 248    5.0321524214908e-06
 249    -9.0706957991679e-05
 250    -0.00037388159291937
 251    -0.0001774156497555
 252    0.00013375154391484
 253    0.00018202425170241
 254    -0.0006564313467714
 255    -2.5951472129818e-05
 256    -0.00071905748558307
 257    0.00072555456957209
 258    0.00012128551108249
 259    0.00096332973433885
 260    8.1610398740413e-05
 261    -2.039500615351e-05
 262    -1.1724773792326e-05
 263    -0.00012257974569818
 264    -5.5110367831764e-05
 265    5.7854710475845e-05
 266    -5.5047290626927e-05
 267    0.00049663424872153
 268    0.00099942936453445
 269    0.00010026427514992
 270    0.00039832971434674
 271    -0.0034352190048131
 272    0.00033345455333122
 273    -8.8346912179086e-05
 274    2.8823701474512e-05
 275    0.0013831500812667
 276    0.00046091836997955
 277    -0.0020558828611868
 278    -9.2200368862192e-05
 279    7.7575291148255e-05
 280    5.1615668820274e-05