[Molden Format]
made by pyscf v[2.0.1]
[Atoms] (AU)
C   1   6     0.69100024066471     0.64692934207205    -3.48223131169301
H   2   1     2.68052439830868     1.13355088658700    -3.25784032593313
C   3   6    -0.36286361513219     0.85440132524594    -5.97030179418974
H   4   1    -2.35448549047279     0.36322488579172    -6.17995817793143
C   5   6     0.93697958957450     1.61209284601821    -8.05828437677121
H   6   1     0.01358296644616     2.85086245433209    -9.41980240085128
C   7   6     3.49095983212942     0.86501358647737    -8.58301400036413
H   8   1     4.39173101664678    -0.37544723242066    -7.20113468241566
H   9   1     1.55630230933075    -1.92953025305990    12.99630010416247
C   10   6     0.75233899775814    -2.21270439606481    11.10705728102219
H   11   1    -0.43433408177274    -3.90944857546550    11.22216085340412
C   12   6     2.86362581178706    -2.63237380607947     9.17926416456045
H   13   1     4.39038949912609    -1.24955421540245     9.49899813497433
H   14   1     3.74629220191363    -4.48798724300892     9.47414880959024
C   15   6     2.02478325613682    -2.42177285709634     6.44560829588644
C   16   6     3.88048732735477    -3.58795445234514     4.61402886975252
C   17   6    -0.18412382258602    -1.30464291234259     5.76021113872346
C   18   6    -2.10044360464350    -0.26837831858460     7.71610340967100
C   19   6    -3.08956938670431     2.35282328359417     6.88693925039594
C   20   6    -4.37372924086464    -2.09766595989678     7.93610724222001
C   21   6    -0.83850430601230     0.06372213486173    10.33002307638377
H   22   1     0.38411922151109     1.74281358582432    10.27380136542181
H   23   1    -2.30980003007874     0.45460143924521    11.73986301809809
H   24   1     4.58527064644668    -5.38706904487420     5.36778158031719
H   25   1     5.54944938085014    -2.37631462192748     4.35398898413318
H   26   1     3.06633019150423    -3.94118377050688     2.75255466040884
H   27   1    -4.17727778763735     2.26573369139522     5.12914900961283
H   28   1    -1.52662344944051     3.68001877445626     6.59540397144508
H   29   1    -4.32916174397830     3.13643051467482     8.35225460090378
H   30   1    -5.32329548508442    -2.36691813602939     6.11583672749896
H   31   1    -5.77989366602257    -1.33896741843465     9.25748940450990
H   32   1    -3.79310905208926    -3.96389819310853     8.61386170102686
C   33   6    -1.01100794811226    -1.06331657314144     3.11929490449947
C   34   6     0.37686231036534    -0.33275864505552     1.09165013605873
H   35   1    -3.01671213906703    -1.40297922279997     2.77827895090944
C   36   6    -0.64382707979370    -0.11591880174385    -1.42063131251064
H   37   1     2.35569259782137     0.17174499283897     1.33641070251401
H   38   1    -2.63317482980319    -0.60229203511219    -1.66119700387645
C   39   6     4.85727779250226     1.56932506344372   -10.63578143211247
C   40   6     7.45078580641309     0.70440198785573   -10.99998857146552
H   41   1     4.07326566832422     2.80126406203857   -12.08333786763668
O   42   8     8.78463246786107     1.26137953491899   -12.79761289932761
H   43   1     8.17650804893433    -0.55247504818230    -9.47232163774676
[GTO]
1 0
 s    6 1.00
             3047.5249  0.0018347001629433
             457.36951    0.01403730124668
             103.94869   0.068842606114048
             29.210155    0.23218442062076
              9.286663    0.46794134155879
              3.163927    0.36231203217765
 s    3 1.00
             7.8682724   -0.11933240861517
             1.8812885   -0.16085421161283
             0.5442493     1.1434564825515
 s    1 1.00
             0.1687144                   1
 p    3 1.00
             7.8682724   0.068999095584993
             1.8812885    0.31642397975315
             0.5442493    0.74430825237435
 p    1 1.00
             0.1687144                   1
 d    1 1.00
                   0.8                   1

2 0
 s    3 1.00
             18.731137    0.03349459952309
             2.8253937    0.23472694665786
             0.6401217    0.81375731841339
 s    1 1.00
             0.1612778                   1

3 0
 s    6 1.00
             3047.5249  0.0018347001629433
             457.36951    0.01403730124668
             103.94869   0.068842606114048
             29.210155    0.23218442062076
              9.286663    0.46794134155879
              3.163927    0.36231203217765
 s    3 1.00
             7.8682724   -0.11933240861517
             1.8812885   -0.16085421161283
             0.5442493     1.1434564825515
 s    1 1.00
             0.1687144                   1
 p    3 1.00
             7.8682724   0.068999095584993
             1.8812885    0.31642397975315
             0.5442493    0.74430825237435
 p    1 1.00
             0.1687144                   1
 d    1 1.00
                   0.8                   1

4 0
 s    3 1.00
             18.731137    0.03349459952309
             2.8253937    0.23472694665786
             0.6401217    0.81375731841339
 s    1 1.00
             0.1612778                   1

5 0
 s    6 1.00
             3047.5249  0.0018347001629433
             457.36951    0.01403730124668
             103.94869   0.068842606114048
             29.210155    0.23218442062076
              9.286663    0.46794134155879
              3.163927    0.36231203217765
 s    3 1.00
             7.8682724   -0.11933240861517
             1.8812885   -0.16085421161283
             0.5442493     1.1434564825515
 s    1 1.00
             0.1687144                   1
 p    3 1.00
             7.8682724   0.068999095584993
             1.8812885    0.31642397975315
             0.5442493    0.74430825237435
 p    1 1.00
             0.1687144                   1
 d    1 1.00
                   0.8                   1

6 0
 s    3 1.00
             18.731137    0.03349459952309
             2.8253937    0.23472694665786
             0.6401217    0.81375731841339
 s    1 1.00
             0.1612778                   1

7 0
 s    6 1.00
             3047.5249  0.0018347001629433
             457.36951    0.01403730124668
             103.94869   0.068842606114048
             29.210155    0.23218442062076
              9.286663    0.46794134155879
              3.163927    0.36231203217765
 s    3 1.00
             7.8682724   -0.11933240861517
             1.8812885   -0.16085421161283
             0.5442493     1.1434564825515
 s    1 1.00
             0.1687144                   1
 p    3 1.00
             7.8682724   0.068999095584993
             1.8812885    0.31642397975315
             0.5442493    0.74430825237435
 p    1 1.00
             0.1687144                   1
 d    1 1.00
                   0.8                   1

8 0
 s    3 1.00
             18.731137    0.03349459952309
             2.8253937    0.23472694665786
             0.6401217    0.81375731841339
 s    1 1.00
             0.1612778                   1

9 0
 s    3 1.00
             18.731137    0.03349459952309
             2.8253937    0.23472694665786
             0.6401217    0.81375731841339
 s    1 1.00
             0.1612778                   1

10 0
 s    6 1.00
             3047.5249  0.0018347001629433
             457.36951    0.01403730124668
             103.94869   0.068842606114048
             29.210155    0.23218442062076
              9.286663    0.46794134155879
              3.163927    0.36231203217765
 s    3 1.00
             7.8682724   -0.11933240861517
             1.8812885   -0.16085421161283
             0.5442493     1.1434564825515
 s    1 1.00
             0.1687144                   1
 p    3 1.00
             7.8682724   0.068999095584993
             1.8812885    0.31642397975315
             0.5442493    0.74430825237435
 p    1 1.00
             0.1687144                   1
 d    1 1.00
                   0.8                   1

11 0
 s    3 1.00
             18.731137    0.03349459952309
             2.8253937    0.23472694665786
             0.6401217    0.81375731841339
 s    1 1.00
             0.1612778                   1

12 0
 s    6 1.00
             3047.5249  0.0018347001629433
             457.36951    0.01403730124668
             103.94869   0.068842606114048
             29.210155    0.23218442062076
              9.286663    0.46794134155879
              3.163927    0.36231203217765
 s    3 1.00
             7.8682724   -0.11933240861517
             1.8812885   -0.16085421161283
             0.5442493     1.1434564825515
 s    1 1.00
             0.1687144                   1
 p    3 1.00
             7.8682724   0.068999095584993
             1.8812885    0.31642397975315
             0.5442493    0.74430825237435
 p    1 1.00
             0.1687144                   1
 d    1 1.00
                   0.8                   1

13 0
 s    3 1.00
             18.731137    0.03349459952309
             2.8253937    0.23472694665786
             0.6401217    0.81375731841339
 s    1 1.00
             0.1612778                   1

14 0
 s    3 1.00
             18.731137    0.03349459952309
             2.8253937    0.23472694665786
             0.6401217    0.81375731841339
 s    1 1.00
             0.1612778                   1

15 0
 s    6 1.00
             3047.5249  0.0018347001629433
             457.36951    0.01403730124668
             103.94869   0.068842606114048
             29.210155    0.23218442062076
              9.286663    0.46794134155879
              3.163927    0.36231203217765
 s    3 1.00
             7.8682724   -0.11933240861517
             1.8812885   -0.16085421161283
             0.5442493     1.1434564825515
 s    1 1.00
             0.1687144                   1
 p    3 1.00
             7.8682724   0.068999095584993
             1.8812885    0.31642397975315
             0.5442493    0.74430825237435
 p    1 1.00
             0.1687144                   1
 d    1 1.00
                   0.8                   1

16 0
 s    6 1.00
             3047.5249  0.0018347001629433
             457.36951    0.01403730124668
             103.94869   0.068842606114048
             29.210155    0.23218442062076
              9.286663    0.46794134155879
              3.163927    0.36231203217765
 s    3 1.00
             7.8682724   -0.11933240861517
             1.8812885   -0.16085421161283
             0.5442493     1.1434564825515
 s    1 1.00
             0.1687144                   1
 p    3 1.00
             7.8682724   0.068999095584993
             1.8812885    0.31642397975315
             0.5442493    0.74430825237435
 p    1 1.00
             0.1687144                   1
 d    1 1.00
                   0.8                   1

17 0
 s    6 1.00
             3047.5249  0.0018347001629433
             457.36951    0.01403730124668
             103.94869   0.068842606114048
             29.210155    0.23218442062076
              9.286663    0.46794134155879
              3.163927    0.36231203217765
 s    3 1.00
             7.8682724   -0.11933240861517
             1.8812885   -0.16085421161283
             0.5442493     1.1434564825515
 s    1 1.00
             0.1687144                   1
 p    3 1.00
             7.8682724   0.068999095584993
             1.8812885    0.31642397975315
             0.5442493    0.74430825237435
 p    1 1.00
             0.1687144                   1
 d    1 1.00
                   0.8                   1

18 0
 s    6 1.00
             3047.5249  0.0018347001629433
             457.36951    0.01403730124668
             103.94869   0.068842606114048
             29.210155    0.23218442062076
              9.286663    0.46794134155879
              3.163927    0.36231203217765
 s    3 1.00
             7.8682724   -0.11933240861517
             1.8812885   -0.16085421161283
             0.5442493     1.1434564825515
 s    1 1.00
             0.1687144                   1
 p    3 1.00
             7.8682724   0.068999095584993
             1.8812885    0.31642397975315
             0.5442493    0.74430825237435
 p    1 1.00
             0.1687144                   1
 d    1 1.00
                   0.8                   1

19 0
 s    6 1.00
             3047.5249  0.0018347001629433
             457.36951    0.01403730124668
             103.94869   0.068842606114048
             29.210155    0.23218442062076
              9.286663    0.46794134155879
              3.163927    0.36231203217765
 s    3 1.00
             7.8682724   -0.11933240861517
             1.8812885   -0.16085421161283
             0.5442493     1.1434564825515
 s    1 1.00
             0.1687144                   1
 p    3 1.00
             7.8682724   0.068999095584993
             1.8812885    0.31642397975315
             0.5442493    0.74430825237435
 p    1 1.00
             0.1687144                   1
 d    1 1.00
                   0.8                   1

20 0
 s    6 1.00
             3047.5249  0.0018347001629433
             457.36951    0.01403730124668
             103.94869   0.068842606114048
             29.210155    0.23218442062076
              9.286663    0.46794134155879
              3.163927    0.36231203217765
 s    3 1.00
             7.8682724   -0.11933240861517
             1.8812885   -0.16085421161283
             0.5442493     1.1434564825515
 s    1 1.00
             0.1687144                   1
 p    3 1.00
             7.8682724   0.068999095584993
             1.8812885    0.31642397975315
             0.5442493    0.74430825237435
 p    1 1.00
             0.1687144                   1
 d    1 1.00
                   0.8                   1

21 0
 s    6 1.00
             3047.5249  0.0018347001629433
             457.36951    0.01403730124668
             103.94869   0.068842606114048
             29.210155    0.23218442062076
              9.286663    0.46794134155879
              3.163927    0.36231203217765
 s    3 1.00
             7.8682724   -0.11933240861517
             1.8812885   -0.16085421161283
             0.5442493     1.1434564825515
 s    1 1.00
             0.1687144                   1
 p    3 1.00
             7.8682724   0.068999095584993
             1.8812885    0.31642397975315
             0.5442493    0.74430825237435
 p    1 1.00
             0.1687144                   1
 d    1 1.00
                   0.8                   1

22 0
 s    3 1.00
             18.731137    0.03349459952309
             2.8253937    0.23472694665786
             0.6401217    0.81375731841339
 s    1 1.00
             0.1612778                   1

23 0
 s    3 1.00
             18.731137    0.03349459952309
             2.8253937    0.23472694665786
             0.6401217    0.81375731841339
 s    1 1.00
             0.1612778                   1

24 0
 s    3 1.00
             18.731137    0.03349459952309
             2.8253937    0.23472694665786
             0.6401217    0.81375731841339
 s    1 1.00
             0.1612778                   1

25 0
 s    3 1.00
             18.731137    0.03349459952309
             2.8253937    0.23472694665786
             0.6401217    0.81375731841339
 s    1 1.00
             0.1612778                   1

26 0
 s    3 1.00
             18.731137    0.03349459952309
             2.8253937    0.23472694665786
             0.6401217    0.81375731841339
 s    1 1.00
             0.1612778                   1

27 0
 s    3 1.00
             18.731137    0.03349459952309
             2.8253937    0.23472694665786
             0.6401217    0.81375731841339
 s    1 1.00
             0.1612778                   1

28 0
 s    3 1.00
             18.731137    0.03349459952309
             2.8253937    0.23472694665786
             0.6401217    0.81375731841339
 s    1 1.00
             0.1612778                   1

29 0
 s    3 1.00
             18.731137    0.03349459952309
             2.8253937    0.23472694665786
             0.6401217    0.81375731841339
 s    1 1.00
             0.1612778                   1

30 0
 s    3 1.00
             18.731137    0.03349459952309
             2.8253937    0.23472694665786
             0.6401217    0.81375731841339
 s    1 1.00
             0.1612778                   1

31 0
 s    3 1.00
             18.731137    0.03349459952309
             2.8253937    0.23472694665786
             0.6401217    0.81375731841339
 s    1 1.00
             0.1612778                   1

32 0
 s    3 1.00
             18.731137    0.03349459952309
             2.8253937    0.23472694665786
             0.6401217    0.81375731841339
 s    1 1.00
             0.1612778                   1

33 0
 s    6 1.00
             3047.5249  0.0018347001629433
             457.36951    0.01403730124668
             103.94869   0.068842606114048
             29.210155    0.23218442062076
              9.286663    0.46794134155879
              3.163927    0.36231203217765
 s    3 1.00
             7.8682724   -0.11933240861517
             1.8812885   -0.16085421161283
             0.5442493     1.1434564825515
 s    1 1.00
             0.1687144                   1
 p    3 1.00
             7.8682724   0.068999095584993
             1.8812885    0.31642397975315
             0.5442493    0.74430825237435
 p    1 1.00
             0.1687144                   1
 d    1 1.00
                   0.8                   1

34 0
 s    6 1.00
             3047.5249  0.0018347001629433
             457.36951    0.01403730124668
             103.94869   0.068842606114048
             29.210155    0.23218442062076
              9.286663    0.46794134155879
              3.163927    0.36231203217765
 s    3 1.00
             7.8682724   -0.11933240861517
             1.8812885   -0.16085421161283
             0.5442493     1.1434564825515
 s    1 1.00
             0.1687144                   1
 p    3 1.00
             7.8682724   0.068999095584993
             1.8812885    0.31642397975315
             0.5442493    0.74430825237435
 p    1 1.00
             0.1687144                   1
 d    1 1.00
                   0.8                   1

35 0
 s    3 1.00
             18.731137    0.03349459952309
             2.8253937    0.23472694665786
             0.6401217    0.81375731841339
 s    1 1.00
             0.1612778                   1

36 0
 s    6 1.00
             3047.5249  0.0018347001629433
             457.36951    0.01403730124668
             103.94869   0.068842606114048
             29.210155    0.23218442062076
              9.286663    0.46794134155879
              3.163927    0.36231203217765
 s    3 1.00
             7.8682724   -0.11933240861517
             1.8812885   -0.16085421161283
             0.5442493     1.1434564825515
 s    1 1.00
             0.1687144                   1
 p    3 1.00
             7.8682724   0.068999095584993
             1.8812885    0.31642397975315
             0.5442493    0.74430825237435
 p    1 1.00
             0.1687144                   1
 d    1 1.00
                   0.8                   1

37 0
 s    3 1.00
             18.731137    0.03349459952309
             2.8253937    0.23472694665786
             0.6401217    0.81375731841339
 s    1 1.00
             0.1612778                   1

38 0
 s    3 1.00
             18.731137    0.03349459952309
             2.8253937    0.23472694665786
             0.6401217    0.81375731841339
 s    1 1.00
             0.1612778                   1

39 0
 s    6 1.00
             3047.5249  0.0018347001629433
             457.36951    0.01403730124668
             103.94869   0.068842606114048
             29.210155    0.23218442062076
              9.286663    0.46794134155879
              3.163927    0.36231203217765
 s    3 1.00
             7.8682724   -0.11933240861517
             1.8812885   -0.16085421161283
             0.5442493     1.1434564825515
 s    1 1.00
             0.1687144                   1
 p    3 1.00
             7.8682724   0.068999095584993
             1.8812885    0.31642397975315
             0.5442493    0.74430825237435
 p    1 1.00
             0.1687144                   1
 d    1 1.00
                   0.8                   1

40 0
 s    6 1.00
             3047.5249  0.0018347001629433
             457.36951    0.01403730124668
             103.94869   0.068842606114048
             29.210155    0.23218442062076
              9.286663    0.46794134155879
              3.163927    0.36231203217765
 s    3 1.00
             7.8682724   -0.11933240861517
             1.8812885   -0.16085421161283
             0.5442493     1.1434564825515
 s    1 1.00
             0.1687144                   1
 p    3 1.00
             7.8682724   0.068999095584993
             1.8812885    0.31642397975315
             0.5442493    0.74430825237435
 p    1 1.00
             0.1687144                   1
 d    1 1.00
                   0.8                   1

41 0
 s    3 1.00
             18.731137    0.03349459952309
             2.8253937    0.23472694665786
             0.6401217    0.81375731841339
 s    1 1.00
             0.1612778                   1

42 0
 s    6 1.00
             5484.6717   0.001831099805527
             825.23495   0.013950098518422
             188.04696    0.06844509273075
               52.9645    0.23271427528445
              16.89757    0.47019295006289
             5.7996353    0.35852086192309
 s    3 1.00
             15.539616   -0.11077750382508
             3.5999336   -0.14802630511126
             1.0137618     1.1307670390447
 s    1 1.00
             0.2700058                   1
 p    3 1.00
             15.539616   0.070874299543311
             3.5999336    0.33975279781076
             1.0137618    0.72715859531445
 p    1 1.00
             0.2700058                   1
 d    1 1.00
                   0.8                   1

43 0
 s    3 1.00
             18.731137    0.03349459952309
             2.8253937    0.23472694665786
             0.6401217    0.81375731841339
 s    1 1.00
             0.1612778                   1

[5d]
[7f]
[9g]

[MO]
 Sym= A
 Ene=               0
 Spin= Alpha
 Occup=    1.00000
   1     0.010538693757245
   2    -0.0013333134106779
   3    0.0085276043489047
   4    0.00056920954679116
   5    -0.00017766179464598
   6    0.0012740441437424
   7    0.00015861756124357
   8    0.0010842544705551
   9    -0.0039579616342512
  10    -0.00099486850395733
  11    -0.0010333981995084
  12    0.00011225292991213
  13    -0.00026450260501742
  14    6.2508271196711e-05
  15    -0.00045763249367632
  16    -0.0011044021929822
  17      0.99447859301038
  18     0.038697025635111
  19    -0.029957665330133
  20    0.00094232899486364
  21    0.00024613677887585
  22    -0.00019549188931441
  23    -0.0036133339422365
  24    -0.00093902050677545
  25    -0.00058804649372281
  26    0.00077952842781636
  27    -0.00027043582958067
  28    -0.00037647259990725
  29    0.00019311282210309
  30    0.00023389535250657
  31    -0.0013415544106687
  32     0.004042084487436
  33      0.02619183428749
  34    -0.00090033232730292
  35    0.0061468044073353
  36    0.00092391799121545
  37    0.0004924951842518
  38    -0.0014539776967488
  39    -0.0020650502179469
  40    8.4333159397435e-05
  41    0.0028969071091973
  42    -0.00061287498016653
  43    0.0011442652576901
  44    0.00063405681907455
  45    -0.00037894979055656
  46    -0.00050385663598998
  47    -0.0004077123018979
  48    8.0766497181089e-05
  49    0.0004173989899562
  50    -0.0002981168926492
  51    -0.0022011927895647
  52    0.0003052152222103
  53    0.00019259300268349
  54    -0.00022529586056099
  55    -0.0031329798940278
  56    -0.001360692796152
  57    0.0030907654718827
  58    -6.8829081011168e-05
  59    0.00018094839160254
  60    -7.874243276307e-05
  61    4.6421050727751e-05
  62    -0.00015741134682935
  63    -0.00030386155086158
  64    -8.2773237192622e-05
  65    -6.1373682366922e-06
  66    -1.7553467219575e-05
  67    -1.8031223433901e-06
  68    8.2124704322091e-06
  69    -9.9983741518673e-06
  70    6.1435689943982e-06
  71    -2.4927453741891e-06
  72    -9.5037644117741e-06
  73    2.141561033946e-05
  74    1.8672573911533e-05
  75    2.1145313693581e-05
  76    -8.6458305951811e-07
  77    -2.1437258159988e-07
  78    -1.2239056250802e-07
  79    2.4471655309795e-07
  80    -5.9602305242333e-07
  81    5.6221322599689e-07
  82    8.1207888481542e-06
  83    1.5519304218328e-06
  84    -2.7503491465151e-06
  85    -1.4097958381518e-05
  86    -9.569295772712e-07
  87    -1.1751388457521e-05
  88    1.7363557812375e-05
  89    1.0302853121163e-06
  90    -5.0628514032717e-05
  91    2.8220779648648e-06
  92    1.6073047527976e-06
  93    -2.9378622743877e-06
  94    -1.1207236395173e-06
  95    -1.743213615318e-06
  96    -3.6729306618064e-06
  97    -1.3065281012311e-05
  98    -1.8181186542699e-05
  99    1.4375394889398e-05
 100    1.3114677341142e-05
 101    -9.4147006296238e-06
 102    1.0246034513508e-05
 103    9.5106919978054e-05
 104    1.739517270558e-05
 105    8.7124189212829e-05
 106    -2.6919474096292e-05
 107    -6.6641820473712e-05
 108    0.00017602231742773
 109    4.7708836530751e-05
 110    -6.8960816356885e-06
 111    9.3531611812747e-07
 112    -1.0600676071738e-06
 113    -2.5192639560925e-06
 114    -4.806415552361e-06
 115    -2.2408836456658e-06
 116    -2.9218140651444e-05
 117    0.00015495452920109
 118    -6.1175767819619e-07
 119    -1.3745640512795e-05
 120    7.8266850164824e-06
 121    -3.2117310783731e-05
 122    1.8259224358392e-05
 123    2.6010804098774e-06
 124    4.4406010647228e-07
 125    -9.9492862155442e-07
 126    -3.0994680458056e-08
 127    -1.1744147439518e-06
 128    -4.1287869701717e-06
 129    -1.6527722209544e-05
 130    -1.4529076023329e-06
 131    -3.3647147100737e-05
 132    3.9756171180314e-05
 133    3.9805382177855e-05
 134    -8.4283692193999e-06
 135    -0.00013484263769059
 136    3.3331148536204e-05
 137    -0.00014202584955296
 138    -3.9187422849909e-06
 139    1.621555214138e-05
 140    6.4596362837789e-06
 141    1.015900515652e-05
 142    7.3560438342299e-06
 143    4.3893847925804e-06
 144    -3.0584070112726e-05
 145    7.9771406754281e-06
 146    -1.2057079895548e-05
 147    1.3699390964361e-05
 148    2.2702830042183e-05
 149    -2.4687206424697e-05
 150    2.5417808981627e-05
 151    -8.1246051085975e-05
 152    -1.5372671947424e-06
 153    -5.8439166884129e-06
 154    -2.6422598856888e-06
 155    3.6363595907967e-06
 156    2.3107092628668e-08
 157    2.7504962251947e-06
 158    7.9724317705666e-06
 159    -5.751162032363e-05
 160    4.6383017117182e-06
 161    5.1184955029798e-06
 162    5.6511386468924e-07
 163    -3.83541041645e-05
 164    3.5814991294761e-05
 165    1.4345271007542e-05
 166    3.3317939053654e-06
 167    -1.4678843707247e-06
 168    -4.8699958434431e-07
 169    1.6922224233855e-06
 170    9.0058814756316e-07
 171    -1.9955558271724e-06
 172    -1.2061986968252e-05
 173    4.6747442352064e-05
 174    1.0830147405788e-05
 175    3.1379595243409e-06
 176    3.3346949726691e-05
 177    1.4161208283822e-05
 178    -7.8971724556508e-06
 179    -6.783582494804e-06
 180    1.3636508662605e-06
 181    3.5322394533067e-06
 182    1.1066633586488e-06
 183    -1.7117119318747e-06
 184    5.9666231830922e-07
 185    -3.1217688062009e-06
 186    -1.8545427754085e-05
 187    9.1769969848272e-05
 188    -1.951708530255e-06
 189    -7.4885614888219e-06
 190    9.9781444199805e-07
 191    -1.5782880644535e-05
 192    -2.912983434241e-05
 193    -6.020708959415e-05
 194    1.087401578083e-06
 195    1.7907463312513e-06
 196    1.4089417390466e-06
 197    7.7590646766688e-07
 198    3.9034430115889e-07
 199    -7.5895490640005e-06
 200    6.3238655933949e-06
 201    -3.955262750409e-06
 202    8.7122973472223e-06
 203    7.6443921341963e-06
 204    3.0211599070317e-05
 205    -1.8009055582589e-05
 206    -5.1439729728186e-05
 207    9.5277679919792e-06
 208    -4.1831981441668e-05
 209    7.3953427691623e-06
 210    -1.9888975167956e-05
 211    7.1477989523446e-06
 212    1.4651178636724e-05
 213    7.2723383736647e-07
 214    -1.6364187975401e-05
 215    -1.2829187169672e-05
 216    -4.4331358379945e-05
 217    2.4968044916341e-06
 218    4.3207029997254e-06
 219    6.4190199044546e-06
 220    -6.3345046379554e-06
 221    1.8840722772861e-05
 222    -3.6516497540664e-05
 223    0.00090211763569371
 224    -0.00020497014363834
 225    -9.0149731054385e-05
 226    3.4872787510321e-05
 227    0.00059577107706433
 228    0.00019033696488571
 229    -0.00041204410440486
 230    1.0008136560193e-05
 231    -2.4396296287896e-05
 232    -1.0579684036307e-05
 233    2.0622051409438e-05
 234    1.4924420928259e-05
 235    -0.00022156733127078
 236    0.00026258155987239
 237    0.00076726548902693
 238    -7.439070361623e-05
 239    1.6441149803189e-05
 240    -0.00054642745883084
 241    0.0001536739101474
 242    0.00038338777263406
 243    -0.0018490417957217
 244    3.8397176308118e-05
 245    6.3050964148473e-05
 246    -6.7771023919457e-06
 247    1.9152957585028e-05
 248    -6.1061485081868e-06
 249    9.0113306534515e-05
 250    0.00038369504901314
 251    0.00017612456955999
 252    -0.00015845701254055
 253    1.6495227824899e-05
 254    0.00066601749853683
 255    2.5051145883309e-05
 256    0.0007219482371637
 257    -0.00068136333878757
 258    -0.00012771439929496
 259    -0.0011363406825329
 260    -7.7063533916372e-05
 261    1.5353818097055e-05
 262    1.2096340196746e-05
 263    0.00012630932794473
 264    5.1517917076919e-05
 265    -5.7044532703136e-05
 266    7.3330455333956e-05
 267    -0.00050901002812728
 268    -0.0010206601682256
 269    -0.00010123934617679
 270    -0.00045280039158567
 271    0.0042219165618443
 272    -0.00034327321988631
 273    0.00014301592746787
 274    1.3146804808205e-05
 275    -0.0011773633255597
 276    -0.00075775016909651
 277    0.0025229329739178
 278    0.00010758262059003
 279    -9.3977164038165e-05
 280    -7.4699522685632e-05
 281    4.4706816630787e-05