[Molden Format]
made by pyscf v[2.0.1]
[Atoms] (AU)
C   1   6     0.69100024066471     0.64692934207205    -3.48223131169301
H   2   1     2.68052439830868     1.13355088658700    -3.25784032593313
C   3   6    -0.36286361513219     0.85440132524594    -5.97030179418974
H   4   1    -2.35448549047279     0.36322488579172    -6.17995817793143
C   5   6     0.93697958957450     1.61209284601821    -8.05828437677121
H   6   1    -0.10682308805726     2.30253989392639    -9.69373588628611
C   7   6     3.64263503193718     1.55467149193689    -8.23832629511906
H   8   1     4.66272936056768     0.85936926442728    -6.58433578959761
H   9   1     1.55630230933075    -1.92953025305990    12.99630010416247
C   10   6     0.75233899775814    -2.21270439606481    11.10705728102219
H   11   1    -0.43433408177274    -3.90944857546550    11.22216085340412
C   12   6     2.86362581178706    -2.63237380607947     9.17926416456045
H   13   1     4.39038949912609    -1.24955421540245     9.49899813497433
H   14   1     3.74629220191363    -4.48798724300892     9.47414880959024
C   15   6     2.02478325613682    -2.42177285709634     6.44560829588644
C   16   6     3.88048732735477    -3.58795445234514     4.61402886975252
C   17   6    -0.18412382258602    -1.30464291234259     5.76021113872346
C   18   6    -2.10044360464350    -0.26837831858460     7.71610340967100
C   19   6    -3.08956938670431     2.35282328359417     6.88693925039594
C   20   6    -4.37372924086464    -2.09766595989678     7.93610724222001
C   21   6    -0.83850430601230     0.06372213486173    10.33002307638377
H   22   1     0.38411922151109     1.74281358582432    10.27380136542181
H   23   1    -2.30980003007874     0.45460143924521    11.73986301809809
H   24   1     4.58527064644668    -5.38706904487420     5.36778158031719
H   25   1     5.54944938085014    -2.37631462192748     4.35398898413318
H   26   1     3.06633019150423    -3.94118377050688     2.75255466040884
H   27   1    -4.17727778763735     2.26573369139522     5.12914900961283
H   28   1    -1.52662344944051     3.68001877445626     6.59540397144508
H   29   1    -4.32916174397830     3.13643051467482     8.35225460090378
H   30   1    -5.32329548508442    -2.36691813602939     6.11583672749896
H   31   1    -5.77989366602257    -1.33896741843465     9.25748940450990
H   32   1    -3.79310905208926    -3.96389819310853     8.61386170102686
C   33   6    -1.01100794811226    -1.06331657314144     3.11929490449947
C   34   6     0.37686231036534    -0.33275864505552     1.09165013605873
H   35   1    -3.01671213906703    -1.40297922279997     2.77827895090944
C   36   6    -0.64382707979370    -0.11591880174385    -1.42063131251064
H   37   1     2.35569259782137     0.17174499283897     1.33641070251401
H   38   1    -2.63317482980319    -0.60229203511219    -1.66119700387645
C   39   6     5.01588399354044     2.28654094702299   -10.27677863573407
C   40   6     7.77080404832789     2.15450646451281   -10.27454889780196
H   41   1     4.11782812209845     2.99683739506263   -11.98462609656630
O   42   8     9.12060555425099     2.77825484064970   -12.03801083010553
H   43   1     8.60983853061047     1.41663292301779    -8.48800399433497
[GTO]
1 0
 s    6 1.00
             3047.5249  0.0018347001629433
             457.36951    0.01403730124668
             103.94869   0.068842606114048
             29.210155    0.23218442062076
              9.286663    0.46794134155879
              3.163927    0.36231203217765
 s    3 1.00
             7.8682724   -0.11933240861517
             1.8812885   -0.16085421161283
             0.5442493     1.1434564825515
 s    1 1.00
             0.1687144                   1
 p    3 1.00
             7.8682724   0.068999095584993
             1.8812885    0.31642397975315
             0.5442493    0.74430825237435
 p    1 1.00
             0.1687144                   1
 d    1 1.00
                   0.8                   1

2 0
 s    3 1.00
             18.731137    0.03349459952309
             2.8253937    0.23472694665786
             0.6401217    0.81375731841339
 s    1 1.00
             0.1612778                   1

3 0
 s    6 1.00
             3047.5249  0.0018347001629433
             457.36951    0.01403730124668
             103.94869   0.068842606114048
             29.210155    0.23218442062076
              9.286663    0.46794134155879
              3.163927    0.36231203217765
 s    3 1.00
             7.8682724   -0.11933240861517
             1.8812885   -0.16085421161283
             0.5442493     1.1434564825515
 s    1 1.00
             0.1687144                   1
 p    3 1.00
             7.8682724   0.068999095584993
             1.8812885    0.31642397975315
             0.5442493    0.74430825237435
 p    1 1.00
             0.1687144                   1
 d    1 1.00
                   0.8                   1

4 0
 s    3 1.00
             18.731137    0.03349459952309
             2.8253937    0.23472694665786
             0.6401217    0.81375731841339
 s    1 1.00
             0.1612778                   1

5 0
 s    6 1.00
             3047.5249  0.0018347001629433
             457.36951    0.01403730124668
             103.94869   0.068842606114048
             29.210155    0.23218442062076
              9.286663    0.46794134155879
              3.163927    0.36231203217765
 s    3 1.00
             7.8682724   -0.11933240861517
             1.8812885   -0.16085421161283
             0.5442493     1.1434564825515
 s    1 1.00
             0.1687144                   1
 p    3 1.00
             7.8682724   0.068999095584993
             1.8812885    0.31642397975315
             0.5442493    0.74430825237435
 p    1 1.00
             0.1687144                   1
 d    1 1.00
                   0.8                   1

6 0
 s    3 1.00
             18.731137    0.03349459952309
             2.8253937    0.23472694665786
             0.6401217    0.81375731841339
 s    1 1.00
             0.1612778                   1

7 0
 s    6 1.00
             3047.5249  0.0018347001629433
             457.36951    0.01403730124668
             103.94869   0.068842606114048
             29.210155    0.23218442062076
              9.286663    0.46794134155879
              3.163927    0.36231203217765
 s    3 1.00
             7.8682724   -0.11933240861517
             1.8812885   -0.16085421161283
             0.5442493     1.1434564825515
 s    1 1.00
             0.1687144                   1
 p    3 1.00
             7.8682724   0.068999095584993
             1.8812885    0.31642397975315
             0.5442493    0.74430825237435
 p    1 1.00
             0.1687144                   1
 d    1 1.00
                   0.8                   1

8 0
 s    3 1.00
             18.731137    0.03349459952309
             2.8253937    0.23472694665786
             0.6401217    0.81375731841339
 s    1 1.00
             0.1612778                   1

9 0
 s    3 1.00
             18.731137    0.03349459952309
             2.8253937    0.23472694665786
             0.6401217    0.81375731841339
 s    1 1.00
             0.1612778                   1

10 0
 s    6 1.00
             3047.5249  0.0018347001629433
             457.36951    0.01403730124668
             103.94869   0.068842606114048
             29.210155    0.23218442062076
              9.286663    0.46794134155879
              3.163927    0.36231203217765
 s    3 1.00
             7.8682724   -0.11933240861517
             1.8812885   -0.16085421161283
             0.5442493     1.1434564825515
 s    1 1.00
             0.1687144                   1
 p    3 1.00
             7.8682724   0.068999095584993
             1.8812885    0.31642397975315
             0.5442493    0.74430825237435
 p    1 1.00
             0.1687144                   1
 d    1 1.00
                   0.8                   1

11 0
 s    3 1.00
             18.731137    0.03349459952309
             2.8253937    0.23472694665786
             0.6401217    0.81375731841339
 s    1 1.00
             0.1612778                   1

12 0
 s    6 1.00
             3047.5249  0.0018347001629433
             457.36951    0.01403730124668
             103.94869   0.068842606114048
             29.210155    0.23218442062076
              9.286663    0.46794134155879
              3.163927    0.36231203217765
 s    3 1.00
             7.8682724   -0.11933240861517
             1.8812885   -0.16085421161283
             0.5442493     1.1434564825515
 s    1 1.00
             0.1687144                   1
 p    3 1.00
             7.8682724   0.068999095584993
             1.8812885    0.31642397975315
             0.5442493    0.74430825237435
 p    1 1.00
             0.1687144                   1
 d    1 1.00
                   0.8                   1

13 0
 s    3 1.00
             18.731137    0.03349459952309
             2.8253937    0.23472694665786
             0.6401217    0.81375731841339
 s    1 1.00
             0.1612778                   1

14 0
 s    3 1.00
             18.731137    0.03349459952309
             2.8253937    0.23472694665786
             0.6401217    0.81375731841339
 s    1 1.00
             0.1612778                   1

15 0
 s    6 1.00
             3047.5249  0.0018347001629433
             457.36951    0.01403730124668
             103.94869   0.068842606114048
             29.210155    0.23218442062076
              9.286663    0.46794134155879
              3.163927    0.36231203217765
 s    3 1.00
             7.8682724   -0.11933240861517
             1.8812885   -0.16085421161283
             0.5442493     1.1434564825515
 s    1 1.00
             0.1687144                   1
 p    3 1.00
             7.8682724   0.068999095584993
             1.8812885    0.31642397975315
             0.5442493    0.74430825237435
 p    1 1.00
             0.1687144                   1
 d    1 1.00
                   0.8                   1

16 0
 s    6 1.00
             3047.5249  0.0018347001629433
             457.36951    0.01403730124668
             103.94869   0.068842606114048
             29.210155    0.23218442062076
              9.286663    0.46794134155879
              3.163927    0.36231203217765
 s    3 1.00
             7.8682724   -0.11933240861517
             1.8812885   -0.16085421161283
             0.5442493     1.1434564825515
 s    1 1.00
             0.1687144                   1
 p    3 1.00
             7.8682724   0.068999095584993
             1.8812885    0.31642397975315
             0.5442493    0.74430825237435
 p    1 1.00
             0.1687144                   1
 d    1 1.00
                   0.8                   1

17 0
 s    6 1.00
             3047.5249  0.0018347001629433
             457.36951    0.01403730124668
             103.94869   0.068842606114048
             29.210155    0.23218442062076
              9.286663    0.46794134155879
              3.163927    0.36231203217765
 s    3 1.00
             7.8682724   -0.11933240861517
             1.8812885   -0.16085421161283
             0.5442493     1.1434564825515
 s    1 1.00
             0.1687144                   1
 p    3 1.00
             7.8682724   0.068999095584993
             1.8812885    0.31642397975315
             0.5442493    0.74430825237435
 p    1 1.00
             0.1687144                   1
 d    1 1.00
                   0.8                   1

18 0
 s    6 1.00
             3047.5249  0.0018347001629433
             457.36951    0.01403730124668
             103.94869   0.068842606114048
             29.210155    0.23218442062076
              9.286663    0.46794134155879
              3.163927    0.36231203217765
 s    3 1.00
             7.8682724   -0.11933240861517
             1.8812885   -0.16085421161283
             0.5442493     1.1434564825515
 s    1 1.00
             0.1687144                   1
 p    3 1.00
             7.8682724   0.068999095584993
             1.8812885    0.31642397975315
             0.5442493    0.74430825237435
 p    1 1.00
             0.1687144                   1
 d    1 1.00
                   0.8                   1

19 0
 s    6 1.00
             3047.5249  0.0018347001629433
             457.36951    0.01403730124668
             103.94869   0.068842606114048
             29.210155    0.23218442062076
              9.286663    0.46794134155879
              3.163927    0.36231203217765
 s    3 1.00
             7.8682724   -0.11933240861517
             1.8812885   -0.16085421161283
             0.5442493     1.1434564825515
 s    1 1.00
             0.1687144                   1
 p    3 1.00
             7.8682724   0.068999095584993
             1.8812885    0.31642397975315
             0.5442493    0.74430825237435
 p    1 1.00
             0.1687144                   1
 d    1 1.00
                   0.8                   1

20 0
 s    6 1.00
             3047.5249  0.0018347001629433
             457.36951    0.01403730124668
             103.94869   0.068842606114048
             29.210155    0.23218442062076
              9.286663    0.46794134155879
              3.163927    0.36231203217765
 s    3 1.00
             7.8682724   -0.11933240861517
             1.8812885   -0.16085421161283
             0.5442493     1.1434564825515
 s    1 1.00
             0.1687144                   1
 p    3 1.00
             7.8682724   0.068999095584993
             1.8812885    0.31642397975315
             0.5442493    0.74430825237435
 p    1 1.00
             0.1687144                   1
 d    1 1.00
                   0.8                   1

21 0
 s    6 1.00
             3047.5249  0.0018347001629433
             457.36951    0.01403730124668
             103.94869   0.068842606114048
             29.210155    0.23218442062076
              9.286663    0.46794134155879
              3.163927    0.36231203217765
 s    3 1.00
             7.8682724   -0.11933240861517
             1.8812885   -0.16085421161283
             0.5442493     1.1434564825515
 s    1 1.00
             0.1687144                   1
 p    3 1.00
             7.8682724   0.068999095584993
             1.8812885    0.31642397975315
             0.5442493    0.74430825237435
 p    1 1.00
             0.1687144                   1
 d    1 1.00
                   0.8                   1

22 0
 s    3 1.00
             18.731137    0.03349459952309
             2.8253937    0.23472694665786
             0.6401217    0.81375731841339
 s    1 1.00
             0.1612778                   1

23 0
 s    3 1.00
             18.731137    0.03349459952309
             2.8253937    0.23472694665786
             0.6401217    0.81375731841339
 s    1 1.00
             0.1612778                   1

24 0
 s    3 1.00
             18.731137    0.03349459952309
             2.8253937    0.23472694665786
             0.6401217    0.81375731841339
 s    1 1.00
             0.1612778                   1

25 0
 s    3 1.00
             18.731137    0.03349459952309
             2.8253937    0.23472694665786
             0.6401217    0.81375731841339
 s    1 1.00
             0.1612778                   1

26 0
 s    3 1.00
             18.731137    0.03349459952309
             2.8253937    0.23472694665786
             0.6401217    0.81375731841339
 s    1 1.00
             0.1612778                   1

27 0
 s    3 1.00
             18.731137    0.03349459952309
             2.8253937    0.23472694665786
             0.6401217    0.81375731841339
 s    1 1.00
             0.1612778                   1

28 0
 s    3 1.00
             18.731137    0.03349459952309
             2.8253937    0.23472694665786
             0.6401217    0.81375731841339
 s    1 1.00
             0.1612778                   1

29 0
 s    3 1.00
             18.731137    0.03349459952309
             2.8253937    0.23472694665786
             0.6401217    0.81375731841339
 s    1 1.00
             0.1612778                   1

30 0
 s    3 1.00
             18.731137    0.03349459952309
             2.8253937    0.23472694665786
             0.6401217    0.81375731841339
 s    1 1.00
             0.1612778                   1

31 0
 s    3 1.00
             18.731137    0.03349459952309
             2.8253937    0.23472694665786
             0.6401217    0.81375731841339
 s    1 1.00
             0.1612778                   1

32 0
 s    3 1.00
             18.731137    0.03349459952309
             2.8253937    0.23472694665786
             0.6401217    0.81375731841339
 s    1 1.00
             0.1612778                   1

33 0
 s    6 1.00
             3047.5249  0.0018347001629433
             457.36951    0.01403730124668
             103.94869   0.068842606114048
             29.210155    0.23218442062076
              9.286663    0.46794134155879
              3.163927    0.36231203217765
 s    3 1.00
             7.8682724   -0.11933240861517
             1.8812885   -0.16085421161283
             0.5442493     1.1434564825515
 s    1 1.00
             0.1687144                   1
 p    3 1.00
             7.8682724   0.068999095584993
             1.8812885    0.31642397975315
             0.5442493    0.74430825237435
 p    1 1.00
             0.1687144                   1
 d    1 1.00
                   0.8                   1

34 0
 s    6 1.00
             3047.5249  0.0018347001629433
             457.36951    0.01403730124668
             103.94869   0.068842606114048
             29.210155    0.23218442062076
              9.286663    0.46794134155879
              3.163927    0.36231203217765
 s    3 1.00
             7.8682724   -0.11933240861517
             1.8812885   -0.16085421161283
             0.5442493     1.1434564825515
 s    1 1.00
             0.1687144                   1
 p    3 1.00
             7.8682724   0.068999095584993
             1.8812885    0.31642397975315
             0.5442493    0.74430825237435
 p    1 1.00
             0.1687144                   1
 d    1 1.00
                   0.8                   1

35 0
 s    3 1.00
             18.731137    0.03349459952309
             2.8253937    0.23472694665786
             0.6401217    0.81375731841339
 s    1 1.00
             0.1612778                   1

36 0
 s    6 1.00
             3047.5249  0.0018347001629433
             457.36951    0.01403730124668
             103.94869   0.068842606114048
             29.210155    0.23218442062076
              9.286663    0.46794134155879
              3.163927    0.36231203217765
 s    3 1.00
             7.8682724   -0.11933240861517
             1.8812885   -0.16085421161283
             0.5442493     1.1434564825515
 s    1 1.00
             0.1687144                   1
 p    3 1.00
             7.8682724   0.068999095584993
             1.8812885    0.31642397975315
             0.5442493    0.74430825237435
 p    1 1.00
             0.1687144                   1
 d    1 1.00
                   0.8                   1

37 0
 s    3 1.00
             18.731137    0.03349459952309
             2.8253937    0.23472694665786
             0.6401217    0.81375731841339
 s    1 1.00
             0.1612778                   1

38 0
 s    3 1.00
             18.731137    0.03349459952309
             2.8253937    0.23472694665786
             0.6401217    0.81375731841339
 s    1 1.00
             0.1612778                   1

39 0
 s    6 1.00
             3047.5249  0.0018347001629433
             457.36951    0.01403730124668
             103.94869   0.068842606114048
             29.210155    0.23218442062076
              9.286663    0.46794134155879
              3.163927    0.36231203217765
 s    3 1.00
             7.8682724   -0.11933240861517
             1.8812885   -0.16085421161283
             0.5442493     1.1434564825515
 s    1 1.00
             0.1687144                   1
 p    3 1.00
             7.8682724   0.068999095584993
             1.8812885    0.31642397975315
             0.5442493    0.74430825237435
 p    1 1.00
             0.1687144                   1
 d    1 1.00
                   0.8                   1

40 0
 s    6 1.00
             3047.5249  0.0018347001629433
             457.36951    0.01403730124668
             103.94869   0.068842606114048
             29.210155    0.23218442062076
              9.286663    0.46794134155879
              3.163927    0.36231203217765
 s    3 1.00
             7.8682724   -0.11933240861517
             1.8812885   -0.16085421161283
             0.5442493     1.1434564825515
 s    1 1.00
             0.1687144                   1
 p    3 1.00
             7.8682724   0.068999095584993
             1.8812885    0.31642397975315
             0.5442493    0.74430825237435
 p    1 1.00
             0.1687144                   1
 d    1 1.00
                   0.8                   1

41 0
 s    3 1.00
             18.731137    0.03349459952309
             2.8253937    0.23472694665786
             0.6401217    0.81375731841339
 s    1 1.00
             0.1612778                   1

42 0
 s    6 1.00
             5484.6717   0.001831099805527
             825.23495   0.013950098518422
             188.04696    0.06844509273075
               52.9645    0.23271427528445
              16.89757    0.47019295006289
             5.7996353    0.35852086192309
 s    3 1.00
             15.539616   -0.11077750382508
             3.5999336   -0.14802630511126
             1.0137618     1.1307670390447
 s    1 1.00
             0.2700058                   1
 p    3 1.00
             15.539616   0.070874299543311
             3.5999336    0.33975279781076
             1.0137618    0.72715859531445
 p    1 1.00
             0.2700058                   1
 d    1 1.00
                   0.8                   1

43 0
 s    3 1.00
             18.731137    0.03349459952309
             2.8253937    0.23472694665786
             0.6401217    0.81375731841339
 s    1 1.00
             0.1612778                   1

[5d]
[7f]
[9g]

[MO]
 Sym= A
 Ene=               0
 Spin= Alpha
 Occup=    1.00000
   1    -0.0064806353733815
   2    -0.00032023727623982
   3    -0.00059097318977493
   4    -4.3099426173181e-05
   5    -8.7783319180518e-05
   6    0.00012629231095428
   7    0.0009858949171907
   8    0.00072886085410602
   9    -0.0011978946202162
  10    -6.9612588208356e-05
  11    9.3149523740571e-05
  12    2.6472584273918e-05
  13    1.6170723430136e-05
  14    -1.4847424700997e-05
  15    -9.7302888311134e-05
  16    -0.00084897624953982
  17    0.0066734611135533
  18    -9.9881254817265e-05
  19    0.00097773507245773
  20    -0.00016947069370929
  21    -1.5755602022115e-05
  22    0.00011595336240761
  23    -8.0120759933417e-07
  24    9.2036750993772e-05
  25    -0.00079319665589527
  26    9.1148768576575e-05
  27    7.6306151087612e-05
  28    -0.00011090020847901
  29    6.0249151341754e-05
  30    -5.5343886857633e-05
  31    -5.4042781062447e-05
  32    5.2477867047001e-05
  33     0.010867864648543
  34    -0.0012413714973333
  35    0.0075152296193336
  36    -0.0013661390188919
  37    1.5514342332066e-05
  38    0.00012553528018201
  39    0.0039724376170781
  40    0.00062060361429729
  41    -0.0020290413218371
  42    0.00074471940252124
  43    4.7251242908553e-05
  44    8.0882703052098e-06
  45    -0.0013199274621941
  46    9.5701832365664e-05
  47    -0.00047236216491755
  48    -0.00063546148717288
  49      0.99476440634628
  50     0.038535078890652
  51     -0.03032534684292
  52    -0.00011724247424425
  53    0.0002774626160956
  54    -0.00075218004254456
  55    0.0017393276526712
  56    -0.0011431326890384
  57    0.0027132659306252
  58    0.00011775755247943
  59    -0.00072720163518039
  60    -0.00033853771836198
  61    0.00062870640862539
  62    0.00022546316365441
  63    -0.0013776763466413
  64    0.0043789558210852
  65    -3.261266907921e-06
  66    -5.686015407017e-06
  67    -1.6792095192632e-07
  68    -6.0591316378962e-07
  69    1.9538816321247e-06
  70    4.2080737232853e-06
  71    -2.679322112725e-06
  72    -2.3387529250828e-06
  73    7.1199752862846e-06
  74    2.0995703778955e-06
  75    1.9683478631961e-06
  76    -5.2766219444933e-07
  77    -5.8657238410956e-07
  78    5.6621864355068e-07
  79    2.3864754406147e-07
  80    -5.26554531754e-07
  81    8.125666848916e-08
  82    -2.6396244468559e-07
  83    1.8849539268359e-06
  84    -3.3715663442252e-06
  85    -5.3867793088064e-05
  86    1.6377969125809e-06
  87    -6.2716972711582e-06
  88    1.3492268859577e-05
  89    1.3390442942455e-05
  90    -2.2707448703496e-05
  91    1.5583062847686e-05
  92    7.952915586975e-07
  93    -2.1081038632248e-06
  94    7.2659119379493e-07
  95    -4.7493822862727e-07
  96    -1.512768088794e-06
  97    -3.9946719654335e-06
  98    -6.1462847256493e-06
  99    6.3158219476136e-06
 100    6.2453996119217e-06
 101    -2.8891149604672e-06
 102    4.9375478339276e-07
 103    0.00011972631453644
 104    8.6538415076631e-06
 105    3.0471314765087e-05
 106    -1.2849589184331e-05
 107    -0.00010736151790374
 108    0.0001204570028207
 109    9.9509840260738e-05
 110    -2.7379687018421e-06
 111    -1.6950757977427e-06
 112    2.9481412514869e-07
 113    -4.9095819184069e-07
 114    -4.4252628908991e-06
 115    -1.0302979793234e-06
 116    -9.150803296606e-06
 117    0.00011536111706626
 118    -4.9657855348112e-06
 119    1.6424340397724e-06
 120    8.1561336430043e-06
 121    -2.1859576287189e-05
 122    7.4945489962133e-06
 123    4.8865023230144e-05
 124    -1.871325219387e-07
 125    -1.5835403908092e-06
 126    -1.5304988836336e-07
 127    -5.1060521180437e-07
 128    -2.8387615767527e-06
 129    2.8998440799629e-06
 130    -3.2201065082768e-05
 131    0.00016366815356905
 132    2.6961077743076e-05
 133    2.2280270534565e-05
 134    4.2623210964461e-05
 135    -0.00016709967960245
 136    2.8149637794583e-05
 137    -0.00030689839927902
 138    8.5747374382282e-06
 139    6.4916552507869e-06
 140    3.4611770852911e-06
 141    2.5741369619843e-06
 142    2.5723403551988e-06
 143    -3.1031810381236e-06
 144    -1.6197133355001e-05
 145    6.2597587008158e-05
 146    3.9997431238255e-06
 147    -4.4124519079972e-06
 148    -6.0476099105849e-06
 149    4.4780705195244e-05
 150    2.3728149920673e-06
 151    -3.8500783332769e-05
 152    -5.2066084014062e-06
 153    -2.4134883518827e-06
 154    -2.288777053553e-06
 155    3.4437625859136e-06
 156    -3.3976732251844e-06
 157    8.5882176852426e-07
 158    4.9885529975166e-06
 159    -2.0949683177831e-05
 160    1.4178723221327e-06
 161    1.7097532931822e-06
 162    -1.8021104077473e-06
 163    -3.1118914390563e-05
 164    1.0713198975385e-05
 165    4.6937547917327e-06
 166    2.2813381932577e-06
 167    -1.1565411105637e-06
 168    3.7206409713547e-07
 169    -2.087045053394e-07
 170    1.5665024620194e-06
 171    -3.6569923926916e-07
 172    2.0214780793308e-07
 173    6.5196458829299e-06
 174    3.0863679765126e-06
 175    8.5153163959119e-07
 176    8.5102703807779e-06
 177    5.9675145609153e-06
 178    1.135931683063e-05
 179    2.9025035410073e-06
 180    -3.5304219849796e-08
 181    1.4803796763557e-06
 182    3.0209657714641e-07
 183    -1.0910844284864e-06
 184    9.6461507298212e-07
 185    1.1815501995298e-07
 186    -1.896389127558e-05
 187    2.6247641428835e-05
 188    7.0271433348532e-07
 189    3.0276881165339e-07
 190    1.4871505880099e-05
 191    1.0069404185474e-05
 192    -1.1072297438858e-05
 193    -2.296607296413e-05
 194    1.4421159111254e-06
 195    -7.797055061487e-08
 196    2.0706783338528e-06
 197    2.076625511078e-07
 198    -3.2791975077729e-07
 199    -4.7439229460714e-06
 200    -8.4428701274774e-07
 201    4.0325192899961e-06
 202    2.1546453851838e-05
 203    1.1157140140481e-07
 204    -5.1887536074014e-07
 205    -1.9676842658777e-06
 206    -3.0270481796038e-05
 207    -1.0205836393003e-06
 208    1.1311480540535e-05
 209    4.3699091341114e-06
 210    -1.6155327153606e-05
 211    3.8712988325085e-06
 212    1.0019731456005e-05
 213    5.599882143713e-07
 214    -7.223330475694e-06
 215    -5.8639458373437e-06
 216    4.2879512582903e-06
 217    2.0799081410032e-06
 218    9.3852946342379e-07
 219    3.1872193118782e-06
 220    2.4551122688491e-06
 221    -1.1100121382642e-05
 222    -2.5025877441938e-05
 223    8.3616089086531e-05
 224    -2.6791613265944e-05
 225    -3.1597673376409e-05
 226    -2.773337166815e-05
 227    7.8621678643878e-05
 228    9.643690892954e-05
 229    -0.00051959246888144
 230    -2.9485589703934e-06
 231    -2.1599722262786e-05
 232    -5.9689064528896e-06
 233    1.3272798519435e-05
 234    8.9841608219852e-06
 235    1.3954102581517e-05
 236    2.480067570143e-06
 237    -0.00036072709740693
 238    1.6954517460692e-05
 239    -5.1584753178323e-05
 240    2.808507203833e-05
 241    -6.1517642572979e-05
 242    2.047777298018e-05
 243    -0.00024682212286797
 244    -1.4051381186277e-05
 245    1.7575746469288e-05
 246    4.879333470178e-06
 247    3.4665210436814e-06
 248    -5.3635521147633e-06
 249    9.8395448078851e-06
 250    7.5132283347592e-05
 251    -1.0819905738607e-05
 252    -0.00029605213549181
 253    0.0015122492003843
 254    0.00018261055152252
 255    3.3074275660954e-05
 256    -2.0824722180815e-05
 257    0.00065788786939588
 258    0.00024750743923004
 259    -0.0010288416002821
 260    5.249792305318e-05
 261    -6.5388678912119e-05
 262    -3.2787209187914e-05
 263    1.946279023657e-05
 264    1.4022315307452e-05
 265    -3.182646400375e-05
 266    0.00018136350594986
 267    -0.00018740016854094
 268    -4.151263637996e-05
 269    -0.00090837191502271
 270    -0.0033923554890801
 271    0.0084404493115119
 272     0.001238808805916
 273    0.00022604439010113
 274    -0.0006919038343326
 275    -0.0031395018938461
 276    -0.000732634516959
 277    0.0022911667637171
 278    -0.00083339509797448
 279    0.00099470666683785
 280    0.00071579893911471
 281    -0.00023949143861972