[Molden Format]
made by pyscf v[2.0.1]
[Atoms] (AU)
C   1   6     0.69100024066471     0.64692934207205    -3.48223131169301
H   2   1     2.68052439830868     1.13355088658700    -3.25784032593313
C   3   6    -0.36286361513219     0.85440132524594    -5.97030179418974
H   4   1    -2.35448549047279     0.36322488579172    -6.17995817793143
C   5   6     0.93697958957450     1.61209284601821    -8.05828437677121
H   6   1     1.11826626333964     3.62551264984471    -8.45099117670825
C   7   6     2.10097243920823    -0.10888483292738    -9.80174075747215
H   8   1     1.90436861547379    -2.12023320363586    -9.38275759847606
H   9   1     1.55630230933075    -1.92953025305990    12.99630010416247
C   10   6     0.75233899775814    -2.21270439606481    11.10705728102219
H   11   1    -0.43433408177274    -3.90944857546550    11.22216085340412
C   12   6     2.86362581178706    -2.63237380607947     9.17926416456045
H   13   1     4.39038949912609    -1.24955421540245     9.49899813497433
H   14   1     3.74629220191363    -4.48798724300892     9.47414880959024
C   15   6     2.02478325613682    -2.42177285709634     6.44560829588644
C   16   6     3.88048732735477    -3.58795445234514     4.61402886975252
C   17   6    -0.18412382258602    -1.30464291234259     5.76021113872346
C   18   6    -2.10044360464350    -0.26837831858460     7.71610340967100
C   19   6    -3.08956938670431     2.35282328359417     6.88693925039594
C   20   6    -4.37372924086464    -2.09766595989678     7.93610724222001
C   21   6    -0.83850430601230     0.06372213486173    10.33002307638377
H   22   1     0.38411922151109     1.74281358582432    10.27380136542181
H   23   1    -2.30980003007874     0.45460143924521    11.73986301809809
H   24   1     4.58527064644668    -5.38706904487420     5.36778158031719
H   25   1     5.54944938085014    -2.37631462192748     4.35398898413318
H   26   1     3.06633019150423    -3.94118377050688     2.75255466040884
H   27   1    -4.17727778763735     2.26573369139522     5.12914900961283
H   28   1    -1.52662344944051     3.68001877445626     6.59540397144508
H   29   1    -4.32916174397830     3.13643051467482     8.35225460090378
H   30   1    -5.32329548508442    -2.36691813602939     6.11583672749896
H   31   1    -5.77989366602257    -1.33896741843465     9.25748940450990
H   32   1    -3.79310905208926    -3.96389819310853     8.61386170102686
C   33   6    -1.01100794811226    -1.06331657314144     3.11929490449947
C   34   6     0.37686231036534    -0.33275864505552     1.09165013605873
H   35   1    -3.01671213906703    -1.40297922279997     2.77827895090944
C   36   6    -0.64382707979370    -0.11591880174385    -1.42063131251064
H   37   1     2.35569259782137     0.17174499283897     1.33641070251401
H   38   1    -2.63317482980319    -0.60229203511219    -1.66119700387645
C   39   6     3.40965399787931     0.55809653308114   -11.90393532262733
C   40   6     4.52549279160481    -1.34135539088305   -13.56345596406470
H   41   1     3.67536210453709     2.52791097593625   -12.43024189111277
O   42   8     5.72170846290986    -0.87635365493868   -15.48013684009233
H   43   1     4.20717735374393    -3.33265649371778   -12.95224886476863
[GTO]
1 0
 s    6 1.00
             3047.5249  0.0018347001629433
             457.36951    0.01403730124668
             103.94869   0.068842606114048
             29.210155    0.23218442062076
              9.286663    0.46794134155879
              3.163927    0.36231203217765
 s    3 1.00
             7.8682724   -0.11933240861517
             1.8812885   -0.16085421161283
             0.5442493     1.1434564825515
 s    1 1.00
             0.1687144                   1
 p    3 1.00
             7.8682724   0.068999095584993
             1.8812885    0.31642397975315
             0.5442493    0.74430825237435
 p    1 1.00
             0.1687144                   1
 d    1 1.00
                   0.8                   1

2 0
 s    3 1.00
             18.731137    0.03349459952309
             2.8253937    0.23472694665786
             0.6401217    0.81375731841339
 s    1 1.00
             0.1612778                   1

3 0
 s    6 1.00
             3047.5249  0.0018347001629433
             457.36951    0.01403730124668
             103.94869   0.068842606114048
             29.210155    0.23218442062076
              9.286663    0.46794134155879
              3.163927    0.36231203217765
 s    3 1.00
             7.8682724   -0.11933240861517
             1.8812885   -0.16085421161283
             0.5442493     1.1434564825515
 s    1 1.00
             0.1687144                   1
 p    3 1.00
             7.8682724   0.068999095584993
             1.8812885    0.31642397975315
             0.5442493    0.74430825237435
 p    1 1.00
             0.1687144                   1
 d    1 1.00
                   0.8                   1

4 0
 s    3 1.00
             18.731137    0.03349459952309
             2.8253937    0.23472694665786
             0.6401217    0.81375731841339
 s    1 1.00
             0.1612778                   1

5 0
 s    6 1.00
             3047.5249  0.0018347001629433
             457.36951    0.01403730124668
             103.94869   0.068842606114048
             29.210155    0.23218442062076
              9.286663    0.46794134155879
              3.163927    0.36231203217765
 s    3 1.00
             7.8682724   -0.11933240861517
             1.8812885   -0.16085421161283
             0.5442493     1.1434564825515
 s    1 1.00
             0.1687144                   1
 p    3 1.00
             7.8682724   0.068999095584993
             1.8812885    0.31642397975315
             0.5442493    0.74430825237435
 p    1 1.00
             0.1687144                   1
 d    1 1.00
                   0.8                   1

6 0
 s    3 1.00
             18.731137    0.03349459952309
             2.8253937    0.23472694665786
             0.6401217    0.81375731841339
 s    1 1.00
             0.1612778                   1

7 0
 s    6 1.00
             3047.5249  0.0018347001629433
             457.36951    0.01403730124668
             103.94869   0.068842606114048
             29.210155    0.23218442062076
              9.286663    0.46794134155879
              3.163927    0.36231203217765
 s    3 1.00
             7.8682724   -0.11933240861517
             1.8812885   -0.16085421161283
             0.5442493     1.1434564825515
 s    1 1.00
             0.1687144                   1
 p    3 1.00
             7.8682724   0.068999095584993
             1.8812885    0.31642397975315
             0.5442493    0.74430825237435
 p    1 1.00
             0.1687144                   1
 d    1 1.00
                   0.8                   1

8 0
 s    3 1.00
             18.731137    0.03349459952309
             2.8253937    0.23472694665786
             0.6401217    0.81375731841339
 s    1 1.00
             0.1612778                   1

9 0
 s    3 1.00
             18.731137    0.03349459952309
             2.8253937    0.23472694665786
             0.6401217    0.81375731841339
 s    1 1.00
             0.1612778                   1

10 0
 s    6 1.00
             3047.5249  0.0018347001629433
             457.36951    0.01403730124668
             103.94869   0.068842606114048
             29.210155    0.23218442062076
              9.286663    0.46794134155879
              3.163927    0.36231203217765
 s    3 1.00
             7.8682724   -0.11933240861517
             1.8812885   -0.16085421161283
             0.5442493     1.1434564825515
 s    1 1.00
             0.1687144                   1
 p    3 1.00
             7.8682724   0.068999095584993
             1.8812885    0.31642397975315
             0.5442493    0.74430825237435
 p    1 1.00
             0.1687144                   1
 d    1 1.00
                   0.8                   1

11 0
 s    3 1.00
             18.731137    0.03349459952309
             2.8253937    0.23472694665786
             0.6401217    0.81375731841339
 s    1 1.00
             0.1612778                   1

12 0
 s    6 1.00
             3047.5249  0.0018347001629433
             457.36951    0.01403730124668
             103.94869   0.068842606114048
             29.210155    0.23218442062076
              9.286663    0.46794134155879
              3.163927    0.36231203217765
 s    3 1.00
             7.8682724   -0.11933240861517
             1.8812885   -0.16085421161283
             0.5442493     1.1434564825515
 s    1 1.00
             0.1687144                   1
 p    3 1.00
             7.8682724   0.068999095584993
             1.8812885    0.31642397975315
             0.5442493    0.74430825237435
 p    1 1.00
             0.1687144                   1
 d    1 1.00
                   0.8                   1

13 0
 s    3 1.00
             18.731137    0.03349459952309
             2.8253937    0.23472694665786
             0.6401217    0.81375731841339
 s    1 1.00
             0.1612778                   1

14 0
 s    3 1.00
             18.731137    0.03349459952309
             2.8253937    0.23472694665786
             0.6401217    0.81375731841339
 s    1 1.00
             0.1612778                   1

15 0
 s    6 1.00
             3047.5249  0.0018347001629433
             457.36951    0.01403730124668
             103.94869   0.068842606114048
             29.210155    0.23218442062076
              9.286663    0.46794134155879
              3.163927    0.36231203217765
 s    3 1.00
             7.8682724   -0.11933240861517
             1.8812885   -0.16085421161283
             0.5442493     1.1434564825515
 s    1 1.00
             0.1687144                   1
 p    3 1.00
             7.8682724   0.068999095584993
             1.8812885    0.31642397975315
             0.5442493    0.74430825237435
 p    1 1.00
             0.1687144                   1
 d    1 1.00
                   0.8                   1

16 0
 s    6 1.00
             3047.5249  0.0018347001629433
             457.36951    0.01403730124668
             103.94869   0.068842606114048
             29.210155    0.23218442062076
              9.286663    0.46794134155879
              3.163927    0.36231203217765
 s    3 1.00
             7.8682724   -0.11933240861517
             1.8812885   -0.16085421161283
             0.5442493     1.1434564825515
 s    1 1.00
             0.1687144                   1
 p    3 1.00
             7.8682724   0.068999095584993
             1.8812885    0.31642397975315
             0.5442493    0.74430825237435
 p    1 1.00
             0.1687144                   1
 d    1 1.00
                   0.8                   1

17 0
 s    6 1.00
             3047.5249  0.0018347001629433
             457.36951    0.01403730124668
             103.94869   0.068842606114048
             29.210155    0.23218442062076
              9.286663    0.46794134155879
              3.163927    0.36231203217765
 s    3 1.00
             7.8682724   -0.11933240861517
             1.8812885   -0.16085421161283
             0.5442493     1.1434564825515
 s    1 1.00
             0.1687144                   1
 p    3 1.00
             7.8682724   0.068999095584993
             1.8812885    0.31642397975315
             0.5442493    0.74430825237435
 p    1 1.00
             0.1687144                   1
 d    1 1.00
                   0.8                   1

18 0
 s    6 1.00
             3047.5249  0.0018347001629433
             457.36951    0.01403730124668
             103.94869   0.068842606114048
             29.210155    0.23218442062076
              9.286663    0.46794134155879
              3.163927    0.36231203217765
 s    3 1.00
             7.8682724   -0.11933240861517
             1.8812885   -0.16085421161283
             0.5442493     1.1434564825515
 s    1 1.00
             0.1687144                   1
 p    3 1.00
             7.8682724   0.068999095584993
             1.8812885    0.31642397975315
             0.5442493    0.74430825237435
 p    1 1.00
             0.1687144                   1
 d    1 1.00
                   0.8                   1

19 0
 s    6 1.00
             3047.5249  0.0018347001629433
             457.36951    0.01403730124668
             103.94869   0.068842606114048
             29.210155    0.23218442062076
              9.286663    0.46794134155879
              3.163927    0.36231203217765
 s    3 1.00
             7.8682724   -0.11933240861517
             1.8812885   -0.16085421161283
             0.5442493     1.1434564825515
 s    1 1.00
             0.1687144                   1
 p    3 1.00
             7.8682724   0.068999095584993
             1.8812885    0.31642397975315
             0.5442493    0.74430825237435
 p    1 1.00
             0.1687144                   1
 d    1 1.00
                   0.8                   1

20 0
 s    6 1.00
             3047.5249  0.0018347001629433
             457.36951    0.01403730124668
             103.94869   0.068842606114048
             29.210155    0.23218442062076
              9.286663    0.46794134155879
              3.163927    0.36231203217765
 s    3 1.00
             7.8682724   -0.11933240861517
             1.8812885   -0.16085421161283
             0.5442493     1.1434564825515
 s    1 1.00
             0.1687144                   1
 p    3 1.00
             7.8682724   0.068999095584993
             1.8812885    0.31642397975315
             0.5442493    0.74430825237435
 p    1 1.00
             0.1687144                   1
 d    1 1.00
                   0.8                   1

21 0
 s    6 1.00
             3047.5249  0.0018347001629433
             457.36951    0.01403730124668
             103.94869   0.068842606114048
             29.210155    0.23218442062076
              9.286663    0.46794134155879
              3.163927    0.36231203217765
 s    3 1.00
             7.8682724   -0.11933240861517
             1.8812885   -0.16085421161283
             0.5442493     1.1434564825515
 s    1 1.00
             0.1687144                   1
 p    3 1.00
             7.8682724   0.068999095584993
             1.8812885    0.31642397975315
             0.5442493    0.74430825237435
 p    1 1.00
             0.1687144                   1
 d    1 1.00
                   0.8                   1

22 0
 s    3 1.00
             18.731137    0.03349459952309
             2.8253937    0.23472694665786
             0.6401217    0.81375731841339
 s    1 1.00
             0.1612778                   1

23 0
 s    3 1.00
             18.731137    0.03349459952309
             2.8253937    0.23472694665786
             0.6401217    0.81375731841339
 s    1 1.00
             0.1612778                   1

24 0
 s    3 1.00
             18.731137    0.03349459952309
             2.8253937    0.23472694665786
             0.6401217    0.81375731841339
 s    1 1.00
             0.1612778                   1

25 0
 s    3 1.00
             18.731137    0.03349459952309
             2.8253937    0.23472694665786
             0.6401217    0.81375731841339
 s    1 1.00
             0.1612778                   1

26 0
 s    3 1.00
             18.731137    0.03349459952309
             2.8253937    0.23472694665786
             0.6401217    0.81375731841339
 s    1 1.00
             0.1612778                   1

27 0
 s    3 1.00
             18.731137    0.03349459952309
             2.8253937    0.23472694665786
             0.6401217    0.81375731841339
 s    1 1.00
             0.1612778                   1

28 0
 s    3 1.00
             18.731137    0.03349459952309
             2.8253937    0.23472694665786
             0.6401217    0.81375731841339
 s    1 1.00
             0.1612778                   1

29 0
 s    3 1.00
             18.731137    0.03349459952309
             2.8253937    0.23472694665786
             0.6401217    0.81375731841339
 s    1 1.00
             0.1612778                   1

30 0
 s    3 1.00
             18.731137    0.03349459952309
             2.8253937    0.23472694665786
             0.6401217    0.81375731841339
 s    1 1.00
             0.1612778                   1

31 0
 s    3 1.00
             18.731137    0.03349459952309
             2.8253937    0.23472694665786
             0.6401217    0.81375731841339
 s    1 1.00
             0.1612778                   1

32 0
 s    3 1.00
             18.731137    0.03349459952309
             2.8253937    0.23472694665786
             0.6401217    0.81375731841339
 s    1 1.00
             0.1612778                   1

33 0
 s    6 1.00
             3047.5249  0.0018347001629433
             457.36951    0.01403730124668
             103.94869   0.068842606114048
             29.210155    0.23218442062076
              9.286663    0.46794134155879
              3.163927    0.36231203217765
 s    3 1.00
             7.8682724   -0.11933240861517
             1.8812885   -0.16085421161283
             0.5442493     1.1434564825515
 s    1 1.00
             0.1687144                   1
 p    3 1.00
             7.8682724   0.068999095584993
             1.8812885    0.31642397975315
             0.5442493    0.74430825237435
 p    1 1.00
             0.1687144                   1
 d    1 1.00
                   0.8                   1

34 0
 s    6 1.00
             3047.5249  0.0018347001629433
             457.36951    0.01403730124668
             103.94869   0.068842606114048
             29.210155    0.23218442062076
              9.286663    0.46794134155879
              3.163927    0.36231203217765
 s    3 1.00
             7.8682724   -0.11933240861517
             1.8812885   -0.16085421161283
             0.5442493     1.1434564825515
 s    1 1.00
             0.1687144                   1
 p    3 1.00
             7.8682724   0.068999095584993
             1.8812885    0.31642397975315
             0.5442493    0.74430825237435
 p    1 1.00
             0.1687144                   1
 d    1 1.00
                   0.8                   1

35 0
 s    3 1.00
             18.731137    0.03349459952309
             2.8253937    0.23472694665786
             0.6401217    0.81375731841339
 s    1 1.00
             0.1612778                   1

36 0
 s    6 1.00
             3047.5249  0.0018347001629433
             457.36951    0.01403730124668
             103.94869   0.068842606114048
             29.210155    0.23218442062076
              9.286663    0.46794134155879
              3.163927    0.36231203217765
 s    3 1.00
             7.8682724   -0.11933240861517
             1.8812885   -0.16085421161283
             0.5442493     1.1434564825515
 s    1 1.00
             0.1687144                   1
 p    3 1.00
             7.8682724   0.068999095584993
             1.8812885    0.31642397975315
             0.5442493    0.74430825237435
 p    1 1.00
             0.1687144                   1
 d    1 1.00
                   0.8                   1

37 0
 s    3 1.00
             18.731137    0.03349459952309
             2.8253937    0.23472694665786
             0.6401217    0.81375731841339
 s    1 1.00
             0.1612778                   1

38 0
 s    3 1.00
             18.731137    0.03349459952309
             2.8253937    0.23472694665786
             0.6401217    0.81375731841339
 s    1 1.00
             0.1612778                   1

39 0
 s    6 1.00
             3047.5249  0.0018347001629433
             457.36951    0.01403730124668
             103.94869   0.068842606114048
             29.210155    0.23218442062076
              9.286663    0.46794134155879
              3.163927    0.36231203217765
 s    3 1.00
             7.8682724   -0.11933240861517
             1.8812885   -0.16085421161283
             0.5442493     1.1434564825515
 s    1 1.00
             0.1687144                   1
 p    3 1.00
             7.8682724   0.068999095584993
             1.8812885    0.31642397975315
             0.5442493    0.74430825237435
 p    1 1.00
             0.1687144                   1
 d    1 1.00
                   0.8                   1

40 0
 s    6 1.00
             3047.5249  0.0018347001629433
             457.36951    0.01403730124668
             103.94869   0.068842606114048
             29.210155    0.23218442062076
              9.286663    0.46794134155879
              3.163927    0.36231203217765
 s    3 1.00
             7.8682724   -0.11933240861517
             1.8812885   -0.16085421161283
             0.5442493     1.1434564825515
 s    1 1.00
             0.1687144                   1
 p    3 1.00
             7.8682724   0.068999095584993
             1.8812885    0.31642397975315
             0.5442493    0.74430825237435
 p    1 1.00
             0.1687144                   1
 d    1 1.00
                   0.8                   1

41 0
 s    3 1.00
             18.731137    0.03349459952309
             2.8253937    0.23472694665786
             0.6401217    0.81375731841339
 s    1 1.00
             0.1612778                   1

42 0
 s    6 1.00
             5484.6717   0.001831099805527
             825.23495   0.013950098518422
             188.04696    0.06844509273075
               52.9645    0.23271427528445
              16.89757    0.47019295006289
             5.7996353    0.35852086192309
 s    3 1.00
             15.539616   -0.11077750382508
             3.5999336   -0.14802630511126
             1.0137618     1.1307670390447
 s    1 1.00
             0.2700058                   1
 p    3 1.00
             15.539616   0.070874299543311
             3.5999336    0.33975279781076
             1.0137618    0.72715859531445
 p    1 1.00
             0.2700058                   1
 d    1 1.00
                   0.8                   1

43 0
 s    3 1.00
             18.731137    0.03349459952309
             2.8253937    0.23472694665786
             0.6401217    0.81375731841339
 s    1 1.00
             0.1612778                   1

[5d]
[7f]
[9g]

[MO]
 Sym= A
 Ene=               0
 Spin= Alpha
 Occup=    1.00000
   1    -0.012140413220259
   2    0.0013391421623736
   3    -0.0078952263557863
   4    -0.00047783204108237
   5    0.00013320938969472
   6    -0.0013814134707591
   7    -0.00087047239633626
   8    -0.0012878400834562
   9    0.0059557776357049
  10    0.00098243379623546
  11    0.00094872304184072
  12    -0.00016109850156348
  13    0.00022904775548259
  14    -4.3833792459331e-05
  15    0.00057558352022179
  16    0.0010949210287562
  17     -0.99475948661785
  18    -0.039366777697083
  19     0.031279114991619
  20    -0.0010419895647076
  21    -0.00018455783528253
  22    0.00061521757333514
  23    0.0039314685099301
  24    0.0011436139652065
  25    0.00086127364264911
  26    -0.00081279251753493
  27    0.00031449497356338
  28    0.00036248379052329
  29    -0.00028511185797969
  30    -0.00017512771747638
  31    0.0012920168888155
  32    -0.0042106326602748
  33     -0.01331136828636
  34    0.00039009938994904
  35    -0.0011244870003194
  36    -0.00096137627696247
  37    -0.00038609719791676
  38    0.0013138553837395
  39    0.0023403444985722
  40    -0.0038222046761225
  41    -0.0046737196627434
  42    0.00069473393274521
  43    -0.0013152590242989
  44    -0.00051448563203697
  45    0.00037784541784993
  46    0.00043521936966944
  47    0.00060532176702992
  48    0.00064542972046649
  49    -0.00010767831402879
  50    0.00058619393327493
  51    -0.00036795396467488
  52    -0.00024715731831213
  53    -4.04629758101e-05
  54    0.00045526027292659
  55    0.0049372025530185
  56    -0.0012826782258868
  57    -0.0077534673644278
  58    0.00015880516691017
  59    6.7937718140022e-06
  60    -0.00019228978543724
  61    0.00028027202489413
  62    0.0001649772041633
  63    0.00050247995711496
  64    -0.00033463749811699
  65    2.0458953096589e-06
  66    5.057421295011e-07
  67    1.8026691384612e-07
  68    3.2468297352538e-06
  69    -7.9329934675717e-06
  70    9.2535623428107e-06
  71    -2.8685631903341e-06
  72    -5.0591363123773e-06
  73    -6.5245384569641e-06
  74    -3.7113086445317e-05
  75    -8.3652973666291e-06
  76    4.4440628232997e-07
  77    -3.4323582917495e-07
  78    1.5467475463034e-07
  79    -9.4516688744534e-07
  80    -3.0875435541509e-07
  81    -3.94938226173e-06
  82    -1.9063779848536e-05
  83    -3.0595727917926e-06
  84    1.2333658336613e-06
  85    7.9908514764907e-05
  86    -2.6093964264749e-05
  87    -7.38708024978e-06
  88    -1.7186372017795e-05
  89    -3.9026935091848e-05
  90    7.2597200010329e-05
  91    -1.6773882880224e-05
  92    -3.4022318949181e-08
  93    1.1016917599437e-06
  94    -5.0818135537008e-06
  95    3.8212800750605e-07
  96    1.0804036048741e-07
  97    -2.4797784353547e-05
  98    -3.5304732277338e-05
  99    1.5910292568699e-06
 100    2.1493315173539e-05
 101    1.5557936716909e-05
 102    -9.3692926868745e-06
 103    -0.00032685672704983
 104    6.6056824393334e-05
 105    2.6633759639203e-05
 106    2.8880927475423e-05
 107    0.00023008778409074
 108    -0.00018147296682585
 109    -0.00011822332906264
 110    6.6723630855873e-06
 111    -1.6930960966585e-06
 112    -1.6399811851112e-07
 113    -3.4637747260688e-06
 114    4.8692482031464e-06
 115    5.8423809129321e-06
 116    2.7440071143625e-05
 117    -0.00025571126316667
 118    2.805922162353e-07
 119    -1.1972514650496e-05
 120    2.2069785017332e-05
 121    3.935561262514e-05
 122    1.0422769253264e-05
 123    -2.7808124241973e-06
 124    -1.3130596889231e-06
 125    4.0091418607098e-06
 126    2.1934906649608e-06
 127    -2.7557858375235e-06
 128    4.5325708222568e-07
 129    1.7088898301474e-05
 130    2.5298864328931e-05
 131    -0.00017170446972212
 132    -1.790782516256e-05
 133    6.5447059036596e-05
 134    6.5804996846398e-06
 135    0.00041906222343476
 136    -2.1441598368337e-05
 137    0.00041092170151268
 138    -4.8534466433483e-06
 139    -2.1592552694091e-05
 140    -4.550478011436e-06
 141    -4.7505705507975e-06
 142    -4.5728260896787e-06
 143    -7.0050210863932e-06
 144    4.0825580287816e-05
 145    4.5908334919043e-05
 146    2.0663922623183e-05
 147    -3.5513161509457e-05
 148    -5.4174292013473e-05
 149    2.4213729729385e-05
 150    -2.742152167644e-05
 151    4.689342663172e-05
 152    6.330763926109e-06
 153    2.822194744443e-06
 154    3.4467554653238e-06
 155    -2.9960166064355e-06
 156    4.7751606380723e-06
 157    -2.0149246457335e-06
 158    -1.3967757517338e-05
 159    4.9436412021769e-05
 160    -1.9356524300343e-05
 161    1.0388705886027e-05
 162    -1.8187558211691e-05
 163    3.7511305373787e-05
 164    -1.9153846158964e-05
 165    -2.21100445911e-05
 166    -5.4872469863837e-06
 167    1.1104141412239e-06
 168    7.1396560999946e-07
 169    -5.9901885027687e-07
 170    -2.6233114546066e-06
 171    -2.5461561212941e-06
 172    1.7776046705728e-05
 173    -8.4503345925053e-06
 174    9.0758362962984e-06
 175    3.1037574096404e-06
 176    -3.2321500115808e-05
 177    -2.6457059261976e-06
 178    2.9490677857641e-06
 179    1.5009719029004e-05
 180    -1.5622264467884e-06
 181    -5.217169677675e-06
 182    -1.2794079573695e-06
 183    2.1780309277437e-06
 184    -1.3520050280089e-06
 185    6.4592853114286e-06
 186    2.6809904862635e-05
 187    -0.00011534458949949
 188    1.5045159705685e-06
 189    8.3740287428089e-06
 190    1.7583842772366e-05
 191    9.6457898038937e-06
 192    2.0426505453698e-05
 193    9.8217798929737e-05
 194    -2.8959459089311e-06
 195    -4.1302189685114e-06
 196    -1.6722089996719e-06
 197    5.4520580726782e-07
 198    -5.9772362725513e-07
 199    8.7026311037396e-06
 200    6.4574137528283e-08
 201    1.8254881769646e-05
 202    3.8561948401164e-06
 203    2.5996723554898e-05
 204    3.6072493805579e-05
 205    -1.4825551245808e-05
 206    9.7619775771059e-06
 207    -1.7002005208818e-05
 208     8.99153202273e-05
 209    -2.3472544408518e-06
 210    2.343184308485e-05
 211    -7.1295066257769e-06
 212    -2.0080864209073e-05
 213    7.8126308031868e-07
 214    2.4189177268971e-05
 215    1.0983364746764e-05
 216    2.3242418031629e-05
 217    -6.876230897947e-06
 218    -1.1354068765921e-05
 219    -5.665218670313e-06
 220    -7.0808050660627e-06
 221    -1.2037465432146e-05
 222    6.8642188611783e-05
 223    -0.0010268252516531
 224    0.00022773888485734
 225    -4.7675171572712e-05
 226    -7.0002665421675e-05
 227    -0.00061274563452387
 228    -0.00037455574812759
 229    0.00095141183230003
 230    -8.6862671070789e-06
 231    4.1025152218343e-05
 232    3.1543219882905e-05
 233    -2.2119694846289e-05
 234    -2.43683451393e-05
 235    0.00021498450681375
 236    -0.00028451606751541
 237    -4.806988789122e-05
 238    0.0001334476112549
 239    -0.00020160143346996
 240    0.00047228186679959
 241    -0.00029184332782473
 242    -0.00048212110014907
 243    0.0018301771771505
 244    -2.2364623166446e-05
 245    -7.3358612199656e-05
 246    -1.3180516701747e-05
 247    -2.2653784868383e-05
 248    2.6418619601866e-06
 249    -6.1029498482077e-05
 250    -0.00036627027465107
 251    -0.00016070541180097
 252    0.0003359423979398
 253    -0.0020797744990859
 254    -0.00067770668489056
 255    -7.9730691057995e-05
 256    -0.00070079436154044
 257    -0.00010707988104627
 258    -0.00047183138430946
 259    0.0016726736208875
 260    4.5622711646022e-05
 261    1.9120875158279e-05
 262    1.9677010467516e-05
 263    -0.0001358705676636
 264    -8.8023158928391e-05
 265    7.5064751442605e-05
 266    -0.00013225942424897
 267    0.00052886170829165
 268    0.00090028224134088
 269    0.00013181200060125
 270    0.00062739052572677
 271    -0.0069683993111051
 272    0.00010072027069509
 273    -0.00026225318474639
 274    -0.00022890043350685
 275    0.0018083674597921
 276    0.0028793633496639
 277    -0.0028507503056663
 278    -8.0468577820625e-05
 279    0.00018988171661553
 280    9.8388341290433e-05
 281    3.6332351704837e-05