[Molden Format]
made by pyscf v[2.0.1]
[Atoms] (AU)
C   1   6     0.69100024066471     0.64692934207205    -3.48223131169301
H   2   1     2.68052439830868     1.13355088658700    -3.25784032593313
C   3   6    -0.36286361513219     0.85440132524594    -5.97030179418974
H   4   1    -2.35448549047279     0.36322488579172    -6.17995817793143
C   5   6     0.93697958957450     1.61209284601821    -8.05828437677121
H   6   1    -0.04002876534153     1.70579051152009    -9.86870372539436
C   7   6     3.55882871340184     2.30532870411993    -8.01809862923490
H   8   1     4.51217335653741     2.20318273111775    -6.19041637810672
H   9   1     1.55630230933075    -1.92953025305990    12.99630010416247
C   10   6     0.75233899775814    -2.21270439606481    11.10705728102219
H   11   1    -0.43433408177274    -3.90944857546550    11.22216085340412
C   12   6     2.86362581178706    -2.63237380607947     9.17926416456045
H   13   1     4.39038949912609    -1.24955421540245     9.49899813497433
H   14   1     3.74629220191363    -4.48798724300892     9.47414880959024
C   15   6     2.02478325613682    -2.42177285709634     6.44560829588644
C   16   6     3.88048732735477    -3.58795445234514     4.61402886975252
C   17   6    -0.18412382258602    -1.30464291234259     5.76021113872346
C   18   6    -2.10044360464350    -0.26837831858460     7.71610340967100
C   19   6    -3.08956938670431     2.35282328359417     6.88693925039594
C   20   6    -4.37372924086464    -2.09766595989678     7.93610724222001
C   21   6    -0.83850430601230     0.06372213486173    10.33002307638377
H   22   1     0.38411922151109     1.74281358582432    10.27380136542181
H   23   1    -2.30980003007874     0.45460143924521    11.73986301809809
H   24   1     4.58527064644668    -5.38706904487420     5.36778158031719
H   25   1     5.54944938085014    -2.37631462192748     4.35398898413318
H   26   1     3.06633019150423    -3.94118377050688     2.75255466040884
H   27   1    -4.17727778763735     2.26573369139522     5.12914900961283
H   28   1    -1.52662344944051     3.68001877445626     6.59540397144508
H   29   1    -4.32916174397830     3.13643051467482     8.35225460090378
H   30   1    -5.32329548508442    -2.36691813602939     6.11583672749896
H   31   1    -5.77989366602257    -1.33896741843465     9.25748940450990
H   32   1    -3.79310905208926    -3.96389819310853     8.61386170102686
C   33   6    -1.01100794811226    -1.06331657314144     3.11929490449947
C   34   6     0.37686231036534    -0.33275864505552     1.09165013605873
H   35   1    -3.01671213906703    -1.40297922279997     2.77827895090944
C   36   6    -0.64382707979370    -0.11591880174385    -1.42063131251064
H   37   1     2.35569259782137     0.17174499283897     1.33641070251401
H   38   1    -2.63317482980319    -0.60229203511219    -1.66119700387645
C   39   6     4.92949292707610     3.06752929189425   -10.04715344157890
C   40   6     7.59555456141448     3.73329481661799    -9.81073387339210
H   41   1     4.09542353861424     3.21030697797155   -11.92110945203513
O   42   8     8.93835728030826     4.43020973545744   -11.55200196938216
H   43   1     8.37079058468688     3.56000927179912    -7.85902689076443
[GTO]
1 0
 s    6 1.00
             3047.5249  0.0018347001629433
             457.36951    0.01403730124668
             103.94869   0.068842606114048
             29.210155    0.23218442062076
              9.286663    0.46794134155879
              3.163927    0.36231203217765
 s    3 1.00
             7.8682724   -0.11933240861517
             1.8812885   -0.16085421161283
             0.5442493     1.1434564825515
 s    1 1.00
             0.1687144                   1
 p    3 1.00
             7.8682724   0.068999095584993
             1.8812885    0.31642397975315
             0.5442493    0.74430825237435
 p    1 1.00
             0.1687144                   1
 d    1 1.00
                   0.8                   1

2 0
 s    3 1.00
             18.731137    0.03349459952309
             2.8253937    0.23472694665786
             0.6401217    0.81375731841339
 s    1 1.00
             0.1612778                   1

3 0
 s    6 1.00
             3047.5249  0.0018347001629433
             457.36951    0.01403730124668
             103.94869   0.068842606114048
             29.210155    0.23218442062076
              9.286663    0.46794134155879
              3.163927    0.36231203217765
 s    3 1.00
             7.8682724   -0.11933240861517
             1.8812885   -0.16085421161283
             0.5442493     1.1434564825515
 s    1 1.00
             0.1687144                   1
 p    3 1.00
             7.8682724   0.068999095584993
             1.8812885    0.31642397975315
             0.5442493    0.74430825237435
 p    1 1.00
             0.1687144                   1
 d    1 1.00
                   0.8                   1

4 0
 s    3 1.00
             18.731137    0.03349459952309
             2.8253937    0.23472694665786
             0.6401217    0.81375731841339
 s    1 1.00
             0.1612778                   1

5 0
 s    6 1.00
             3047.5249  0.0018347001629433
             457.36951    0.01403730124668
             103.94869   0.068842606114048
             29.210155    0.23218442062076
              9.286663    0.46794134155879
              3.163927    0.36231203217765
 s    3 1.00
             7.8682724   -0.11933240861517
             1.8812885   -0.16085421161283
             0.5442493     1.1434564825515
 s    1 1.00
             0.1687144                   1
 p    3 1.00
             7.8682724   0.068999095584993
             1.8812885    0.31642397975315
             0.5442493    0.74430825237435
 p    1 1.00
             0.1687144                   1
 d    1 1.00
                   0.8                   1

6 0
 s    3 1.00
             18.731137    0.03349459952309
             2.8253937    0.23472694665786
             0.6401217    0.81375731841339
 s    1 1.00
             0.1612778                   1

7 0
 s    6 1.00
             3047.5249  0.0018347001629433
             457.36951    0.01403730124668
             103.94869   0.068842606114048
             29.210155    0.23218442062076
              9.286663    0.46794134155879
              3.163927    0.36231203217765
 s    3 1.00
             7.8682724   -0.11933240861517
             1.8812885   -0.16085421161283
             0.5442493     1.1434564825515
 s    1 1.00
             0.1687144                   1
 p    3 1.00
             7.8682724   0.068999095584993
             1.8812885    0.31642397975315
             0.5442493    0.74430825237435
 p    1 1.00
             0.1687144                   1
 d    1 1.00
                   0.8                   1

8 0
 s    3 1.00
             18.731137    0.03349459952309
             2.8253937    0.23472694665786
             0.6401217    0.81375731841339
 s    1 1.00
             0.1612778                   1

9 0
 s    3 1.00
             18.731137    0.03349459952309
             2.8253937    0.23472694665786
             0.6401217    0.81375731841339
 s    1 1.00
             0.1612778                   1

10 0
 s    6 1.00
             3047.5249  0.0018347001629433
             457.36951    0.01403730124668
             103.94869   0.068842606114048
             29.210155    0.23218442062076
              9.286663    0.46794134155879
              3.163927    0.36231203217765
 s    3 1.00
             7.8682724   -0.11933240861517
             1.8812885   -0.16085421161283
             0.5442493     1.1434564825515
 s    1 1.00
             0.1687144                   1
 p    3 1.00
             7.8682724   0.068999095584993
             1.8812885    0.31642397975315
             0.5442493    0.74430825237435
 p    1 1.00
             0.1687144                   1
 d    1 1.00
                   0.8                   1

11 0
 s    3 1.00
             18.731137    0.03349459952309
             2.8253937    0.23472694665786
             0.6401217    0.81375731841339
 s    1 1.00
             0.1612778                   1

12 0
 s    6 1.00
             3047.5249  0.0018347001629433
             457.36951    0.01403730124668
             103.94869   0.068842606114048
             29.210155    0.23218442062076
              9.286663    0.46794134155879
              3.163927    0.36231203217765
 s    3 1.00
             7.8682724   -0.11933240861517
             1.8812885   -0.16085421161283
             0.5442493     1.1434564825515
 s    1 1.00
             0.1687144                   1
 p    3 1.00
             7.8682724   0.068999095584993
             1.8812885    0.31642397975315
             0.5442493    0.74430825237435
 p    1 1.00
             0.1687144                   1
 d    1 1.00
                   0.8                   1

13 0
 s    3 1.00
             18.731137    0.03349459952309
             2.8253937    0.23472694665786
             0.6401217    0.81375731841339
 s    1 1.00
             0.1612778                   1

14 0
 s    3 1.00
             18.731137    0.03349459952309
             2.8253937    0.23472694665786
             0.6401217    0.81375731841339
 s    1 1.00
             0.1612778                   1

15 0
 s    6 1.00
             3047.5249  0.0018347001629433
             457.36951    0.01403730124668
             103.94869   0.068842606114048
             29.210155    0.23218442062076
              9.286663    0.46794134155879
              3.163927    0.36231203217765
 s    3 1.00
             7.8682724   -0.11933240861517
             1.8812885   -0.16085421161283
             0.5442493     1.1434564825515
 s    1 1.00
             0.1687144                   1
 p    3 1.00
             7.8682724   0.068999095584993
             1.8812885    0.31642397975315
             0.5442493    0.74430825237435
 p    1 1.00
             0.1687144                   1
 d    1 1.00
                   0.8                   1

16 0
 s    6 1.00
             3047.5249  0.0018347001629433
             457.36951    0.01403730124668
             103.94869   0.068842606114048
             29.210155    0.23218442062076
              9.286663    0.46794134155879
              3.163927    0.36231203217765
 s    3 1.00
             7.8682724   -0.11933240861517
             1.8812885   -0.16085421161283
             0.5442493     1.1434564825515
 s    1 1.00
             0.1687144                   1
 p    3 1.00
             7.8682724   0.068999095584993
             1.8812885    0.31642397975315
             0.5442493    0.74430825237435
 p    1 1.00
             0.1687144                   1
 d    1 1.00
                   0.8                   1

17 0
 s    6 1.00
             3047.5249  0.0018347001629433
             457.36951    0.01403730124668
             103.94869   0.068842606114048
             29.210155    0.23218442062076
              9.286663    0.46794134155879
              3.163927    0.36231203217765
 s    3 1.00
             7.8682724   -0.11933240861517
             1.8812885   -0.16085421161283
             0.5442493     1.1434564825515
 s    1 1.00
             0.1687144                   1
 p    3 1.00
             7.8682724   0.068999095584993
             1.8812885    0.31642397975315
             0.5442493    0.74430825237435
 p    1 1.00
             0.1687144                   1
 d    1 1.00
                   0.8                   1

18 0
 s    6 1.00
             3047.5249  0.0018347001629433
             457.36951    0.01403730124668
             103.94869   0.068842606114048
             29.210155    0.23218442062076
              9.286663    0.46794134155879
              3.163927    0.36231203217765
 s    3 1.00
             7.8682724   -0.11933240861517
             1.8812885   -0.16085421161283
             0.5442493     1.1434564825515
 s    1 1.00
             0.1687144                   1
 p    3 1.00
             7.8682724   0.068999095584993
             1.8812885    0.31642397975315
             0.5442493    0.74430825237435
 p    1 1.00
             0.1687144                   1
 d    1 1.00
                   0.8                   1

19 0
 s    6 1.00
             3047.5249  0.0018347001629433
             457.36951    0.01403730124668
             103.94869   0.068842606114048
             29.210155    0.23218442062076
              9.286663    0.46794134155879
              3.163927    0.36231203217765
 s    3 1.00
             7.8682724   -0.11933240861517
             1.8812885   -0.16085421161283
             0.5442493     1.1434564825515
 s    1 1.00
             0.1687144                   1
 p    3 1.00
             7.8682724   0.068999095584993
             1.8812885    0.31642397975315
             0.5442493    0.74430825237435
 p    1 1.00
             0.1687144                   1
 d    1 1.00
                   0.8                   1

20 0
 s    6 1.00
             3047.5249  0.0018347001629433
             457.36951    0.01403730124668
             103.94869   0.068842606114048
             29.210155    0.23218442062076
              9.286663    0.46794134155879
              3.163927    0.36231203217765
 s    3 1.00
             7.8682724   -0.11933240861517
             1.8812885   -0.16085421161283
             0.5442493     1.1434564825515
 s    1 1.00
             0.1687144                   1
 p    3 1.00
             7.8682724   0.068999095584993
             1.8812885    0.31642397975315
             0.5442493    0.74430825237435
 p    1 1.00
             0.1687144                   1
 d    1 1.00
                   0.8                   1

21 0
 s    6 1.00
             3047.5249  0.0018347001629433
             457.36951    0.01403730124668
             103.94869   0.068842606114048
             29.210155    0.23218442062076
              9.286663    0.46794134155879
              3.163927    0.36231203217765
 s    3 1.00
             7.8682724   -0.11933240861517
             1.8812885   -0.16085421161283
             0.5442493     1.1434564825515
 s    1 1.00
             0.1687144                   1
 p    3 1.00
             7.8682724   0.068999095584993
             1.8812885    0.31642397975315
             0.5442493    0.74430825237435
 p    1 1.00
             0.1687144                   1
 d    1 1.00
                   0.8                   1

22 0
 s    3 1.00
             18.731137    0.03349459952309
             2.8253937    0.23472694665786
             0.6401217    0.81375731841339
 s    1 1.00
             0.1612778                   1

23 0
 s    3 1.00
             18.731137    0.03349459952309
             2.8253937    0.23472694665786
             0.6401217    0.81375731841339
 s    1 1.00
             0.1612778                   1

24 0
 s    3 1.00
             18.731137    0.03349459952309
             2.8253937    0.23472694665786
             0.6401217    0.81375731841339
 s    1 1.00
             0.1612778                   1

25 0
 s    3 1.00
             18.731137    0.03349459952309
             2.8253937    0.23472694665786
             0.6401217    0.81375731841339
 s    1 1.00
             0.1612778                   1

26 0
 s    3 1.00
             18.731137    0.03349459952309
             2.8253937    0.23472694665786
             0.6401217    0.81375731841339
 s    1 1.00
             0.1612778                   1

27 0
 s    3 1.00
             18.731137    0.03349459952309
             2.8253937    0.23472694665786
             0.6401217    0.81375731841339
 s    1 1.00
             0.1612778                   1

28 0
 s    3 1.00
             18.731137    0.03349459952309
             2.8253937    0.23472694665786
             0.6401217    0.81375731841339
 s    1 1.00
             0.1612778                   1

29 0
 s    3 1.00
             18.731137    0.03349459952309
             2.8253937    0.23472694665786
             0.6401217    0.81375731841339
 s    1 1.00
             0.1612778                   1

30 0
 s    3 1.00
             18.731137    0.03349459952309
             2.8253937    0.23472694665786
             0.6401217    0.81375731841339
 s    1 1.00
             0.1612778                   1

31 0
 s    3 1.00
             18.731137    0.03349459952309
             2.8253937    0.23472694665786
             0.6401217    0.81375731841339
 s    1 1.00
             0.1612778                   1

32 0
 s    3 1.00
             18.731137    0.03349459952309
             2.8253937    0.23472694665786
             0.6401217    0.81375731841339
 s    1 1.00
             0.1612778                   1

33 0
 s    6 1.00
             3047.5249  0.0018347001629433
             457.36951    0.01403730124668
             103.94869   0.068842606114048
             29.210155    0.23218442062076
              9.286663    0.46794134155879
              3.163927    0.36231203217765
 s    3 1.00
             7.8682724   -0.11933240861517
             1.8812885   -0.16085421161283
             0.5442493     1.1434564825515
 s    1 1.00
             0.1687144                   1
 p    3 1.00
             7.8682724   0.068999095584993
             1.8812885    0.31642397975315
             0.5442493    0.74430825237435
 p    1 1.00
             0.1687144                   1
 d    1 1.00
                   0.8                   1

34 0
 s    6 1.00
             3047.5249  0.0018347001629433
             457.36951    0.01403730124668
             103.94869   0.068842606114048
             29.210155    0.23218442062076
              9.286663    0.46794134155879
              3.163927    0.36231203217765
 s    3 1.00
             7.8682724   -0.11933240861517
             1.8812885   -0.16085421161283
             0.5442493     1.1434564825515
 s    1 1.00
             0.1687144                   1
 p    3 1.00
             7.8682724   0.068999095584993
             1.8812885    0.31642397975315
             0.5442493    0.74430825237435
 p    1 1.00
             0.1687144                   1
 d    1 1.00
                   0.8                   1

35 0
 s    3 1.00
             18.731137    0.03349459952309
             2.8253937    0.23472694665786
             0.6401217    0.81375731841339
 s    1 1.00
             0.1612778                   1

36 0
 s    6 1.00
             3047.5249  0.0018347001629433
             457.36951    0.01403730124668
             103.94869   0.068842606114048
             29.210155    0.23218442062076
              9.286663    0.46794134155879
              3.163927    0.36231203217765
 s    3 1.00
             7.8682724   -0.11933240861517
             1.8812885   -0.16085421161283
             0.5442493     1.1434564825515
 s    1 1.00
             0.1687144                   1
 p    3 1.00
             7.8682724   0.068999095584993
             1.8812885    0.31642397975315
             0.5442493    0.74430825237435
 p    1 1.00
             0.1687144                   1
 d    1 1.00
                   0.8                   1

37 0
 s    3 1.00
             18.731137    0.03349459952309
             2.8253937    0.23472694665786
             0.6401217    0.81375731841339
 s    1 1.00
             0.1612778                   1

38 0
 s    3 1.00
             18.731137    0.03349459952309
             2.8253937    0.23472694665786
             0.6401217    0.81375731841339
 s    1 1.00
             0.1612778                   1

39 0
 s    6 1.00
             3047.5249  0.0018347001629433
             457.36951    0.01403730124668
             103.94869   0.068842606114048
             29.210155    0.23218442062076
              9.286663    0.46794134155879
              3.163927    0.36231203217765
 s    3 1.00
             7.8682724   -0.11933240861517
             1.8812885   -0.16085421161283
             0.5442493     1.1434564825515
 s    1 1.00
             0.1687144                   1
 p    3 1.00
             7.8682724   0.068999095584993
             1.8812885    0.31642397975315
             0.5442493    0.74430825237435
 p    1 1.00
             0.1687144                   1
 d    1 1.00
                   0.8                   1

40 0
 s    6 1.00
             3047.5249  0.0018347001629433
             457.36951    0.01403730124668
             103.94869   0.068842606114048
             29.210155    0.23218442062076
              9.286663    0.46794134155879
              3.163927    0.36231203217765
 s    3 1.00
             7.8682724   -0.11933240861517
             1.8812885   -0.16085421161283
             0.5442493     1.1434564825515
 s    1 1.00
             0.1687144                   1
 p    3 1.00
             7.8682724   0.068999095584993
             1.8812885    0.31642397975315
             0.5442493    0.74430825237435
 p    1 1.00
             0.1687144                   1
 d    1 1.00
                   0.8                   1

41 0
 s    3 1.00
             18.731137    0.03349459952309
             2.8253937    0.23472694665786
             0.6401217    0.81375731841339
 s    1 1.00
             0.1612778                   1

42 0
 s    6 1.00
             5484.6717   0.001831099805527
             825.23495   0.013950098518422
             188.04696    0.06844509273075
               52.9645    0.23271427528445
              16.89757    0.47019295006289
             5.7996353    0.35852086192309
 s    3 1.00
             15.539616   -0.11077750382508
             3.5999336   -0.14802630511126
             1.0137618     1.1307670390447
 s    1 1.00
             0.2700058                   1
 p    3 1.00
             15.539616   0.070874299543311
             3.5999336    0.33975279781076
             1.0137618    0.72715859531445
 p    1 1.00
             0.2700058                   1
 d    1 1.00
                   0.8                   1

43 0
 s    3 1.00
             18.731137    0.03349459952309
             2.8253937    0.23472694665786
             0.6401217    0.81375731841339
 s    1 1.00
             0.1612778                   1

[5d]
[7f]
[9g]

[MO]
 Sym= A
 Ene=               0
 Spin= Alpha
 Occup=    1.00000
   1    -0.0061508032971634
   2    -0.00045747360942731
   3    1.9432501156766e-05
   4    -0.00014083011903565
   5    -5.8524059641503e-05
   6    0.00010882333358285
   7     0.001961637554146
   8    0.00056819808529224
   9    -0.00023794742870592
  10    -6.9618291363715e-05
  11    6.5693525102845e-05
  12    3.6262555404865e-05
  13    3.1189335678464e-05
  14    1.9756326048186e-06
  15    -9.6862366180321e-05
  16    -0.0021123202484893
  17    0.0034738305475013
  18    -0.00024314621991801
  19    0.0016480775601331
  20    -0.00018353970837186
  21    -6.9073323786574e-05
  22    0.00010478198181726
  23    0.0002564068801841
  24    0.00010909278726928
  25    -0.00020207453576066
  26    0.00015041419995836
  27    8.8678087391864e-05
  28    -4.225692953855e-05
  29    6.2319526528487e-05
  30    1.9566840682014e-05
  31    -5.28457050869e-05
  32    0.00017418150719857
  33     0.010212704941864
  34    -0.0012388351439191
  35    0.0070430478830736
  36    -0.0013277333246952
  37    -0.00035976354538474
  38    2.1344845797278e-05
  39    0.0033791647258981
  40    0.0012539353316094
  41    -0.0017905672108604
  42    0.00073859779252749
  43    -0.000163118065379
  44    -3.2555013651673e-05
  45    -0.0011724404032825
  46    -0.00063929981586277
  47    -0.00047128181232125
  48    -0.00069379649013695
  49      0.99479384290464
  50      0.03860531253211
  51     -0.03056178855317
  52    -5.6982625571094e-05
  53    0.00012935685789063
  54    -0.00074243621050638
  55    0.00075670615479213
  56    -0.00030665860244563
  57    0.0026129177809517
  58    8.5482716424175e-05
  59    -0.00064020183598367
  60    -0.00034948033636827
  61    0.0005687361330106
  62    0.00048172424192657
  63    -0.0014165925731626
  64    0.0053049902922307
  65    -2.4951767899596e-06
  66    -4.6437288187911e-06
  67    3.6293812921676e-07
  68    -1.0812311294132e-07
  69    -1.9336107084563e-06
  70    4.0752673582423e-07
  71    -1.223341640561e-06
  72    -2.9479811757085e-07
  73    4.1324006601771e-06
  74    8.5295444410426e-06
  75    4.9575193194986e-06
  76    -6.153293324546e-07
  77    -1.9251317425103e-07
  78    2.3421998477787e-07
  79    2.0912885092966e-07
  80    -1.7008734390569e-07
  81    1.0917004211257e-06
  82    4.8501351527061e-06
  83    1.9752333480157e-06
  84    -3.625488548382e-06
  85    -2.8958320643449e-05
  86    5.7764289747206e-06
  87    -2.394349286192e-06
  88    1.1690166371638e-05
  89    7.3008258679322e-06
  90    -2.3556532479495e-05
  91    9.1819472468351e-06
  92    5.4591851189384e-07
  93    -9.38716927295e-07
  94    1.0350579067886e-06
  95    -9.520636879918e-08
  96    -7.1585415671654e-07
  97    1.601861457446e-06
  98    6.2786323553011e-06
  99    3.0483867452084e-06
 100    6.7400672426467e-07
 101    -3.6044906319731e-06
 102    1.1117333860264e-06
 103    0.00011136686425364
 104    -7.4889259195399e-06
 105    1.0553967127354e-05
 106    -9.9755909474472e-06
 107    -8.9334212879534e-05
 108    8.7880137901076e-05
 109    4.4429565725194e-05
 110    -3.1220054839756e-06
 111    -1.826398218824e-06
 112    2.3361676567906e-07
 113    9.6773914962319e-07
 114    -2.5472585426815e-06
 115    -1.6384045623957e-06
 116    -8.1951660970542e-06
 117    0.00010363578257977
 118    -5.4109556276366e-06
 119    6.9887470206763e-06
 120    -4.9070530320787e-07
 121    -2.0367480122286e-06
 122    -9.4868645805065e-06
 123    3.3689483239922e-05
 124    -9.1582765212855e-08
 125    -1.2741181966741e-06
 126    -1.4816693233991e-06
 127    -7.7712513200064e-07
 128    -2.0623734017377e-06
 129    4.1042520955998e-06
 130    -3.2797088171766e-05
 131    -1.1747015684721e-05
 132    1.9752792407138e-05
 133    5.2183101981953e-07
 134    4.7394069016862e-05
 135    -0.00012550727362516
 136    1.652361096528e-05
 137    -0.00015932091068403
 138    3.3900372745761e-06
 139    6.1139686921431e-06
 140    1.792515294248e-06
 141    2.5992369095925e-06
 142    2.8218901007725e-06
 143    -2.0519757737638e-06
 144    -1.1779249481779e-05
 145    3.9812423356879e-05
 146    2.2868181644563e-06
 147    9.1001312387922e-07
 148    -3.4035708242526e-06
 149    2.5106014598647e-05
 150    -8.5419368275154e-06
 151    -2.4511148479668e-05
 152    -3.926931099612e-06
 153    -2.2782873194647e-06
 154    -1.165828578689e-06
 155    2.4953099776492e-06
 156    -2.1291193185264e-06
 157    4.7099834005487e-07
 158    4.5398850215551e-06
 159    -7.5557524712763e-06
 160    4.2007560476532e-06
 161    -1.881611937301e-06
 162    2.1367296718838e-06
 163    -2.1867861557702e-05
 164    5.9601833018086e-06
 165    6.5798221168829e-06
 166    1.5926648787662e-06
 167    -7.3630833178799e-07
 168    1.1609039425912e-07
 169    -1.4129964780377e-07
 170    8.6698188202662e-07
 171    -1.1518316788789e-07
 172    -5.3725253031276e-06
 173    1.5718462642698e-05
 174    1.0050096236189e-06
 175    8.6442760746577e-07
 176    8.7041317982806e-06
 177    -5.412264714095e-06
 178    1.9511393038544e-06
 179    -1.0747530458864e-05
 180    5.553907545703e-07
 181    1.3783969854334e-06
 182    2.6296393985803e-07
 183    -9.8868347932892e-07
 184    3.0234790049746e-07
 185    2.3114961570809e-07
 186    -1.3939764891903e-05
 187    1.779447491362e-05
 188    2.1335458633182e-06
 189    -1.7390778348698e-08
 190    9.9169020208343e-06
 191    2.7183134294661e-06
 192    -5.1171410937555e-06
 193    -1.9218221981406e-05
 194    1.1174910233638e-06
 195    2.5775584672113e-07
 196    9.4706813330539e-07
 197    1.1696107102469e-07
 198    -3.0656053684443e-08
 199    -2.9982335880268e-06
 200    5.1924617910861e-07
 201    8.0890009681016e-07
 202    1.2890224121674e-05
 203    -7.0936524494009e-06
 204    -1.6422569116583e-05
 205    6.9468949584669e-06
 206    -3.5290258616852e-05
 207    6.7397654483002e-06
 208    -1.177313308167e-05
 209    2.4914665619367e-06
 210    -1.5699362307181e-05
 211    2.8479000864148e-06
 212    7.6463242056172e-06
 213    3.8883596989238e-07
 214    -7.5257756456221e-06
 215    -3.0942803348537e-06
 216    -2.530194765856e-05
 217    1.5586089051019e-06
 218    3.5784225175783e-06
 219    1.2848587341539e-06
 220    2.3719306797406e-06
 221    -1.2063435490452e-05
 222    -2.61045721666e-05
 223    0.00016803356660745
 224    -4.2798141192917e-05
 225    -2.1582183498258e-06
 226    -3.2527109711235e-05
 227    0.00026344980934671
 228    0.00010811975184036
 229    -0.00025692168554573
 230    -5.0407313873017e-06
 231    -1.612056640796e-05
 232    -6.8194357920903e-06
 233    1.3226297773164e-05
 234    1.1155180093587e-05
 235    1.0230088878634e-05
 236    -1.4462334495407e-05
 237    0.00025792884565684
 238    1.2213375934401e-05
 239    -3.3608928624857e-06
 240    3.1069605496476e-05
 241    -0.00030963089816076
 242    3.6878387842277e-05
 243    -0.00068263125597356
 244    3.6819985602795e-06
 245    2.081708751948e-05
 246    4.1592908742507e-06
 247    1.7790902286713e-06
 248    -3.8497921242596e-06
 249    2.0714335505247e-05
 250    0.00018282179754346
 251    9.4533419848126e-07
 252    -0.00020941759115352
 253    0.00057807203643041
 254    0.00020554051346981
 255    5.3687518643063e-05
 256    -7.5035763065307e-06
 257    -0.00016653819862914
 258    0.00022629226268408
 259    -0.0013665221968908
 260    4.1500189379518e-05
 261    -4.93333352622e-05
 262    -2.7494879988618e-05
 263    -6.7853080789428e-06
 264    8.5455665908698e-06
 265    -5.3839325253713e-05
 266    0.00034262943459446
 267    -0.00022445588808124
 268    -0.00034200622945277
 269    -0.0009155361386098
 270    -0.0034374218914802
 271    0.0089158728897235
 272    0.0011914087707531
 273    0.00044375764821857
 274    -0.00063878924028669
 275    -0.0026893806837713
 276    -0.001204746186498
 277     0.002492947295677
 278    -0.00085151987378256
 279    0.00099193974415222
 280    0.00064563209920701
 281    -0.00024634742046767