[Molden Format]
made by pyscf v[2.0.1]
[Atoms] (AU)
C   1   6     0.69100024066471     0.64692934207205    -3.48223131169301
H   2   1     2.68052439830868     1.13355088658700    -3.25784032593313
C   3   6    -0.36286361513219     0.85440132524594    -5.97030179418974
H   4   1    -2.35448549047279     0.36322488579172    -6.17995817793143
C   5   6     0.93697958957450     1.61209284601821    -8.05828437677121
H   6   1     0.14022243979667     3.08603065646166    -9.25562650474843
C   7   6     3.33155915073320     0.56926267114995    -8.78956929307971
H   8   1     4.10661901770469    -0.90506612570738    -7.57081623325171
H   9   1     1.55630230933075    -1.92953025305990    12.99630010416247
C   10   6     0.75233899775814    -2.21270439606481    11.10705728102219
H   11   1    -0.43433408177274    -3.90944857546550    11.22216085340412
C   12   6     2.86362581178706    -2.63237380607947     9.17926416456045
H   13   1     4.39038949912609    -1.24955421540245     9.49899813497433
H   14   1     3.74629220191363    -4.48798724300892     9.47414880959024
C   15   6     2.02478325613682    -2.42177285709634     6.44560829588644
C   16   6     3.88048732735477    -3.58795445234514     4.61402886975252
C   17   6    -0.18412382258602    -1.30464291234259     5.76021113872346
C   18   6    -2.10044360464350    -0.26837831858460     7.71610340967100
C   19   6    -3.08956938670431     2.35282328359417     6.88693925039594
C   20   6    -4.37372924086464    -2.09766595989678     7.93610724222001
C   21   6    -0.83850430601230     0.06372213486173    10.33002307638377
H   22   1     0.38411922151109     1.74281358582432    10.27380136542181
H   23   1    -2.30980003007874     0.45460143924521    11.73986301809809
H   24   1     4.58527064644668    -5.38706904487420     5.36778158031719
H   25   1     5.54944938085014    -2.37631462192748     4.35398898413318
H   26   1     3.06633019150423    -3.94118377050688     2.75255466040884
H   27   1    -4.17727778763735     2.26573369139522     5.12914900961283
H   28   1    -1.52662344944051     3.68001877445626     6.59540397144508
H   29   1    -4.32916174397830     3.13643051467482     8.35225460090378
H   30   1    -5.32329548508442    -2.36691813602939     6.11583672749896
H   31   1    -5.77989366602257    -1.33896741843465     9.25748940450990
H   32   1    -3.79310905208926    -3.96389819310853     8.61386170102686
C   33   6    -1.01100794811226    -1.06331657314144     3.11929490449947
C   34   6     0.37686231036534    -0.33275864505552     1.09165013605873
H   35   1    -3.01671213906703    -1.40297922279997     2.77827895090944
C   36   6    -0.64382707979370    -0.11591880174385    -1.42063131251064
H   37   1     2.35569259782137     0.17174499283897     1.33641070251401
H   38   1    -2.63317482980319    -0.60229203511219    -1.66119700387645
C   39   6     4.69106502259275     1.26188352336463   -10.85081981009206
C   40   6     7.11506387067225     0.08270412537969   -11.43459041306820
H   41   1     4.02727424636240     2.71762167762249   -12.14232148362751
O   42   8     8.43283181269616     0.61123359193353   -13.25254761350674
H   43   1     7.72125158488297    -1.39686243822724   -10.06214800755086
[GTO]
1 0
 s    6 1.00
             3047.5249  0.0018347001629433
             457.36951    0.01403730124668
             103.94869   0.068842606114048
             29.210155    0.23218442062076
              9.286663    0.46794134155879
              3.163927    0.36231203217765
 s    3 1.00
             7.8682724   -0.11933240861517
             1.8812885   -0.16085421161283
             0.5442493     1.1434564825515
 s    1 1.00
             0.1687144                   1
 p    3 1.00
             7.8682724   0.068999095584993
             1.8812885    0.31642397975315
             0.5442493    0.74430825237435
 p    1 1.00
             0.1687144                   1
 d    1 1.00
                   0.8                   1

2 0
 s    3 1.00
             18.731137    0.03349459952309
             2.8253937    0.23472694665786
             0.6401217    0.81375731841339
 s    1 1.00
             0.1612778                   1

3 0
 s    6 1.00
             3047.5249  0.0018347001629433
             457.36951    0.01403730124668
             103.94869   0.068842606114048
             29.210155    0.23218442062076
              9.286663    0.46794134155879
              3.163927    0.36231203217765
 s    3 1.00
             7.8682724   -0.11933240861517
             1.8812885   -0.16085421161283
             0.5442493     1.1434564825515
 s    1 1.00
             0.1687144                   1
 p    3 1.00
             7.8682724   0.068999095584993
             1.8812885    0.31642397975315
             0.5442493    0.74430825237435
 p    1 1.00
             0.1687144                   1
 d    1 1.00
                   0.8                   1

4 0
 s    3 1.00
             18.731137    0.03349459952309
             2.8253937    0.23472694665786
             0.6401217    0.81375731841339
 s    1 1.00
             0.1612778                   1

5 0
 s    6 1.00
             3047.5249  0.0018347001629433
             457.36951    0.01403730124668
             103.94869   0.068842606114048
             29.210155    0.23218442062076
              9.286663    0.46794134155879
              3.163927    0.36231203217765
 s    3 1.00
             7.8682724   -0.11933240861517
             1.8812885   -0.16085421161283
             0.5442493     1.1434564825515
 s    1 1.00
             0.1687144                   1
 p    3 1.00
             7.8682724   0.068999095584993
             1.8812885    0.31642397975315
             0.5442493    0.74430825237435
 p    1 1.00
             0.1687144                   1
 d    1 1.00
                   0.8                   1

6 0
 s    3 1.00
             18.731137    0.03349459952309
             2.8253937    0.23472694665786
             0.6401217    0.81375731841339
 s    1 1.00
             0.1612778                   1

7 0
 s    6 1.00
             3047.5249  0.0018347001629433
             457.36951    0.01403730124668
             103.94869   0.068842606114048
             29.210155    0.23218442062076
              9.286663    0.46794134155879
              3.163927    0.36231203217765
 s    3 1.00
             7.8682724   -0.11933240861517
             1.8812885   -0.16085421161283
             0.5442493     1.1434564825515
 s    1 1.00
             0.1687144                   1
 p    3 1.00
             7.8682724   0.068999095584993
             1.8812885    0.31642397975315
             0.5442493    0.74430825237435
 p    1 1.00
             0.1687144                   1
 d    1 1.00
                   0.8                   1

8 0
 s    3 1.00
             18.731137    0.03349459952309
             2.8253937    0.23472694665786
             0.6401217    0.81375731841339
 s    1 1.00
             0.1612778                   1

9 0
 s    3 1.00
             18.731137    0.03349459952309
             2.8253937    0.23472694665786
             0.6401217    0.81375731841339
 s    1 1.00
             0.1612778                   1

10 0
 s    6 1.00
             3047.5249  0.0018347001629433
             457.36951    0.01403730124668
             103.94869   0.068842606114048
             29.210155    0.23218442062076
              9.286663    0.46794134155879
              3.163927    0.36231203217765
 s    3 1.00
             7.8682724   -0.11933240861517
             1.8812885   -0.16085421161283
             0.5442493     1.1434564825515
 s    1 1.00
             0.1687144                   1
 p    3 1.00
             7.8682724   0.068999095584993
             1.8812885    0.31642397975315
             0.5442493    0.74430825237435
 p    1 1.00
             0.1687144                   1
 d    1 1.00
                   0.8                   1

11 0
 s    3 1.00
             18.731137    0.03349459952309
             2.8253937    0.23472694665786
             0.6401217    0.81375731841339
 s    1 1.00
             0.1612778                   1

12 0
 s    6 1.00
             3047.5249  0.0018347001629433
             457.36951    0.01403730124668
             103.94869   0.068842606114048
             29.210155    0.23218442062076
              9.286663    0.46794134155879
              3.163927    0.36231203217765
 s    3 1.00
             7.8682724   -0.11933240861517
             1.8812885   -0.16085421161283
             0.5442493     1.1434564825515
 s    1 1.00
             0.1687144                   1
 p    3 1.00
             7.8682724   0.068999095584993
             1.8812885    0.31642397975315
             0.5442493    0.74430825237435
 p    1 1.00
             0.1687144                   1
 d    1 1.00
                   0.8                   1

13 0
 s    3 1.00
             18.731137    0.03349459952309
             2.8253937    0.23472694665786
             0.6401217    0.81375731841339
 s    1 1.00
             0.1612778                   1

14 0
 s    3 1.00
             18.731137    0.03349459952309
             2.8253937    0.23472694665786
             0.6401217    0.81375731841339
 s    1 1.00
             0.1612778                   1

15 0
 s    6 1.00
             3047.5249  0.0018347001629433
             457.36951    0.01403730124668
             103.94869   0.068842606114048
             29.210155    0.23218442062076
              9.286663    0.46794134155879
              3.163927    0.36231203217765
 s    3 1.00
             7.8682724   -0.11933240861517
             1.8812885   -0.16085421161283
             0.5442493     1.1434564825515
 s    1 1.00
             0.1687144                   1
 p    3 1.00
             7.8682724   0.068999095584993
             1.8812885    0.31642397975315
             0.5442493    0.74430825237435
 p    1 1.00
             0.1687144                   1
 d    1 1.00
                   0.8                   1

16 0
 s    6 1.00
             3047.5249  0.0018347001629433
             457.36951    0.01403730124668
             103.94869   0.068842606114048
             29.210155    0.23218442062076
              9.286663    0.46794134155879
              3.163927    0.36231203217765
 s    3 1.00
             7.8682724   -0.11933240861517
             1.8812885   -0.16085421161283
             0.5442493     1.1434564825515
 s    1 1.00
             0.1687144                   1
 p    3 1.00
             7.8682724   0.068999095584993
             1.8812885    0.31642397975315
             0.5442493    0.74430825237435
 p    1 1.00
             0.1687144                   1
 d    1 1.00
                   0.8                   1

17 0
 s    6 1.00
             3047.5249  0.0018347001629433
             457.36951    0.01403730124668
             103.94869   0.068842606114048
             29.210155    0.23218442062076
              9.286663    0.46794134155879
              3.163927    0.36231203217765
 s    3 1.00
             7.8682724   -0.11933240861517
             1.8812885   -0.16085421161283
             0.5442493     1.1434564825515
 s    1 1.00
             0.1687144                   1
 p    3 1.00
             7.8682724   0.068999095584993
             1.8812885    0.31642397975315
             0.5442493    0.74430825237435
 p    1 1.00
             0.1687144                   1
 d    1 1.00
                   0.8                   1

18 0
 s    6 1.00
             3047.5249  0.0018347001629433
             457.36951    0.01403730124668
             103.94869   0.068842606114048
             29.210155    0.23218442062076
              9.286663    0.46794134155879
              3.163927    0.36231203217765
 s    3 1.00
             7.8682724   -0.11933240861517
             1.8812885   -0.16085421161283
             0.5442493     1.1434564825515
 s    1 1.00
             0.1687144                   1
 p    3 1.00
             7.8682724   0.068999095584993
             1.8812885    0.31642397975315
             0.5442493    0.74430825237435
 p    1 1.00
             0.1687144                   1
 d    1 1.00
                   0.8                   1

19 0
 s    6 1.00
             3047.5249  0.0018347001629433
             457.36951    0.01403730124668
             103.94869   0.068842606114048
             29.210155    0.23218442062076
              9.286663    0.46794134155879
              3.163927    0.36231203217765
 s    3 1.00
             7.8682724   -0.11933240861517
             1.8812885   -0.16085421161283
             0.5442493     1.1434564825515
 s    1 1.00
             0.1687144                   1
 p    3 1.00
             7.8682724   0.068999095584993
             1.8812885    0.31642397975315
             0.5442493    0.74430825237435
 p    1 1.00
             0.1687144                   1
 d    1 1.00
                   0.8                   1

20 0
 s    6 1.00
             3047.5249  0.0018347001629433
             457.36951    0.01403730124668
             103.94869   0.068842606114048
             29.210155    0.23218442062076
              9.286663    0.46794134155879
              3.163927    0.36231203217765
 s    3 1.00
             7.8682724   -0.11933240861517
             1.8812885   -0.16085421161283
             0.5442493     1.1434564825515
 s    1 1.00
             0.1687144                   1
 p    3 1.00
             7.8682724   0.068999095584993
             1.8812885    0.31642397975315
             0.5442493    0.74430825237435
 p    1 1.00
             0.1687144                   1
 d    1 1.00
                   0.8                   1

21 0
 s    6 1.00
             3047.5249  0.0018347001629433
             457.36951    0.01403730124668
             103.94869   0.068842606114048
             29.210155    0.23218442062076
              9.286663    0.46794134155879
              3.163927    0.36231203217765
 s    3 1.00
             7.8682724   -0.11933240861517
             1.8812885   -0.16085421161283
             0.5442493     1.1434564825515
 s    1 1.00
             0.1687144                   1
 p    3 1.00
             7.8682724   0.068999095584993
             1.8812885    0.31642397975315
             0.5442493    0.74430825237435
 p    1 1.00
             0.1687144                   1
 d    1 1.00
                   0.8                   1

22 0
 s    3 1.00
             18.731137    0.03349459952309
             2.8253937    0.23472694665786
             0.6401217    0.81375731841339
 s    1 1.00
             0.1612778                   1

23 0
 s    3 1.00
             18.731137    0.03349459952309
             2.8253937    0.23472694665786
             0.6401217    0.81375731841339
 s    1 1.00
             0.1612778                   1

24 0
 s    3 1.00
             18.731137    0.03349459952309
             2.8253937    0.23472694665786
             0.6401217    0.81375731841339
 s    1 1.00
             0.1612778                   1

25 0
 s    3 1.00
             18.731137    0.03349459952309
             2.8253937    0.23472694665786
             0.6401217    0.81375731841339
 s    1 1.00
             0.1612778                   1

26 0
 s    3 1.00
             18.731137    0.03349459952309
             2.8253937    0.23472694665786
             0.6401217    0.81375731841339
 s    1 1.00
             0.1612778                   1

27 0
 s    3 1.00
             18.731137    0.03349459952309
             2.8253937    0.23472694665786
             0.6401217    0.81375731841339
 s    1 1.00
             0.1612778                   1

28 0
 s    3 1.00
             18.731137    0.03349459952309
             2.8253937    0.23472694665786
             0.6401217    0.81375731841339
 s    1 1.00
             0.1612778                   1

29 0
 s    3 1.00
             18.731137    0.03349459952309
             2.8253937    0.23472694665786
             0.6401217    0.81375731841339
 s    1 1.00
             0.1612778                   1

30 0
 s    3 1.00
             18.731137    0.03349459952309
             2.8253937    0.23472694665786
             0.6401217    0.81375731841339
 s    1 1.00
             0.1612778                   1

31 0
 s    3 1.00
             18.731137    0.03349459952309
             2.8253937    0.23472694665786
             0.6401217    0.81375731841339
 s    1 1.00
             0.1612778                   1

32 0
 s    3 1.00
             18.731137    0.03349459952309
             2.8253937    0.23472694665786
             0.6401217    0.81375731841339
 s    1 1.00
             0.1612778                   1

33 0
 s    6 1.00
             3047.5249  0.0018347001629433
             457.36951    0.01403730124668
             103.94869   0.068842606114048
             29.210155    0.23218442062076
              9.286663    0.46794134155879
              3.163927    0.36231203217765
 s    3 1.00
             7.8682724   -0.11933240861517
             1.8812885   -0.16085421161283
             0.5442493     1.1434564825515
 s    1 1.00
             0.1687144                   1
 p    3 1.00
             7.8682724   0.068999095584993
             1.8812885    0.31642397975315
             0.5442493    0.74430825237435
 p    1 1.00
             0.1687144                   1
 d    1 1.00
                   0.8                   1

34 0
 s    6 1.00
             3047.5249  0.0018347001629433
             457.36951    0.01403730124668
             103.94869   0.068842606114048
             29.210155    0.23218442062076
              9.286663    0.46794134155879
              3.163927    0.36231203217765
 s    3 1.00
             7.8682724   -0.11933240861517
             1.8812885   -0.16085421161283
             0.5442493     1.1434564825515
 s    1 1.00
             0.1687144                   1
 p    3 1.00
             7.8682724   0.068999095584993
             1.8812885    0.31642397975315
             0.5442493    0.74430825237435
 p    1 1.00
             0.1687144                   1
 d    1 1.00
                   0.8                   1

35 0
 s    3 1.00
             18.731137    0.03349459952309
             2.8253937    0.23472694665786
             0.6401217    0.81375731841339
 s    1 1.00
             0.1612778                   1

36 0
 s    6 1.00
             3047.5249  0.0018347001629433
             457.36951    0.01403730124668
             103.94869   0.068842606114048
             29.210155    0.23218442062076
              9.286663    0.46794134155879
              3.163927    0.36231203217765
 s    3 1.00
             7.8682724   -0.11933240861517
             1.8812885   -0.16085421161283
             0.5442493     1.1434564825515
 s    1 1.00
             0.1687144                   1
 p    3 1.00
             7.8682724   0.068999095584993
             1.8812885    0.31642397975315
             0.5442493    0.74430825237435
 p    1 1.00
             0.1687144                   1
 d    1 1.00
                   0.8                   1

37 0
 s    3 1.00
             18.731137    0.03349459952309
             2.8253937    0.23472694665786
             0.6401217    0.81375731841339
 s    1 1.00
             0.1612778                   1

38 0
 s    3 1.00
             18.731137    0.03349459952309
             2.8253937    0.23472694665786
             0.6401217    0.81375731841339
 s    1 1.00
             0.1612778                   1

39 0
 s    6 1.00
             3047.5249  0.0018347001629433
             457.36951    0.01403730124668
             103.94869   0.068842606114048
             29.210155    0.23218442062076
              9.286663    0.46794134155879
              3.163927    0.36231203217765
 s    3 1.00
             7.8682724   -0.11933240861517
             1.8812885   -0.16085421161283
             0.5442493     1.1434564825515
 s    1 1.00
             0.1687144                   1
 p    3 1.00
             7.8682724   0.068999095584993
             1.8812885    0.31642397975315
             0.5442493    0.74430825237435
 p    1 1.00
             0.1687144                   1
 d    1 1.00
                   0.8                   1

40 0
 s    6 1.00
             3047.5249  0.0018347001629433
             457.36951    0.01403730124668
             103.94869   0.068842606114048
             29.210155    0.23218442062076
              9.286663    0.46794134155879
              3.163927    0.36231203217765
 s    3 1.00
             7.8682724   -0.11933240861517
             1.8812885   -0.16085421161283
             0.5442493     1.1434564825515
 s    1 1.00
             0.1687144                   1
 p    3 1.00
             7.8682724   0.068999095584993
             1.8812885    0.31642397975315
             0.5442493    0.74430825237435
 p    1 1.00
             0.1687144                   1
 d    1 1.00
                   0.8                   1

41 0
 s    3 1.00
             18.731137    0.03349459952309
             2.8253937    0.23472694665786
             0.6401217    0.81375731841339
 s    1 1.00
             0.1612778                   1

42 0
 s    6 1.00
             5484.6717   0.001831099805527
             825.23495   0.013950098518422
             188.04696    0.06844509273075
               52.9645    0.23271427528445
              16.89757    0.47019295006289
             5.7996353    0.35852086192309
 s    3 1.00
             15.539616   -0.11077750382508
             3.5999336   -0.14802630511126
             1.0137618     1.1307670390447
 s    1 1.00
             0.2700058                   1
 p    3 1.00
             15.539616   0.070874299543311
             3.5999336    0.33975279781076
             1.0137618    0.72715859531445
 p    1 1.00
             0.2700058                   1
 d    1 1.00
                   0.8                   1

43 0
 s    3 1.00
             18.731137    0.03349459952309
             2.8253937    0.23472694665786
             0.6401217    0.81375731841339
 s    1 1.00
             0.1612778                   1

[5d]
[7f]
[9g]

[MO]
 Sym= A
 Ene=               0
 Spin= Alpha
 Occup=    1.00000
   1    -0.011194977246326
   2    0.0012951936568898
   3    -0.0082192358559213
   4    -0.00055984956943463
   5    0.00020291885931028
   6    -0.0012793290402906
   7    -0.00035611559458557
   8    -0.0012676119835916
   9    0.0042607131474001
  10    0.00099252380786593
  11    0.0010253351223367
  12    -0.00011430990441346
  13    0.00025847083182446
  14    -5.8413736879723e-05
  15    0.00046871768817559
  16    0.0011477785068893
  17     -0.99453909235478
  18    -0.038834587488634
  19     0.029982099239141
  20    -0.00098414751528264
  21    -0.00024656699223754
  22    0.00027413194327543
  23    0.0035624812282871
  24    0.0010406452726078
  25    0.00057097857094963
  26    -0.00078400319534798
  27    0.00028325719450643
  28    0.00036210716918421
  29    -0.00020938832778057
  30    -0.00024625430335333
  31    0.0013426698307359
  32    -0.0040727907663447
  33    -0.023803909960374
  34    0.00072266964527074
  35    -0.0046661679865591
  36    -0.00093154433126605
  37    -0.00046353794833067
  38    0.0014147077455823
  39    0.0027636195325053
  40    -0.00092067859187656
  41    -0.0028548829844558
  42    0.00060334924018657
  43    -0.0011838168876379
  44    -0.00063574072659355
  45    0.00041830532951118
  46    0.00047507244254358
  47    0.00047073959084366
  48    0.00012567718562592
  49    0.00015111152529616
  50    0.00039270775411525
  51     0.001523326924174
  52    -0.00034318707335835
  53    -0.0001775818383552
  54    0.00024897586826151
  55    0.0043642851650632
  56    0.00098975907052429
  57    -0.0038914499314603
  58    0.00012228467729618
  59    -0.00014141730978403
  60    7.3440080537171e-05
  61    -2.408049302651e-05
  62    0.00022402460009842
  63    0.00035568711069841
  64    -1.500070619896e-05
  65    6.7065544359858e-06
  66    1.8730417110758e-05
  67    1.9800980443683e-06
  68    -8.2530209892358e-06
  69    9.0491986685924e-06
  70    -7.7762020071694e-06
  71    3.2220811112521e-06
  72    1.0450830360701e-05
  73    -2.3146885892746e-05
  74    -1.7984343828171e-05
  75    -2.118302826161e-05
  76    9.2995006565455e-07
  77    3.9267937126338e-07
  78    -4.3576367984385e-09
  79    -2.6728710753619e-07
  80    7.5633077031703e-07
  81    -2.7290269453686e-07
  82    -7.128338329239e-06
  83    -1.6094706381488e-06
  84    2.8920979785921e-06
  85    2.5274951304724e-05
  86    2.2513798691131e-06
  87    1.3493238794586e-05
  88    -1.8867496362958e-05
  89    -3.0881042656967e-06
  90    5.3968736968495e-05
  91    -5.611648577558e-06
  92    -1.8334758440812e-06
  93     3.51414732624e-06
  94    1.0908523234971e-06
  95    1.8759508363311e-06
  96    4.0905450726718e-06
  97    1.5276068164803e-05
  98    2.2021954441444e-05
  99    -1.584099585686e-05
 100    -1.5102861114723e-05
 101    9.4186229503152e-06
 102    -9.3845597269424e-06
 103    -0.0001138260587092
 104    -2.3699971027355e-05
 105    -9.5959934807502e-05
 106    2.8471975559293e-05
 107    8.4498317339014e-05
 108    -0.00020141596749299
 109    -7.2083969235266e-05
 110    7.2009032996457e-06
 111    -6.1990267293531e-07
 112    1.041737718685e-06
 113    2.8499737849781e-06
 114    5.7840321157684e-06
 115    2.2470641152694e-06
 116    3.1098938940011e-05
 117    -0.00017587457696579
 118    1.4990827173421e-06
 119    1.4603429676299e-05
 120    -1.0673111816927e-05
 121    3.7979184569601e-05
 122    -2.0055818967237e-05
 123    -1.3199064779199e-05
 124    -4.1393064134541e-07
 125    1.1977879960913e-06
 126    -4.0833828969232e-08
 127    1.3929633257488e-06
 128    4.8165394428167e-06
 129    1.7050055670145e-05
 130    6.3112401687437e-06
 131    -1.924522090113e-05
 132    -4.3738687135908e-05
 133    -4.8531329192795e-05
 134    5.1360976251298e-06
 135    0.00016670345194348
 136    -3.9697935405122e-05
 137    0.0002165629461791
 138    1.5897000975681e-06
 139    -1.7466378415975e-05
 140    -7.3544634626916e-06
 141    -1.0741674953764e-05
 142    -7.803300818504e-06
 143    -3.7315503196554e-06
 144    3.3979790595786e-05
 145    -2.3897424589622e-05
 146    1.1342296498687e-05
 147    -1.1811926760338e-05
 148    -2.0948460847609e-05
 149    1.2793184451956e-05
 150    -2.6405945617236e-05
 151    8.734370371694e-05
 152    2.4703733986387e-06
 153    6.2507026944681e-06
 154    3.114082817358e-06
 155    -4.4075554549085e-06
 156    6.1659143206653e-07
 157    -2.9720366421627e-06
 158    -8.5832588257915e-06
 159    6.1496716235421e-05
 160    -4.0454974472778e-06
 161    -6.2898260943329e-06
 162    7.8701448931216e-07
 163    4.5652468505989e-05
 164    -3.8322914936264e-05
 165    -1.3924864822338e-05
 166    -3.7679408396162e-06
 167    1.6907281035306e-06
 168    3.4584575916977e-07
 169    -1.6156854136333e-06
 170    -1.2705526286036e-06
 171    2.2504551003971e-06
 172    1.1387037620326e-05
 173    -4.9378239950984e-05
 174    -1.2102632165634e-05
 175    -3.4089473617825e-06
 176    -3.4208367988962e-05
 177    -1.5296653318383e-05
 178    4.8392908122745e-06
 179    5.7238263171319e-06
 180    -1.3491939635447e-06
 181    -3.7615410413659e-06
 182    -1.1489250394838e-06
 183    1.9496562637014e-06
 184    -8.0948148537935e-07
 185    3.1791111383126e-06
 186    2.2112539190219e-05
 187    -9.5395849107521e-05
 188    2.1797296794958e-06
 189    7.2502808694537e-06
 190    -4.2057177489605e-06
 191    1.2940306963782e-05
 192    3.1550468999364e-05
 193    6.3966273722692e-05
 194    -1.31219193618e-06
 195    -1.6607244986791e-06
 196    -1.880892722546e-06
 197    -8.6297413992533e-07
 198    -2.8765037030877e-07
 199    8.5408336709863e-06
 200    -6.0710618646888e-06
 201    2.6461231668947e-06
 202    -1.3837382713039e-05
 203    -9.0217867190576e-06
 204    -3.2201016063769e-05
 205    2.0035331033995e-05
 206    5.6801236355354e-05
 207    -8.7593560650244e-06
 208    3.7762184778854e-05
 209    -8.7406543736246e-06
 210    2.3755191960088e-05
 211    -7.822189876998e-06
 212    -1.6832862148329e-05
 213    -7.7985018097278e-07
 214    1.7567049891632e-05
 215    1.3580373601341e-05
 216    4.2800303240651e-05
 217    -2.5077733391649e-06
 218    -3.4062427096189e-06
 219    -7.0747595678318e-06
 220    6.0951418805053e-06
 221    -1.7966121576985e-05
 222    4.0716571055485e-05
 223    -0.00088479470330782
 224    0.00020458499875314
 225    0.00010287473005835
 226    -3.519500315692e-05
 227    -0.00058935916536977
 228    -0.00020433848674559
 229    0.00052339267255657
 230    -9.4971654844483e-06
 231    2.8312487036097e-05
 232    1.1190336140662e-05
 233    -2.2599744848877e-05
 234    -1.6248620853408e-05
 235    0.00021971878729681
 236    -0.0002652995453138
 237    -0.00066798882174769
 238    6.9393543847631e-05
 239    -5.8133503075404e-07
 240    0.0005464393526935
 241    -0.00016041446052713
 242    -0.00037509434301206
 243    0.0018476399744999
 244    -3.4510461478681e-05
 245    -6.581773603376e-05
 246    6.0363102365757e-06
 247    -2.0144718419568e-05
 248    6.579406737925e-06
 249    -8.754362540148e-05
 250    -0.00038994510604407
 251    -0.00017266943253627
 252    0.00020053403147351
 253    -0.00046526395380258
 254    -0.00067547013692526
 255     -1.9808852613e-05
 256    -0.00071933898388822
 257    0.00051276552458382
 258    7.8564217402707e-05
 259     0.001324994164344
 260    6.9597886720039e-05
 261    -7.1620115598648e-06
 262    -8.9034516531476e-06
 263    -0.00013190503102226
 264    -5.1619948577895e-05
 265    5.8834415061113e-05
 266    -9.2858292629447e-05
 267    0.00051902746063406
 268    0.0010084769249703
 269    0.00010553869008054
 270    0.00052155019101462
 271    -0.0050314924254583
 272    0.00033551131828008
 273    -0.00019939791068514
 274    -5.9222065356515e-05
 275    0.0010422204612582
 276    0.0011973476255646
 277    -0.0029137313003233
 278    -0.00011484505134124
 279    0.00011139026100877
 280    9.6352154477952e-05