[Molden Format]
made by pyscf v[2.0.1]
[Atoms] (AU)
C   1   6     0.69100024066471     0.64692934207205    -3.48223131169301
H   2   1     2.68052439830868     1.13355088658700    -3.25784032593313
C   3   6    -0.36286361513219     0.85440132524594    -5.97030179418974
H   4   1    -2.35448549047279     0.36322488579172    -6.17995817793143
C   5   6     0.93697958957450     1.61209284601821    -8.05828437677121
H   6   1     2.28684852848462     3.15852966115860    -7.89296704602693
C   7   6     0.63106041134958     0.47904579632082   -10.50346361691732
H   8   1    -0.72718870892227    -1.06897620367389   -10.63951300078030
H   9   1     1.55630230933075    -1.92953025305990    12.99630010416247
C   10   6     0.75233899775814    -2.21270439606481    11.10705728102219
H   11   1    -0.43433408177274    -3.90944857546550    11.22216085340412
C   12   6     2.86362581178706    -2.63237380607947     9.17926416456045
H   13   1     4.39038949912609    -1.24955421540245     9.49899813497433
H   14   1     3.74629220191363    -4.48798724300892     9.47414880959024
C   15   6     2.02478325613682    -2.42177285709634     6.44560829588644
C   16   6     3.88048732735477    -3.58795445234514     4.61402886975252
C   17   6    -0.18412382258602    -1.30464291234259     5.76021113872346
C   18   6    -2.10044360464350    -0.26837831858460     7.71610340967100
C   19   6    -3.08956938670431     2.35282328359417     6.88693925039594
C   20   6    -4.37372924086464    -2.09766595989678     7.93610724222001
C   21   6    -0.83850430601230     0.06372213486173    10.33002307638377
H   22   1     0.38411922151109     1.74281358582432    10.27380136542181
H   23   1    -2.30980003007874     0.45460143924521    11.73986301809809
H   24   1     4.58527064644668    -5.38706904487420     5.36778158031719
H   25   1     5.54944938085014    -2.37631462192748     4.35398898413318
H   26   1     3.06633019150423    -3.94118377050688     2.75255466040884
H   27   1    -4.17727778763735     2.26573369139522     5.12914900961283
H   28   1    -1.52662344944051     3.68001877445626     6.59540397144508
H   29   1    -4.32916174397830     3.13643051467482     8.35225460090378
H   30   1    -5.32329548508442    -2.36691813602939     6.11583672749896
H   31   1    -5.77989366602257    -1.33896741843465     9.25748940450990
H   32   1    -3.79310905208926    -3.96389819310853     8.61386170102686
C   33   6    -1.01100794811226    -1.06331657314144     3.11929490449947
C   34   6     0.37686231036534    -0.33275864505552     1.09165013605873
H   35   1    -3.01671213906703    -1.40297922279997     2.77827895090944
C   36   6    -0.64382707979370    -0.11591880174385    -1.42063131251064
H   37   1     2.35569259782137     0.17174499283897     1.33641070251401
H   38   1    -2.63317482980319    -0.60229203511219    -1.66119700387645
C   39   6     1.88057107480096     1.17167710004378   -12.63318625924474
C   40   6     1.43424299107759    -0.10242214041261   -15.03828188134704
H   41   1     3.25774949416826     2.69847908646217   -12.62832443574420
O   42   8     2.48751113017790     0.42264932688836   -17.02215443525925
H   43   1     0.01015752982003    -1.65333508727432   -14.95564685399208
[GTO]
1 0
 s    6 1.00
             3047.5249  0.0018347001629433
             457.36951    0.01403730124668
             103.94869   0.068842606114048
             29.210155    0.23218442062076
              9.286663    0.46794134155879
              3.163927    0.36231203217765
 s    3 1.00
             7.8682724   -0.11933240861517
             1.8812885   -0.16085421161283
             0.5442493     1.1434564825515
 s    1 1.00
             0.1687144                   1
 p    3 1.00
             7.8682724   0.068999095584993
             1.8812885    0.31642397975315
             0.5442493    0.74430825237435
 p    1 1.00
             0.1687144                   1
 d    1 1.00
                   0.8                   1

2 0
 s    3 1.00
             18.731137    0.03349459952309
             2.8253937    0.23472694665786
             0.6401217    0.81375731841339
 s    1 1.00
             0.1612778                   1

3 0
 s    6 1.00
             3047.5249  0.0018347001629433
             457.36951    0.01403730124668
             103.94869   0.068842606114048
             29.210155    0.23218442062076
              9.286663    0.46794134155879
              3.163927    0.36231203217765
 s    3 1.00
             7.8682724   -0.11933240861517
             1.8812885   -0.16085421161283
             0.5442493     1.1434564825515
 s    1 1.00
             0.1687144                   1
 p    3 1.00
             7.8682724   0.068999095584993
             1.8812885    0.31642397975315
             0.5442493    0.74430825237435
 p    1 1.00
             0.1687144                   1
 d    1 1.00
                   0.8                   1

4 0
 s    3 1.00
             18.731137    0.03349459952309
             2.8253937    0.23472694665786
             0.6401217    0.81375731841339
 s    1 1.00
             0.1612778                   1

5 0
 s    6 1.00
             3047.5249  0.0018347001629433
             457.36951    0.01403730124668
             103.94869   0.068842606114048
             29.210155    0.23218442062076
              9.286663    0.46794134155879
              3.163927    0.36231203217765
 s    3 1.00
             7.8682724   -0.11933240861517
             1.8812885   -0.16085421161283
             0.5442493     1.1434564825515
 s    1 1.00
             0.1687144                   1
 p    3 1.00
             7.8682724   0.068999095584993
             1.8812885    0.31642397975315
             0.5442493    0.74430825237435
 p    1 1.00
             0.1687144                   1
 d    1 1.00
                   0.8                   1

6 0
 s    3 1.00
             18.731137    0.03349459952309
             2.8253937    0.23472694665786
             0.6401217    0.81375731841339
 s    1 1.00
             0.1612778                   1

7 0
 s    6 1.00
             3047.5249  0.0018347001629433
             457.36951    0.01403730124668
             103.94869   0.068842606114048
             29.210155    0.23218442062076
              9.286663    0.46794134155879
              3.163927    0.36231203217765
 s    3 1.00
             7.8682724   -0.11933240861517
             1.8812885   -0.16085421161283
             0.5442493     1.1434564825515
 s    1 1.00
             0.1687144                   1
 p    3 1.00
             7.8682724   0.068999095584993
             1.8812885    0.31642397975315
             0.5442493    0.74430825237435
 p    1 1.00
             0.1687144                   1
 d    1 1.00
                   0.8                   1

8 0
 s    3 1.00
             18.731137    0.03349459952309
             2.8253937    0.23472694665786
             0.6401217    0.81375731841339
 s    1 1.00
             0.1612778                   1

9 0
 s    3 1.00
             18.731137    0.03349459952309
             2.8253937    0.23472694665786
             0.6401217    0.81375731841339
 s    1 1.00
             0.1612778                   1

10 0
 s    6 1.00
             3047.5249  0.0018347001629433
             457.36951    0.01403730124668
             103.94869   0.068842606114048
             29.210155    0.23218442062076
              9.286663    0.46794134155879
              3.163927    0.36231203217765
 s    3 1.00
             7.8682724   -0.11933240861517
             1.8812885   -0.16085421161283
             0.5442493     1.1434564825515
 s    1 1.00
             0.1687144                   1
 p    3 1.00
             7.8682724   0.068999095584993
             1.8812885    0.31642397975315
             0.5442493    0.74430825237435
 p    1 1.00
             0.1687144                   1
 d    1 1.00
                   0.8                   1

11 0
 s    3 1.00
             18.731137    0.03349459952309
             2.8253937    0.23472694665786
             0.6401217    0.81375731841339
 s    1 1.00
             0.1612778                   1

12 0
 s    6 1.00
             3047.5249  0.0018347001629433
             457.36951    0.01403730124668
             103.94869   0.068842606114048
             29.210155    0.23218442062076
              9.286663    0.46794134155879
              3.163927    0.36231203217765
 s    3 1.00
             7.8682724   -0.11933240861517
             1.8812885   -0.16085421161283
             0.5442493     1.1434564825515
 s    1 1.00
             0.1687144                   1
 p    3 1.00
             7.8682724   0.068999095584993
             1.8812885    0.31642397975315
             0.5442493    0.74430825237435
 p    1 1.00
             0.1687144                   1
 d    1 1.00
                   0.8                   1

13 0
 s    3 1.00
             18.731137    0.03349459952309
             2.8253937    0.23472694665786
             0.6401217    0.81375731841339
 s    1 1.00
             0.1612778                   1

14 0
 s    3 1.00
             18.731137    0.03349459952309
             2.8253937    0.23472694665786
             0.6401217    0.81375731841339
 s    1 1.00
             0.1612778                   1

15 0
 s    6 1.00
             3047.5249  0.0018347001629433
             457.36951    0.01403730124668
             103.94869   0.068842606114048
             29.210155    0.23218442062076
              9.286663    0.46794134155879
              3.163927    0.36231203217765
 s    3 1.00
             7.8682724   -0.11933240861517
             1.8812885   -0.16085421161283
             0.5442493     1.1434564825515
 s    1 1.00
             0.1687144                   1
 p    3 1.00
             7.8682724   0.068999095584993
             1.8812885    0.31642397975315
             0.5442493    0.74430825237435
 p    1 1.00
             0.1687144                   1
 d    1 1.00
                   0.8                   1

16 0
 s    6 1.00
             3047.5249  0.0018347001629433
             457.36951    0.01403730124668
             103.94869   0.068842606114048
             29.210155    0.23218442062076
              9.286663    0.46794134155879
              3.163927    0.36231203217765
 s    3 1.00
             7.8682724   -0.11933240861517
             1.8812885   -0.16085421161283
             0.5442493     1.1434564825515
 s    1 1.00
             0.1687144                   1
 p    3 1.00
             7.8682724   0.068999095584993
             1.8812885    0.31642397975315
             0.5442493    0.74430825237435
 p    1 1.00
             0.1687144                   1
 d    1 1.00
                   0.8                   1

17 0
 s    6 1.00
             3047.5249  0.0018347001629433
             457.36951    0.01403730124668
             103.94869   0.068842606114048
             29.210155    0.23218442062076
              9.286663    0.46794134155879
              3.163927    0.36231203217765
 s    3 1.00
             7.8682724   -0.11933240861517
             1.8812885   -0.16085421161283
             0.5442493     1.1434564825515
 s    1 1.00
             0.1687144                   1
 p    3 1.00
             7.8682724   0.068999095584993
             1.8812885    0.31642397975315
             0.5442493    0.74430825237435
 p    1 1.00
             0.1687144                   1
 d    1 1.00
                   0.8                   1

18 0
 s    6 1.00
             3047.5249  0.0018347001629433
             457.36951    0.01403730124668
             103.94869   0.068842606114048
             29.210155    0.23218442062076
              9.286663    0.46794134155879
              3.163927    0.36231203217765
 s    3 1.00
             7.8682724   -0.11933240861517
             1.8812885   -0.16085421161283
             0.5442493     1.1434564825515
 s    1 1.00
             0.1687144                   1
 p    3 1.00
             7.8682724   0.068999095584993
             1.8812885    0.31642397975315
             0.5442493    0.74430825237435
 p    1 1.00
             0.1687144                   1
 d    1 1.00
                   0.8                   1

19 0
 s    6 1.00
             3047.5249  0.0018347001629433
             457.36951    0.01403730124668
             103.94869   0.068842606114048
             29.210155    0.23218442062076
              9.286663    0.46794134155879
              3.163927    0.36231203217765
 s    3 1.00
             7.8682724   -0.11933240861517
             1.8812885   -0.16085421161283
             0.5442493     1.1434564825515
 s    1 1.00
             0.1687144                   1
 p    3 1.00
             7.8682724   0.068999095584993
             1.8812885    0.31642397975315
             0.5442493    0.74430825237435
 p    1 1.00
             0.1687144                   1
 d    1 1.00
                   0.8                   1

20 0
 s    6 1.00
             3047.5249  0.0018347001629433
             457.36951    0.01403730124668
             103.94869   0.068842606114048
             29.210155    0.23218442062076
              9.286663    0.46794134155879
              3.163927    0.36231203217765
 s    3 1.00
             7.8682724   -0.11933240861517
             1.8812885   -0.16085421161283
             0.5442493     1.1434564825515
 s    1 1.00
             0.1687144                   1
 p    3 1.00
             7.8682724   0.068999095584993
             1.8812885    0.31642397975315
             0.5442493    0.74430825237435
 p    1 1.00
             0.1687144                   1
 d    1 1.00
                   0.8                   1

21 0
 s    6 1.00
             3047.5249  0.0018347001629433
             457.36951    0.01403730124668
             103.94869   0.068842606114048
             29.210155    0.23218442062076
              9.286663    0.46794134155879
              3.163927    0.36231203217765
 s    3 1.00
             7.8682724   -0.11933240861517
             1.8812885   -0.16085421161283
             0.5442493     1.1434564825515
 s    1 1.00
             0.1687144                   1
 p    3 1.00
             7.8682724   0.068999095584993
             1.8812885    0.31642397975315
             0.5442493    0.74430825237435
 p    1 1.00
             0.1687144                   1
 d    1 1.00
                   0.8                   1

22 0
 s    3 1.00
             18.731137    0.03349459952309
             2.8253937    0.23472694665786
             0.6401217    0.81375731841339
 s    1 1.00
             0.1612778                   1

23 0
 s    3 1.00
             18.731137    0.03349459952309
             2.8253937    0.23472694665786
             0.6401217    0.81375731841339
 s    1 1.00
             0.1612778                   1

24 0
 s    3 1.00
             18.731137    0.03349459952309
             2.8253937    0.23472694665786
             0.6401217    0.81375731841339
 s    1 1.00
             0.1612778                   1

25 0
 s    3 1.00
             18.731137    0.03349459952309
             2.8253937    0.23472694665786
             0.6401217    0.81375731841339
 s    1 1.00
             0.1612778                   1

26 0
 s    3 1.00
             18.731137    0.03349459952309
             2.8253937    0.23472694665786
             0.6401217    0.81375731841339
 s    1 1.00
             0.1612778                   1

27 0
 s    3 1.00
             18.731137    0.03349459952309
             2.8253937    0.23472694665786
             0.6401217    0.81375731841339
 s    1 1.00
             0.1612778                   1

28 0
 s    3 1.00
             18.731137    0.03349459952309
             2.8253937    0.23472694665786
             0.6401217    0.81375731841339
 s    1 1.00
             0.1612778                   1

29 0
 s    3 1.00
             18.731137    0.03349459952309
             2.8253937    0.23472694665786
             0.6401217    0.81375731841339
 s    1 1.00
             0.1612778                   1

30 0
 s    3 1.00
             18.731137    0.03349459952309
             2.8253937    0.23472694665786
             0.6401217    0.81375731841339
 s    1 1.00
             0.1612778                   1

31 0
 s    3 1.00
             18.731137    0.03349459952309
             2.8253937    0.23472694665786
             0.6401217    0.81375731841339
 s    1 1.00
             0.1612778                   1

32 0
 s    3 1.00
             18.731137    0.03349459952309
             2.8253937    0.23472694665786
             0.6401217    0.81375731841339
 s    1 1.00
             0.1612778                   1

33 0
 s    6 1.00
             3047.5249  0.0018347001629433
             457.36951    0.01403730124668
             103.94869   0.068842606114048
             29.210155    0.23218442062076
              9.286663    0.46794134155879
              3.163927    0.36231203217765
 s    3 1.00
             7.8682724   -0.11933240861517
             1.8812885   -0.16085421161283
             0.5442493     1.1434564825515
 s    1 1.00
             0.1687144                   1
 p    3 1.00
             7.8682724   0.068999095584993
             1.8812885    0.31642397975315
             0.5442493    0.74430825237435
 p    1 1.00
             0.1687144                   1
 d    1 1.00
                   0.8                   1

34 0
 s    6 1.00
             3047.5249  0.0018347001629433
             457.36951    0.01403730124668
             103.94869   0.068842606114048
             29.210155    0.23218442062076
              9.286663    0.46794134155879
              3.163927    0.36231203217765
 s    3 1.00
             7.8682724   -0.11933240861517
             1.8812885   -0.16085421161283
             0.5442493     1.1434564825515
 s    1 1.00
             0.1687144                   1
 p    3 1.00
             7.8682724   0.068999095584993
             1.8812885    0.31642397975315
             0.5442493    0.74430825237435
 p    1 1.00
             0.1687144                   1
 d    1 1.00
                   0.8                   1

35 0
 s    3 1.00
             18.731137    0.03349459952309
             2.8253937    0.23472694665786
             0.6401217    0.81375731841339
 s    1 1.00
             0.1612778                   1

36 0
 s    6 1.00
             3047.5249  0.0018347001629433
             457.36951    0.01403730124668
             103.94869   0.068842606114048
             29.210155    0.23218442062076
              9.286663    0.46794134155879
              3.163927    0.36231203217765
 s    3 1.00
             7.8682724   -0.11933240861517
             1.8812885   -0.16085421161283
             0.5442493     1.1434564825515
 s    1 1.00
             0.1687144                   1
 p    3 1.00
             7.8682724   0.068999095584993
             1.8812885    0.31642397975315
             0.5442493    0.74430825237435
 p    1 1.00
             0.1687144                   1
 d    1 1.00
                   0.8                   1

37 0
 s    3 1.00
             18.731137    0.03349459952309
             2.8253937    0.23472694665786
             0.6401217    0.81375731841339
 s    1 1.00
             0.1612778                   1

38 0
 s    3 1.00
             18.731137    0.03349459952309
             2.8253937    0.23472694665786
             0.6401217    0.81375731841339
 s    1 1.00
             0.1612778                   1

39 0
 s    6 1.00
             3047.5249  0.0018347001629433
             457.36951    0.01403730124668
             103.94869   0.068842606114048
             29.210155    0.23218442062076
              9.286663    0.46794134155879
              3.163927    0.36231203217765
 s    3 1.00
             7.8682724   -0.11933240861517
             1.8812885   -0.16085421161283
             0.5442493     1.1434564825515
 s    1 1.00
             0.1687144                   1
 p    3 1.00
             7.8682724   0.068999095584993
             1.8812885    0.31642397975315
             0.5442493    0.74430825237435
 p    1 1.00
             0.1687144                   1
 d    1 1.00
                   0.8                   1

40 0
 s    6 1.00
             3047.5249  0.0018347001629433
             457.36951    0.01403730124668
             103.94869   0.068842606114048
             29.210155    0.23218442062076
              9.286663    0.46794134155879
              3.163927    0.36231203217765
 s    3 1.00
             7.8682724   -0.11933240861517
             1.8812885   -0.16085421161283
             0.5442493     1.1434564825515
 s    1 1.00
             0.1687144                   1
 p    3 1.00
             7.8682724   0.068999095584993
             1.8812885    0.31642397975315
             0.5442493    0.74430825237435
 p    1 1.00
             0.1687144                   1
 d    1 1.00
                   0.8                   1

41 0
 s    3 1.00
             18.731137    0.03349459952309
             2.8253937    0.23472694665786
             0.6401217    0.81375731841339
 s    1 1.00
             0.1612778                   1

42 0
 s    6 1.00
             5484.6717   0.001831099805527
             825.23495   0.013950098518422
             188.04696    0.06844509273075
               52.9645    0.23271427528445
              16.89757    0.47019295006289
             5.7996353    0.35852086192309
 s    3 1.00
             15.539616   -0.11077750382508
             3.5999336   -0.14802630511126
             1.0137618     1.1307670390447
 s    1 1.00
             0.2700058                   1
 p    3 1.00
             15.539616   0.070874299543311
             3.5999336    0.33975279781076
             1.0137618    0.72715859531445
 p    1 1.00
             0.2700058                   1
 d    1 1.00
                   0.8                   1

43 0
 s    3 1.00
             18.731137    0.03349459952309
             2.8253937    0.23472694665786
             0.6401217    0.81375731841339
 s    1 1.00
             0.1612778                   1

[5d]
[7f]
[9g]

[MO]
 Sym= A
 Ene=               0
 Spin= Alpha
 Occup=    1.00000
   1    -3.8084527923872e-06
   2    -9.0742416501985e-06
   3    -0.00014375585126141
   4    -6.4886200835031e-06
   5    -3.1873906130711e-05
   6    3.792156050794e-06
   7    0.00017901436756945
   8    0.00021325942857179
   9    -0.00039227936119616
  10    1.2458289014529e-05
  11    1.270843130937e-05
  12    -1.2009446001287e-06
  13    -2.8434503417436e-06
  14    2.4170716065328e-06
  15    -2.4185422641235e-05
  16    -3.6326901054477e-05
  17    1.043211567454e-05
  18    -2.2339337064119e-05
  19    -0.0014337737850777
  20    -3.0866627731121e-05
  21    1.2399639777908e-05
  22    7.7430224113631e-05
  23    -0.00032164092727952
  24    -8.7911969655457e-05
  25    0.00076646090386119
  26    -4.2854334905252e-05
  27    2.1384126261685e-05
  28    1.8526089372079e-05
  29    -3.0898966280317e-05
  30    3.2304112943737e-05
  31    1.5487250723526e-06
  32    4.0350344145709e-05
  33    -7.2346282893049e-05
  34    -0.00034712831236197
  35    0.0051362741744825
  36    4.0154270602629e-05
  37    -2.3963148450358e-05
  38    -0.00016941708976066
  39    -0.0011426533485399
  40    -0.0015860416625835
  41    -0.0012846330962242
  42    0.00013573270008769
  43    -1.5135291023729e-05
  44    8.7145382899974e-05
  45    -1.6370343197594e-05
  46    4.5646476367795e-05
  47    1.8165043614247e-05
  48    0.00031540128943104
  49    2.2323108561734e-05
  50    -0.00016580687567706
  51    -0.0040380956329232
  52    1.7463531627493e-05
  53    0.00016459571420281
  54    0.00043561316298886
  55    -0.00063178596896413
  56    -0.0019216736845937
  57    -0.003598647830535
  58    -8.6702423463816e-05
  59    -0.00012577097925784
  60    -0.00015956314687704
  61    3.6122422100336e-05
  62    0.00010810093434892
  63    -0.00032751725436918
  64    -0.00010580060347287
  65    5.5630838541507e-08
  66    1.2232345093497e-06
  67    -5.0197077260828e-08
  68    -5.2862366816935e-07
  69    -1.6877604061463e-06
  70    3.2902220934852e-07
  71    -3.7319012474343e-07
  72    2.317033025904e-07
  73    1.2215456963715e-06
  74    -2.7355271992827e-07
  75    -1.6817579359407e-06
  76    1.5071451358303e-07
  77    9.5149466445718e-08
  78    5.6128691544423e-08
  79    2.0295020106969e-08
  80    7.9471070917957e-08
  81    6.6534552689942e-08
  82    3.8103875358344e-07
  83    1.376615698292e-07
  84    9.5534181435346e-07
  85    -2.3514838118328e-06
  86    1.0300797219965e-07
  87    -8.9728712245417e-08
  88    1.6589498155204e-07
  89    1.5204678675492e-06
  90    -2.7295680049748e-06
  91    -2.0158018320502e-07
  92    -1.1364935961872e-07
  93    -1.6918858637622e-07
  94    4.0926821633204e-07
  95    -1.6142511018379e-07
  96    4.2906699827148e-08
  97    5.5853505543747e-07
  98    2.9217944926938e-08
  99    -1.018200860845e-07
 100    -4.2389256614003e-07
 101    -2.7447469563263e-07
 102    -5.0369767061974e-07
 103    3.4775534514506e-05
 104    -5.2775193233965e-07
 105    2.7074002338432e-07
 106    -1.2434346747407e-06
 107    -1.1790461824735e-05
 108    1.3195545258393e-05
 109    -8.1309111345205e-06
 110    5.5074710679906e-07
 111    7.7269678320846e-07
 112    -3.5465397782136e-07
 113    -6.6131181254538e-07
 114    -7.4388644362092e-07
 115    4.0008928132981e-07
 116     4.06974816811e-06
 117    -1.6491610303971e-05
 118    -4.3824729150267e-09
 119    2.9369694222037e-07
 120    -9.4587654624354e-07
 121    3.5435008760798e-06
 122    -4.1592337576554e-06
 123    1.0181809311349e-05
 124    2.7420562678657e-07
 125    -3.9826050272395e-07
 126    -2.1914530748993e-07
 127    4.3182582530529e-08
 128    -5.4990466009752e-08
 129    4.1822921657513e-07
 130    5.0440329053462e-06
 131    1.6638185417371e-05
 132    2.9967726100012e-06
 133    1.845950484888e-06
 134    -3.7521404788891e-06
 135    -5.0060083021232e-05
 136    3.3744681588341e-07
 137    2.5762404342717e-07
 138    -1.4345113293077e-07
 139    2.6105264933452e-07
 140    1.2497436895503e-06
 141    -3.0495599764508e-07
 142    8.2300347828689e-07
 143    1.4373511113181e-08
 144    -1.303344591733e-06
 145    -1.7981039051468e-05
 146    -5.240895187061e-07
 147    -1.1960398773701e-06
 148    2.8621910120283e-06
 149    -6.9690292404099e-06
 150    2.3894490449415e-05
 151    -1.1475476487635e-05
 152    -9.9744014865563e-08
 153    1.1677849695052e-07
 154    -1.1104202108844e-06
 155    -2.8485408310014e-07
 156    -4.6546759869433e-07
 157    3.7141504535607e-07
 158    2.5786276326516e-06
 159    -1.968770984377e-05
 160    -1.5946974584935e-07
 161    7.2611060042883e-07
 162    -6.6180269959954e-07
 163    -4.4251335723241e-06
 164    7.4670565919433e-06
 165    9.2408157955503e-07
 166    5.7106761519654e-07
 167    -2.734245319876e-07
 168    1.3683108575805e-07
 169    3.0353611610668e-07
 170    4.3149207385899e-07
 171    2.6871081372543e-09
 172    2.796321234206e-07
 173    3.5140976704885e-06
 174    2.473379977108e-07
 175    -9.1208159395139e-08
 176    5.109648635473e-07
 177    6.8241333166913e-06
 178    2.2566740861309e-06
 179    4.2329655569985e-06
 180    -2.6631520913544e-07
 181    7.1523668984037e-07
 182    9.5612905592211e-08
 183    5.2268772575168e-07
 184    5.2170321926519e-07
 185    -2.9218556216027e-07
 186    -2.2026896771096e-06
 187     1.39850100025e-05
 188    -5.2824032397342e-07
 189    -8.873092974106e-08
 190    -3.9926943576093e-07
 191    -1.5326318619226e-06
 192    -6.2628864942467e-06
 193    -4.8168556747187e-06
 194    9.6820809858117e-08
 195    4.5450696188949e-07
 196    8.6669435118784e-07
 197    -2.2896589787145e-07
 198    2.1012473392301e-07
 199    -6.1474315395944e-07
 200    1.6471564627877e-06
 201    -3.2438811101386e-07
 202    -3.8886375046509e-07
 203    2.7172703941438e-07
 204    -2.0987867279503e-06
 205    1.6888829645971e-06
 206    1.1181651632525e-06
 207    -1.5168978233237e-06
 208    1.749272705147e-05
 209    1.0200435402029e-06
 210    1.4330825095269e-06
 211    1.069067686419e-06
 212    9.631454716139e-07
 213    3.6238624559031e-07
 214    -1.0155357977603e-06
 215    -1.256772215091e-06
 216    9.516897675269e-06
 217    1.9072431241718e-07
 218    -5.2542730713398e-07
 219    4.1007149754926e-07
 220    -1.6297422066059e-06
 221    -1.4746492031255e-06
 222    -8.8721266449379e-06
 223    0.0001251625296656
 224    3.5997943582578e-06
 225    -2.5413766505981e-07
 226    -3.1100298416831e-08
 227    9.4547977364245e-06
 228    2.1446142493673e-05
 229    -0.00012376834635529
 230    3.5905785573648e-06
 231    -3.9408212624714e-06
 232    -2.4261294870543e-06
 233    1.2920803209865e-06
 234    6.0415396352223e-08
 235    4.5902189468077e-06
 236    3.0431961699429e-05
 237    -0.00042506894466614
 238    -1.4688541585966e-06
 239    -5.9597231778335e-06
 240    7.6299242546638e-06
 241    0.00013122742338857
 242    3.8966448043957e-05
 243    0.0001069919986265
 244    -1.2982547894829e-05
 245    -7.7309876483058e-07
 246    1.3671638042214e-06
 247    -1.4623959308552e-06
 248    -3.8375543420454e-06
 249    -5.6268330743841e-06
 250    -1.6524409273544e-05
 251    -2.9633582248353e-06
 252    -2.2696330845775e-05
 253    0.00056676883556137
 254    -1.2109157402337e-05
 255    1.3466238343884e-05
 256    -1.9189826572252e-05
 257    0.0002486378406115
 258    -2.8167248450332e-05
 259    0.00012067669181449
 260    1.2055613046196e-05
 261    3.5992004961026e-07
 262    2.7928695745533e-07
 263    2.7811517340524e-06
 264    -4.4625058730737e-06
 265    -1.4769951383363e-06
 266    -1.3853600289665e-05
 267    1.7978507811812e-05
 268    2.1594537684087e-05
 269    7.1775073776454e-05
 270    9.0523708537112e-05
 271    -0.003234970060282
 272    0.00015689823939105
 273    0.00016368351156798
 274    7.4983479308163e-06
 275    -0.0018101076127364
 276    -0.00076720374371933
 277    0.0038057295313207
 278    -0.00037301403737814
 279    0.00011648910393051
 280    -2.6639303355887e-05