[Molden Format]
made by pyscf v[2.0.1]
[Atoms] (AU)
C   1   6     0.69100024066471     0.64692934207205    -3.48223131169301
H   2   1     2.68052439830868     1.13355088658700    -3.25784032593313
C   3   6    -0.36286361513219     0.85440132524594    -5.97030179418974
H   4   1    -2.35448549047279     0.36322488579172    -6.17995817793143
C   5   6     0.93697958957450     1.61209284601821    -8.05828437677121
H   6   1     2.82520634269342     2.40231158819155    -7.83223822317356
C   7   6    -0.04591716574067     1.43050675384137   -10.57963800872440
H   8   1    -1.93966227025444     0.63380613673234   -10.77641154630544
H   9   1     1.55630230933075    -1.92953025305990    12.99630010416247
C   10   6     0.75233899775814    -2.21270439606481    11.10705728102219
H   11   1    -0.43433408177274    -3.90944857546550    11.22216085340412
C   12   6     2.86362581178706    -2.63237380607947     9.17926416456045
H   13   1     4.39038949912609    -1.24955421540245     9.49899813497433
H   14   1     3.74629220191363    -4.48798724300892     9.47414880959024
C   15   6     2.02478325613682    -2.42177285709634     6.44560829588644
C   16   6     3.88048732735477    -3.58795445234514     4.61402886975252
C   17   6    -0.18412382258602    -1.30464291234259     5.76021113872346
C   18   6    -2.10044360464350    -0.26837831858460     7.71610340967100
C   19   6    -3.08956938670431     2.35282328359417     6.88693925039594
C   20   6    -4.37372924086464    -2.09766595989678     7.93610724222001
C   21   6    -0.83850430601230     0.06372213486173    10.33002307638377
H   22   1     0.38411922151109     1.74281358582432    10.27380136542181
H   23   1    -2.30980003007874     0.45460143924521    11.73986301809809
H   24   1     4.58527064644668    -5.38706904487420     5.36778158031719
H   25   1     5.54944938085014    -2.37631462192748     4.35398898413318
H   26   1     3.06633019150423    -3.94118377050688     2.75255466040884
H   27   1    -4.17727778763735     2.26573369139522     5.12914900961283
H   28   1    -1.52662344944051     3.68001877445626     6.59540397144508
H   29   1    -4.32916174397830     3.13643051467482     8.35225460090378
H   30   1    -5.32329548508442    -2.36691813602939     6.11583672749896
H   31   1    -5.77989366602257    -1.33896741843465     9.25748940450990
H   32   1    -3.79310905208926    -3.96389819310853     8.61386170102686
C   33   6    -1.01100794811226    -1.06331657314144     3.11929490449947
C   34   6     0.37686231036534    -0.33275864505552     1.09165013605873
H   35   1    -3.01671213906703    -1.40297922279997     2.77827895090944
C   36   6    -0.64382707979370    -0.11591880174385    -1.42063131251064
H   37   1     2.35569259782137     0.17174499283897     1.33641070251401
H   38   1    -2.63317482980319    -0.60229203511219    -1.66119700387645
C   39   6     1.17709071185639     2.16235266520763   -12.71162929579923
C   40   6     0.01149368127442     1.89967079998079   -15.19747007607967
H   41   1     3.06674924318564     2.97042403350516   -12.64854490967844
O   42   8     1.00001917973751     2.51860460578581   -17.18758625638360
H   43   1    -1.92257659968242     1.06364005135718   -15.17290072571517
[GTO]
1 0
 s    6 1.00
             3047.5249  0.0018347001629433
             457.36951    0.01403730124668
             103.94869   0.068842606114048
             29.210155    0.23218442062076
              9.286663    0.46794134155879
              3.163927    0.36231203217765
 s    3 1.00
             7.8682724   -0.11933240861517
             1.8812885   -0.16085421161283
             0.5442493     1.1434564825515
 s    1 1.00
             0.1687144                   1
 p    3 1.00
             7.8682724   0.068999095584993
             1.8812885    0.31642397975315
             0.5442493    0.74430825237435
 p    1 1.00
             0.1687144                   1
 d    1 1.00
                   0.8                   1

2 0
 s    3 1.00
             18.731137    0.03349459952309
             2.8253937    0.23472694665786
             0.6401217    0.81375731841339
 s    1 1.00
             0.1612778                   1

3 0
 s    6 1.00
             3047.5249  0.0018347001629433
             457.36951    0.01403730124668
             103.94869   0.068842606114048
             29.210155    0.23218442062076
              9.286663    0.46794134155879
              3.163927    0.36231203217765
 s    3 1.00
             7.8682724   -0.11933240861517
             1.8812885   -0.16085421161283
             0.5442493     1.1434564825515
 s    1 1.00
             0.1687144                   1
 p    3 1.00
             7.8682724   0.068999095584993
             1.8812885    0.31642397975315
             0.5442493    0.74430825237435
 p    1 1.00
             0.1687144                   1
 d    1 1.00
                   0.8                   1

4 0
 s    3 1.00
             18.731137    0.03349459952309
             2.8253937    0.23472694665786
             0.6401217    0.81375731841339
 s    1 1.00
             0.1612778                   1

5 0
 s    6 1.00
             3047.5249  0.0018347001629433
             457.36951    0.01403730124668
             103.94869   0.068842606114048
             29.210155    0.23218442062076
              9.286663    0.46794134155879
              3.163927    0.36231203217765
 s    3 1.00
             7.8682724   -0.11933240861517
             1.8812885   -0.16085421161283
             0.5442493     1.1434564825515
 s    1 1.00
             0.1687144                   1
 p    3 1.00
             7.8682724   0.068999095584993
             1.8812885    0.31642397975315
             0.5442493    0.74430825237435
 p    1 1.00
             0.1687144                   1
 d    1 1.00
                   0.8                   1

6 0
 s    3 1.00
             18.731137    0.03349459952309
             2.8253937    0.23472694665786
             0.6401217    0.81375731841339
 s    1 1.00
             0.1612778                   1

7 0
 s    6 1.00
             3047.5249  0.0018347001629433
             457.36951    0.01403730124668
             103.94869   0.068842606114048
             29.210155    0.23218442062076
              9.286663    0.46794134155879
              3.163927    0.36231203217765
 s    3 1.00
             7.8682724   -0.11933240861517
             1.8812885   -0.16085421161283
             0.5442493     1.1434564825515
 s    1 1.00
             0.1687144                   1
 p    3 1.00
             7.8682724   0.068999095584993
             1.8812885    0.31642397975315
             0.5442493    0.74430825237435
 p    1 1.00
             0.1687144                   1
 d    1 1.00
                   0.8                   1

8 0
 s    3 1.00
             18.731137    0.03349459952309
             2.8253937    0.23472694665786
             0.6401217    0.81375731841339
 s    1 1.00
             0.1612778                   1

9 0
 s    3 1.00
             18.731137    0.03349459952309
             2.8253937    0.23472694665786
             0.6401217    0.81375731841339
 s    1 1.00
             0.1612778                   1

10 0
 s    6 1.00
             3047.5249  0.0018347001629433
             457.36951    0.01403730124668
             103.94869   0.068842606114048
             29.210155    0.23218442062076
              9.286663    0.46794134155879
              3.163927    0.36231203217765
 s    3 1.00
             7.8682724   -0.11933240861517
             1.8812885   -0.16085421161283
             0.5442493     1.1434564825515
 s    1 1.00
             0.1687144                   1
 p    3 1.00
             7.8682724   0.068999095584993
             1.8812885    0.31642397975315
             0.5442493    0.74430825237435
 p    1 1.00
             0.1687144                   1
 d    1 1.00
                   0.8                   1

11 0
 s    3 1.00
             18.731137    0.03349459952309
             2.8253937    0.23472694665786
             0.6401217    0.81375731841339
 s    1 1.00
             0.1612778                   1

12 0
 s    6 1.00
             3047.5249  0.0018347001629433
             457.36951    0.01403730124668
             103.94869   0.068842606114048
             29.210155    0.23218442062076
              9.286663    0.46794134155879
              3.163927    0.36231203217765
 s    3 1.00
             7.8682724   -0.11933240861517
             1.8812885   -0.16085421161283
             0.5442493     1.1434564825515
 s    1 1.00
             0.1687144                   1
 p    3 1.00
             7.8682724   0.068999095584993
             1.8812885    0.31642397975315
             0.5442493    0.74430825237435
 p    1 1.00
             0.1687144                   1
 d    1 1.00
                   0.8                   1

13 0
 s    3 1.00
             18.731137    0.03349459952309
             2.8253937    0.23472694665786
             0.6401217    0.81375731841339
 s    1 1.00
             0.1612778                   1

14 0
 s    3 1.00
             18.731137    0.03349459952309
             2.8253937    0.23472694665786
             0.6401217    0.81375731841339
 s    1 1.00
             0.1612778                   1

15 0
 s    6 1.00
             3047.5249  0.0018347001629433
             457.36951    0.01403730124668
             103.94869   0.068842606114048
             29.210155    0.23218442062076
              9.286663    0.46794134155879
              3.163927    0.36231203217765
 s    3 1.00
             7.8682724   -0.11933240861517
             1.8812885   -0.16085421161283
             0.5442493     1.1434564825515
 s    1 1.00
             0.1687144                   1
 p    3 1.00
             7.8682724   0.068999095584993
             1.8812885    0.31642397975315
             0.5442493    0.74430825237435
 p    1 1.00
             0.1687144                   1
 d    1 1.00
                   0.8                   1

16 0
 s    6 1.00
             3047.5249  0.0018347001629433
             457.36951    0.01403730124668
             103.94869   0.068842606114048
             29.210155    0.23218442062076
              9.286663    0.46794134155879
              3.163927    0.36231203217765
 s    3 1.00
             7.8682724   -0.11933240861517
             1.8812885   -0.16085421161283
             0.5442493     1.1434564825515
 s    1 1.00
             0.1687144                   1
 p    3 1.00
             7.8682724   0.068999095584993
             1.8812885    0.31642397975315
             0.5442493    0.74430825237435
 p    1 1.00
             0.1687144                   1
 d    1 1.00
                   0.8                   1

17 0
 s    6 1.00
             3047.5249  0.0018347001629433
             457.36951    0.01403730124668
             103.94869   0.068842606114048
             29.210155    0.23218442062076
              9.286663    0.46794134155879
              3.163927    0.36231203217765
 s    3 1.00
             7.8682724   -0.11933240861517
             1.8812885   -0.16085421161283
             0.5442493     1.1434564825515
 s    1 1.00
             0.1687144                   1
 p    3 1.00
             7.8682724   0.068999095584993
             1.8812885    0.31642397975315
             0.5442493    0.74430825237435
 p    1 1.00
             0.1687144                   1
 d    1 1.00
                   0.8                   1

18 0
 s    6 1.00
             3047.5249  0.0018347001629433
             457.36951    0.01403730124668
             103.94869   0.068842606114048
             29.210155    0.23218442062076
              9.286663    0.46794134155879
              3.163927    0.36231203217765
 s    3 1.00
             7.8682724   -0.11933240861517
             1.8812885   -0.16085421161283
             0.5442493     1.1434564825515
 s    1 1.00
             0.1687144                   1
 p    3 1.00
             7.8682724   0.068999095584993
             1.8812885    0.31642397975315
             0.5442493    0.74430825237435
 p    1 1.00
             0.1687144                   1
 d    1 1.00
                   0.8                   1

19 0
 s    6 1.00
             3047.5249  0.0018347001629433
             457.36951    0.01403730124668
             103.94869   0.068842606114048
             29.210155    0.23218442062076
              9.286663    0.46794134155879
              3.163927    0.36231203217765
 s    3 1.00
             7.8682724   -0.11933240861517
             1.8812885   -0.16085421161283
             0.5442493     1.1434564825515
 s    1 1.00
             0.1687144                   1
 p    3 1.00
             7.8682724   0.068999095584993
             1.8812885    0.31642397975315
             0.5442493    0.74430825237435
 p    1 1.00
             0.1687144                   1
 d    1 1.00
                   0.8                   1

20 0
 s    6 1.00
             3047.5249  0.0018347001629433
             457.36951    0.01403730124668
             103.94869   0.068842606114048
             29.210155    0.23218442062076
              9.286663    0.46794134155879
              3.163927    0.36231203217765
 s    3 1.00
             7.8682724   -0.11933240861517
             1.8812885   -0.16085421161283
             0.5442493     1.1434564825515
 s    1 1.00
             0.1687144                   1
 p    3 1.00
             7.8682724   0.068999095584993
             1.8812885    0.31642397975315
             0.5442493    0.74430825237435
 p    1 1.00
             0.1687144                   1
 d    1 1.00
                   0.8                   1

21 0
 s    6 1.00
             3047.5249  0.0018347001629433
             457.36951    0.01403730124668
             103.94869   0.068842606114048
             29.210155    0.23218442062076
              9.286663    0.46794134155879
              3.163927    0.36231203217765
 s    3 1.00
             7.8682724   -0.11933240861517
             1.8812885   -0.16085421161283
             0.5442493     1.1434564825515
 s    1 1.00
             0.1687144                   1
 p    3 1.00
             7.8682724   0.068999095584993
             1.8812885    0.31642397975315
             0.5442493    0.74430825237435
 p    1 1.00
             0.1687144                   1
 d    1 1.00
                   0.8                   1

22 0
 s    3 1.00
             18.731137    0.03349459952309
             2.8253937    0.23472694665786
             0.6401217    0.81375731841339
 s    1 1.00
             0.1612778                   1

23 0
 s    3 1.00
             18.731137    0.03349459952309
             2.8253937    0.23472694665786
             0.6401217    0.81375731841339
 s    1 1.00
             0.1612778                   1

24 0
 s    3 1.00
             18.731137    0.03349459952309
             2.8253937    0.23472694665786
             0.6401217    0.81375731841339
 s    1 1.00
             0.1612778                   1

25 0
 s    3 1.00
             18.731137    0.03349459952309
             2.8253937    0.23472694665786
             0.6401217    0.81375731841339
 s    1 1.00
             0.1612778                   1

26 0
 s    3 1.00
             18.731137    0.03349459952309
             2.8253937    0.23472694665786
             0.6401217    0.81375731841339
 s    1 1.00
             0.1612778                   1

27 0
 s    3 1.00
             18.731137    0.03349459952309
             2.8253937    0.23472694665786
             0.6401217    0.81375731841339
 s    1 1.00
             0.1612778                   1

28 0
 s    3 1.00
             18.731137    0.03349459952309
             2.8253937    0.23472694665786
             0.6401217    0.81375731841339
 s    1 1.00
             0.1612778                   1

29 0
 s    3 1.00
             18.731137    0.03349459952309
             2.8253937    0.23472694665786
             0.6401217    0.81375731841339
 s    1 1.00
             0.1612778                   1

30 0
 s    3 1.00
             18.731137    0.03349459952309
             2.8253937    0.23472694665786
             0.6401217    0.81375731841339
 s    1 1.00
             0.1612778                   1

31 0
 s    3 1.00
             18.731137    0.03349459952309
             2.8253937    0.23472694665786
             0.6401217    0.81375731841339
 s    1 1.00
             0.1612778                   1

32 0
 s    3 1.00
             18.731137    0.03349459952309
             2.8253937    0.23472694665786
             0.6401217    0.81375731841339
 s    1 1.00
             0.1612778                   1

33 0
 s    6 1.00
             3047.5249  0.0018347001629433
             457.36951    0.01403730124668
             103.94869   0.068842606114048
             29.210155    0.23218442062076
              9.286663    0.46794134155879
              3.163927    0.36231203217765
 s    3 1.00
             7.8682724   -0.11933240861517
             1.8812885   -0.16085421161283
             0.5442493     1.1434564825515
 s    1 1.00
             0.1687144                   1
 p    3 1.00
             7.8682724   0.068999095584993
             1.8812885    0.31642397975315
             0.5442493    0.74430825237435
 p    1 1.00
             0.1687144                   1
 d    1 1.00
                   0.8                   1

34 0
 s    6 1.00
             3047.5249  0.0018347001629433
             457.36951    0.01403730124668
             103.94869   0.068842606114048
             29.210155    0.23218442062076
              9.286663    0.46794134155879
              3.163927    0.36231203217765
 s    3 1.00
             7.8682724   -0.11933240861517
             1.8812885   -0.16085421161283
             0.5442493     1.1434564825515
 s    1 1.00
             0.1687144                   1
 p    3 1.00
             7.8682724   0.068999095584993
             1.8812885    0.31642397975315
             0.5442493    0.74430825237435
 p    1 1.00
             0.1687144                   1
 d    1 1.00
                   0.8                   1

35 0
 s    3 1.00
             18.731137    0.03349459952309
             2.8253937    0.23472694665786
             0.6401217    0.81375731841339
 s    1 1.00
             0.1612778                   1

36 0
 s    6 1.00
             3047.5249  0.0018347001629433
             457.36951    0.01403730124668
             103.94869   0.068842606114048
             29.210155    0.23218442062076
              9.286663    0.46794134155879
              3.163927    0.36231203217765
 s    3 1.00
             7.8682724   -0.11933240861517
             1.8812885   -0.16085421161283
             0.5442493     1.1434564825515
 s    1 1.00
             0.1687144                   1
 p    3 1.00
             7.8682724   0.068999095584993
             1.8812885    0.31642397975315
             0.5442493    0.74430825237435
 p    1 1.00
             0.1687144                   1
 d    1 1.00
                   0.8                   1

37 0
 s    3 1.00
             18.731137    0.03349459952309
             2.8253937    0.23472694665786
             0.6401217    0.81375731841339
 s    1 1.00
             0.1612778                   1

38 0
 s    3 1.00
             18.731137    0.03349459952309
             2.8253937    0.23472694665786
             0.6401217    0.81375731841339
 s    1 1.00
             0.1612778                   1

39 0
 s    6 1.00
             3047.5249  0.0018347001629433
             457.36951    0.01403730124668
             103.94869   0.068842606114048
             29.210155    0.23218442062076
              9.286663    0.46794134155879
              3.163927    0.36231203217765
 s    3 1.00
             7.8682724   -0.11933240861517
             1.8812885   -0.16085421161283
             0.5442493     1.1434564825515
 s    1 1.00
             0.1687144                   1
 p    3 1.00
             7.8682724   0.068999095584993
             1.8812885    0.31642397975315
             0.5442493    0.74430825237435
 p    1 1.00
             0.1687144                   1
 d    1 1.00
                   0.8                   1

40 0
 s    6 1.00
             3047.5249  0.0018347001629433
             457.36951    0.01403730124668
             103.94869   0.068842606114048
             29.210155    0.23218442062076
              9.286663    0.46794134155879
              3.163927    0.36231203217765
 s    3 1.00
             7.8682724   -0.11933240861517
             1.8812885   -0.16085421161283
             0.5442493     1.1434564825515
 s    1 1.00
             0.1687144                   1
 p    3 1.00
             7.8682724   0.068999095584993
             1.8812885    0.31642397975315
             0.5442493    0.74430825237435
 p    1 1.00
             0.1687144                   1
 d    1 1.00
                   0.8                   1

41 0
 s    3 1.00
             18.731137    0.03349459952309
             2.8253937    0.23472694665786
             0.6401217    0.81375731841339
 s    1 1.00
             0.1612778                   1

42 0
 s    6 1.00
             5484.6717   0.001831099805527
             825.23495   0.013950098518422
             188.04696    0.06844509273075
               52.9645    0.23271427528445
              16.89757    0.47019295006289
             5.7996353    0.35852086192309
 s    3 1.00
             15.539616   -0.11077750382508
             3.5999336   -0.14802630511126
             1.0137618     1.1307670390447
 s    1 1.00
             0.2700058                   1
 p    3 1.00
             15.539616   0.070874299543311
             3.5999336    0.33975279781076
             1.0137618    0.72715859531445
 p    1 1.00
             0.2700058                   1
 d    1 1.00
                   0.8                   1

43 0
 s    3 1.00
             18.731137    0.03349459952309
             2.8253937    0.23472694665786
             0.6401217    0.81375731841339
 s    1 1.00
             0.1612778                   1

[5d]
[7f]
[9g]

[MO]
 Sym= A
 Ene=               0
 Spin= Alpha
 Occup=    1.00000
   1    9.4020350990669e-06
   2    6.1052407948974e-05
   3    4.7917853386853e-05
   4    2.263755772383e-05
   5    2.504958028009e-05
   6    -3.5509555705527e-05
   7    -0.00028190626441751
   8    -0.00032381973709922
   9    0.0010875240823768
  10    -2.4329656417048e-05
  11    -4.0433120307142e-05
  12    -1.3074985475412e-06
  13    -7.8548355988004e-06
  14      2.4145430924e-06
  15    5.8123864098991e-05
  16    3.235856449899e-05
  17    -2.4109076771408e-05
  18    -9.8552212817466e-05
  19    0.0024033826522761
  20    1.6646978665448e-05
  21    7.4188214069474e-06
  22    -7.6231412559865e-05
  23    0.00048270274295997
  24    0.00023508130829914
  25    -0.00075699107041667
  26    6.5520576716746e-05
  27    -1.4196089902516e-05
  28    -2.6571387414512e-05
  29    4.5643571436393e-06
  30    -1.3500114176959e-05
  31    -2.9028095615729e-07
  32    -0.00012895138104634
  33    8.2244973752083e-05
  34    0.00041482119381963
  35    -0.0060152146524389
  36    -2.2213594048536e-05
  37    -1.6083917661923e-05
  38    0.00014609942657555
  39    0.0021319738011339
  40    0.00073648261450954
  41    0.0015611136064816
  42    -0.00017811993573856
  43    -6.3293386857674e-05
  44    4.7027073954438e-06
  45    -3.9153763219012e-05
  46    -3.6907064037868e-05
  47    -4.0895271877353e-05
  48    -0.00033946177505932
  49    -2.9439448709298e-05
  50    0.00011936623555277
  51    0.0045228028002391
  52    -0.00012569596676653
  53    -1.539614890208e-05
  54    -0.00045190263907367
  55    0.0018448647690892
  56    0.00042013695562445
  57    0.0041713181311096
  58    0.00012067516636839
  59    0.00019840061987999
  60    7.6987754346428e-05
  61    -5.7940466354689e-05
  62    -8.6743072892173e-05
  63    0.00031520814822392
  64    0.00015088139651047
  65    1.584459177964e-07
  66    -2.1227945625822e-06
  67    1.5871299104541e-07
  68    1.657770191123e-06
  69    -3.7821211083624e-07
  70    -9.7287501448381e-07
  71    1.0655794802285e-06
  72    -4.5930374413548e-07
  73    -2.254598084234e-06
  74    -8.1683429597862e-07
  75    3.0886724730982e-06
  76    -2.7684817297962e-07
  77    -6.6704310511969e-08
  78    -1.7398173181878e-07
  79    -1.4791955154028e-07
  80    -8.2686805013902e-08
  81    -1.0199166175706e-07
  82    -7.1988026474947e-07
  83    -3.2406267394761e-07
  84    -2.3064762108064e-06
  85    1.2127078724074e-05
  86    -4.398633679179e-07
  87    -1.3727673675895e-07
  88    -8.7044921611455e-07
  89    -6.2899064795645e-06
  90    1.0193896905292e-05
  91    -3.724676018148e-07
  92    1.3786479209573e-07
  93    5.7301827547157e-07
  94    -1.0716718000394e-06
  95    3.7439828195038e-07
  96    7.3138051808833e-09
  97    -1.5834363254679e-06
  98    -8.4387128365284e-07
  99    4.2255564075334e-07
 100    1.8765180686891e-06
 101    7.7453287172441e-07
 102    3.3665318855618e-06
 103    -9.8885344871078e-05
 104    1.2165143029944e-06
 105    -1.8565839376537e-07
 106    2.6565871186006e-06
 107    3.9922200017454e-05
 108    -4.0175227932317e-05
 109    6.067488442616e-06
 110    -8.0793746804546e-07
 111    -1.2640112122061e-06
 112    5.5773115208619e-07
 113    4.231864272844e-07
 114    1.8904672321341e-06
 115    -3.771881933361e-07
 116    -4.14645696468e-06
 117    4.8339041311403e-06
 118    5.7884768601499e-07
 119    -2.2279244650998e-06
 120    1.636980973732e-06
 121    -4.3635713461182e-06
 122    1.4546823717647e-05
 123    -1.7501647699915e-05
 124    -6.312138653551e-07
 125    5.8442089158512e-07
 126    8.5852480833806e-07
 127    2.5686489703308e-07
 128    1.9695926553556e-07
 129    -2.1852178577035e-07
 130    -2.4936920806427e-06
 131    -5.3614536337761e-05
 132    -6.1952535185567e-06
 133    -1.3021370662668e-06
 134     3.96714085955e-06
 135    0.0001311198721511
 136    -1.4006514685754e-05
 137    4.0036563568839e-05
 138    -1.3764633834882e-06
 139    -1.0879685407722e-06
 140    -2.9981664947803e-06
 141    3.6727697357264e-07
 142    -2.003804061796e-06
 143    -7.7490908468559e-08
 144    1.8078930969771e-06
 145    4.3217010052207e-05
 146    4.2769590254776e-07
 147    1.1604952546083e-06
 148    -5.6000570835986e-06
 149    1.3631020538115e-05
 150    -3.8844303027752e-05
 151    1.6688890834273e-05
 152    1.2155975482379e-06
 153    -2.7104592475251e-07
 154    2.2507483466324e-06
 155    8.3117500661491e-08
 156    1.0858858860395e-06
 157    -7.159034292817e-07
 158    -5.7102081121012e-06
 159    3.2758496105318e-05
 160    -5.8544119843471e-07
 161    -8.1710234831518e-07
 162    9.9606959303569e-07
 163    1.176936052875e-05
 164    -1.2602196221142e-05
 165    -1.8826921841307e-06
 166    -1.1385856063045e-06
 167    2.6775665618781e-07
 168    -2.4350836383794e-07
 169    -4.606842387262e-07
 170    -8.7765692974021e-07
 171    -6.9428763229688e-08
 172    -3.0835563547502e-07
 173    -3.5676947864273e-06
 174    2.3550631492132e-07
 175    2.4021126780171e-07
 176    -1.6889659241487e-06
 177    -1.2981783269127e-05
 178    -4.3902598473527e-06
 179    -5.3357331109143e-06
 180    3.1399732464903e-07
 181    -1.5376532495938e-06
 182    4.7366383581808e-08
 183    -7.5684741703521e-07
 184    -1.1697192608112e-06
 185    8.1992192504758e-07
 186    6.8248385059644e-06
 187    -3.1378904826635e-05
 188    1.3399237903677e-06
 189    8.3764098516304e-08
 190    1.2404366031242e-07
 191    -1.0067426401292e-07
 192    1.0220500634452e-05
 193    1.5810645546626e-05
 194    -7.2557291780566e-07
 195    -8.5969928200937e-07
 196    -1.6185965812626e-06
 197    5.3564851376619e-07
 198    -3.890768851217e-07
 199    2.0822545403605e-06
 200    -1.2499062515151e-06
 201    4.3231584259163e-07
 202    -2.0904373356444e-06
 203    1.3958349680914e-06
 204    8.5141818563538e-06
 205    -3.2617968462061e-06
 206    -7.5841595025715e-07
 207    -3.7473570069188e-07
 208    -1.3515620927236e-05
 209    -2.6007287932281e-06
 210    4.6464376486713e-07
 211    -1.9925433891546e-06
 212    -4.2077535278014e-06
 213    -5.8011636620221e-07
 214    3.9304181367479e-06
 215    3.0726415376179e-06
 216    -1.8739522501115e-05
 217    -8.8227342931442e-07
 218    -2.4903114502287e-07
 219    -8.4621874418787e-07
 220    2.3255165834161e-06
 221    3.8956366444942e-06
 222    2.6074900767687e-05
 223    -0.00027706974377913
 224    -6.2369121202192e-06
 225    -7.1910817971183e-07
 226    -1.1059182720984e-06
 227    -5.2117308061777e-05
 228    -6.0639274949482e-05
 229    0.00030280428593894
 230    -6.2778344194996e-06
 231    1.0076904522845e-05
 232    7.3374227425424e-06
 233    -3.56564608154e-06
 234    -3.0472269584189e-06
 235    -7.6230892560387e-06
 236    -4.4533704407542e-05
 237    0.00079090416810428
 238    5.3778063149969e-06
 239    6.4967417841349e-06
 240    -2.0012416430768e-05
 241    -0.00025092969501811
 242    -5.6333845326768e-05
 243    -9.3740015711454e-05
 244    2.1005300078457e-05
 245    -4.5308988887607e-06
 246    -7.5329742486363e-06
 247    1.3799056004642e-06
 248    3.0597165710099e-06
 249    1.1918827291625e-05
 250    1.9663727981203e-05
 251    8.6196168854764e-06
 252    6.1266028669096e-05
 253    -0.001159187078472
 254    1.5574777647129e-05
 255    -6.7729189956124e-06
 256    3.3131802771608e-05
 257    -0.00051323897971485
 258    -9.3586199001093e-05
 259    -9.6555137222876e-05
 260    -2.0673954287519e-05
 261    6.5134379057683e-06
 262    8.7119128154326e-06
 263    -6.7902485340706e-06
 264    -3.4553317001656e-06
 265    1.0204012003742e-05
 266    3.9515687678729e-06
 267    -2.839486752474e-05
 268    -7.6514418468005e-05
 269    -7.2276929706923e-05
 270    -9.5882320332146e-05
 271    0.0033406094480484
 272    -0.00020377647840336
 273    -8.4200190348855e-05
 274    -5.459171542883e-06
 275    0.0014872872199008
 276    0.0010113679528249
 277    -0.0039179804109242
 278    0.00038371568791591
 279    -5.7502993415494e-05