[Molden Format]
made by pyscf v[2.0.1]
[Atoms] (AU)
C   1   6     0.69100024066471     0.64692934207205    -3.48223131169301
H   2   1     2.68052439830868     1.13355088658700    -3.25784032593313
C   3   6    -0.36286361513219     0.85440132524594    -5.97030179418974
H   4   1    -2.35448549047279     0.36322488579172    -6.17995817793143
C   5   6     0.93697958957450     1.61209284601821    -8.05828437677121
H   6   1    -0.04002876534153     1.70579051152009    -9.86870372539436
C   7   6     3.55882871340184     2.30532870411993    -8.01809862923490
H   8   1     4.51217335653741     2.20318273111775    -6.19041637810672
H   9   1     1.55630230933075    -1.92953025305990    12.99630010416247
C   10   6     0.75233899775814    -2.21270439606481    11.10705728102219
H   11   1    -0.43433408177274    -3.90944857546550    11.22216085340412
C   12   6     2.86362581178706    -2.63237380607947     9.17926416456045
H   13   1     4.39038949912609    -1.24955421540245     9.49899813497433
H   14   1     3.74629220191363    -4.48798724300892     9.47414880959024
C   15   6     2.02478325613682    -2.42177285709634     6.44560829588644
C   16   6     3.88048732735477    -3.58795445234514     4.61402886975252
C   17   6    -0.18412382258602    -1.30464291234259     5.76021113872346
C   18   6    -2.10044360464350    -0.26837831858460     7.71610340967100
C   19   6    -3.08956938670431     2.35282328359417     6.88693925039594
C   20   6    -4.37372924086464    -2.09766595989678     7.93610724222001
C   21   6    -0.83850430601230     0.06372213486173    10.33002307638377
H   22   1     0.38411922151109     1.74281358582432    10.27380136542181
H   23   1    -2.30980003007874     0.45460143924521    11.73986301809809
H   24   1     4.58527064644668    -5.38706904487420     5.36778158031719
H   25   1     5.54944938085014    -2.37631462192748     4.35398898413318
H   26   1     3.06633019150423    -3.94118377050688     2.75255466040884
H   27   1    -4.17727778763735     2.26573369139522     5.12914900961283
H   28   1    -1.52662344944051     3.68001877445626     6.59540397144508
H   29   1    -4.32916174397830     3.13643051467482     8.35225460090378
H   30   1    -5.32329548508442    -2.36691813602939     6.11583672749896
H   31   1    -5.77989366602257    -1.33896741843465     9.25748940450990
H   32   1    -3.79310905208926    -3.96389819310853     8.61386170102686
C   33   6    -1.01100794811226    -1.06331657314144     3.11929490449947
C   34   6     0.37686231036534    -0.33275864505552     1.09165013605873
H   35   1    -3.01671213906703    -1.40297922279997     2.77827895090944
C   36   6    -0.64382707979370    -0.11591880174385    -1.42063131251064
H   37   1     2.35569259782137     0.17174499283897     1.33641070251401
H   38   1    -2.63317482980319    -0.60229203511219    -1.66119700387645
C   39   6     4.92949292707610     3.06752929189425   -10.04715344157890
C   40   6     7.59555456141448     3.73329481661799    -9.81073387339210
H   41   1     4.09542353861424     3.21030697797155   -11.92110945203513
O   42   8     8.93835728030826     4.43020973545744   -11.55200196938216
H   43   1     8.37079058468688     3.56000927179912    -7.85902689076443
[GTO]
1 0
 s    6 1.00
             3047.5249  0.0018347001629433
             457.36951    0.01403730124668
             103.94869   0.068842606114048
             29.210155    0.23218442062076
              9.286663    0.46794134155879
              3.163927    0.36231203217765
 s    3 1.00
             7.8682724   -0.11933240861517
             1.8812885   -0.16085421161283
             0.5442493     1.1434564825515
 s    1 1.00
             0.1687144                   1
 p    3 1.00
             7.8682724   0.068999095584993
             1.8812885    0.31642397975315
             0.5442493    0.74430825237435
 p    1 1.00
             0.1687144                   1
 d    1 1.00
                   0.8                   1

2 0
 s    3 1.00
             18.731137    0.03349459952309
             2.8253937    0.23472694665786
             0.6401217    0.81375731841339
 s    1 1.00
             0.1612778                   1

3 0
 s    6 1.00
             3047.5249  0.0018347001629433
             457.36951    0.01403730124668
             103.94869   0.068842606114048
             29.210155    0.23218442062076
              9.286663    0.46794134155879
              3.163927    0.36231203217765
 s    3 1.00
             7.8682724   -0.11933240861517
             1.8812885   -0.16085421161283
             0.5442493     1.1434564825515
 s    1 1.00
             0.1687144                   1
 p    3 1.00
             7.8682724   0.068999095584993
             1.8812885    0.31642397975315
             0.5442493    0.74430825237435
 p    1 1.00
             0.1687144                   1
 d    1 1.00
                   0.8                   1

4 0
 s    3 1.00
             18.731137    0.03349459952309
             2.8253937    0.23472694665786
             0.6401217    0.81375731841339
 s    1 1.00
             0.1612778                   1

5 0
 s    6 1.00
             3047.5249  0.0018347001629433
             457.36951    0.01403730124668
             103.94869   0.068842606114048
             29.210155    0.23218442062076
              9.286663    0.46794134155879
              3.163927    0.36231203217765
 s    3 1.00
             7.8682724   -0.11933240861517
             1.8812885   -0.16085421161283
             0.5442493     1.1434564825515
 s    1 1.00
             0.1687144                   1
 p    3 1.00
             7.8682724   0.068999095584993
             1.8812885    0.31642397975315
             0.5442493    0.74430825237435
 p    1 1.00
             0.1687144                   1
 d    1 1.00
                   0.8                   1

6 0
 s    3 1.00
             18.731137    0.03349459952309
             2.8253937    0.23472694665786
             0.6401217    0.81375731841339
 s    1 1.00
             0.1612778                   1

7 0
 s    6 1.00
             3047.5249  0.0018347001629433
             457.36951    0.01403730124668
             103.94869   0.068842606114048
             29.210155    0.23218442062076
              9.286663    0.46794134155879
              3.163927    0.36231203217765
 s    3 1.00
             7.8682724   -0.11933240861517
             1.8812885   -0.16085421161283
             0.5442493     1.1434564825515
 s    1 1.00
             0.1687144                   1
 p    3 1.00
             7.8682724   0.068999095584993
             1.8812885    0.31642397975315
             0.5442493    0.74430825237435
 p    1 1.00
             0.1687144                   1
 d    1 1.00
                   0.8                   1

8 0
 s    3 1.00
             18.731137    0.03349459952309
             2.8253937    0.23472694665786
             0.6401217    0.81375731841339
 s    1 1.00
             0.1612778                   1

9 0
 s    3 1.00
             18.731137    0.03349459952309
             2.8253937    0.23472694665786
             0.6401217    0.81375731841339
 s    1 1.00
             0.1612778                   1

10 0
 s    6 1.00
             3047.5249  0.0018347001629433
             457.36951    0.01403730124668
             103.94869   0.068842606114048
             29.210155    0.23218442062076
              9.286663    0.46794134155879
              3.163927    0.36231203217765
 s    3 1.00
             7.8682724   -0.11933240861517
             1.8812885   -0.16085421161283
             0.5442493     1.1434564825515
 s    1 1.00
             0.1687144                   1
 p    3 1.00
             7.8682724   0.068999095584993
             1.8812885    0.31642397975315
             0.5442493    0.74430825237435
 p    1 1.00
             0.1687144                   1
 d    1 1.00
                   0.8                   1

11 0
 s    3 1.00
             18.731137    0.03349459952309
             2.8253937    0.23472694665786
             0.6401217    0.81375731841339
 s    1 1.00
             0.1612778                   1

12 0
 s    6 1.00
             3047.5249  0.0018347001629433
             457.36951    0.01403730124668
             103.94869   0.068842606114048
             29.210155    0.23218442062076
              9.286663    0.46794134155879
              3.163927    0.36231203217765
 s    3 1.00
             7.8682724   -0.11933240861517
             1.8812885   -0.16085421161283
             0.5442493     1.1434564825515
 s    1 1.00
             0.1687144                   1
 p    3 1.00
             7.8682724   0.068999095584993
             1.8812885    0.31642397975315
             0.5442493    0.74430825237435
 p    1 1.00
             0.1687144                   1
 d    1 1.00
                   0.8                   1

13 0
 s    3 1.00
             18.731137    0.03349459952309
             2.8253937    0.23472694665786
             0.6401217    0.81375731841339
 s    1 1.00
             0.1612778                   1

14 0
 s    3 1.00
             18.731137    0.03349459952309
             2.8253937    0.23472694665786
             0.6401217    0.81375731841339
 s    1 1.00
             0.1612778                   1

15 0
 s    6 1.00
             3047.5249  0.0018347001629433
             457.36951    0.01403730124668
             103.94869   0.068842606114048
             29.210155    0.23218442062076
              9.286663    0.46794134155879
              3.163927    0.36231203217765
 s    3 1.00
             7.8682724   -0.11933240861517
             1.8812885   -0.16085421161283
             0.5442493     1.1434564825515
 s    1 1.00
             0.1687144                   1
 p    3 1.00
             7.8682724   0.068999095584993
             1.8812885    0.31642397975315
             0.5442493    0.74430825237435
 p    1 1.00
             0.1687144                   1
 d    1 1.00
                   0.8                   1

16 0
 s    6 1.00
             3047.5249  0.0018347001629433
             457.36951    0.01403730124668
             103.94869   0.068842606114048
             29.210155    0.23218442062076
              9.286663    0.46794134155879
              3.163927    0.36231203217765
 s    3 1.00
             7.8682724   -0.11933240861517
             1.8812885   -0.16085421161283
             0.5442493     1.1434564825515
 s    1 1.00
             0.1687144                   1
 p    3 1.00
             7.8682724   0.068999095584993
             1.8812885    0.31642397975315
             0.5442493    0.74430825237435
 p    1 1.00
             0.1687144                   1
 d    1 1.00
                   0.8                   1

17 0
 s    6 1.00
             3047.5249  0.0018347001629433
             457.36951    0.01403730124668
             103.94869   0.068842606114048
             29.210155    0.23218442062076
              9.286663    0.46794134155879
              3.163927    0.36231203217765
 s    3 1.00
             7.8682724   -0.11933240861517
             1.8812885   -0.16085421161283
             0.5442493     1.1434564825515
 s    1 1.00
             0.1687144                   1
 p    3 1.00
             7.8682724   0.068999095584993
             1.8812885    0.31642397975315
             0.5442493    0.74430825237435
 p    1 1.00
             0.1687144                   1
 d    1 1.00
                   0.8                   1

18 0
 s    6 1.00
             3047.5249  0.0018347001629433
             457.36951    0.01403730124668
             103.94869   0.068842606114048
             29.210155    0.23218442062076
              9.286663    0.46794134155879
              3.163927    0.36231203217765
 s    3 1.00
             7.8682724   -0.11933240861517
             1.8812885   -0.16085421161283
             0.5442493     1.1434564825515
 s    1 1.00
             0.1687144                   1
 p    3 1.00
             7.8682724   0.068999095584993
             1.8812885    0.31642397975315
             0.5442493    0.74430825237435
 p    1 1.00
             0.1687144                   1
 d    1 1.00
                   0.8                   1

19 0
 s    6 1.00
             3047.5249  0.0018347001629433
             457.36951    0.01403730124668
             103.94869   0.068842606114048
             29.210155    0.23218442062076
              9.286663    0.46794134155879
              3.163927    0.36231203217765
 s    3 1.00
             7.8682724   -0.11933240861517
             1.8812885   -0.16085421161283
             0.5442493     1.1434564825515
 s    1 1.00
             0.1687144                   1
 p    3 1.00
             7.8682724   0.068999095584993
             1.8812885    0.31642397975315
             0.5442493    0.74430825237435
 p    1 1.00
             0.1687144                   1
 d    1 1.00
                   0.8                   1

20 0
 s    6 1.00
             3047.5249  0.0018347001629433
             457.36951    0.01403730124668
             103.94869   0.068842606114048
             29.210155    0.23218442062076
              9.286663    0.46794134155879
              3.163927    0.36231203217765
 s    3 1.00
             7.8682724   -0.11933240861517
             1.8812885   -0.16085421161283
             0.5442493     1.1434564825515
 s    1 1.00
             0.1687144                   1
 p    3 1.00
             7.8682724   0.068999095584993
             1.8812885    0.31642397975315
             0.5442493    0.74430825237435
 p    1 1.00
             0.1687144                   1
 d    1 1.00
                   0.8                   1

21 0
 s    6 1.00
             3047.5249  0.0018347001629433
             457.36951    0.01403730124668
             103.94869   0.068842606114048
             29.210155    0.23218442062076
              9.286663    0.46794134155879
              3.163927    0.36231203217765
 s    3 1.00
             7.8682724   -0.11933240861517
             1.8812885   -0.16085421161283
             0.5442493     1.1434564825515
 s    1 1.00
             0.1687144                   1
 p    3 1.00
             7.8682724   0.068999095584993
             1.8812885    0.31642397975315
             0.5442493    0.74430825237435
 p    1 1.00
             0.1687144                   1
 d    1 1.00
                   0.8                   1

22 0
 s    3 1.00
             18.731137    0.03349459952309
             2.8253937    0.23472694665786
             0.6401217    0.81375731841339
 s    1 1.00
             0.1612778                   1

23 0
 s    3 1.00
             18.731137    0.03349459952309
             2.8253937    0.23472694665786
             0.6401217    0.81375731841339
 s    1 1.00
             0.1612778                   1

24 0
 s    3 1.00
             18.731137    0.03349459952309
             2.8253937    0.23472694665786
             0.6401217    0.81375731841339
 s    1 1.00
             0.1612778                   1

25 0
 s    3 1.00
             18.731137    0.03349459952309
             2.8253937    0.23472694665786
             0.6401217    0.81375731841339
 s    1 1.00
             0.1612778                   1

26 0
 s    3 1.00
             18.731137    0.03349459952309
             2.8253937    0.23472694665786
             0.6401217    0.81375731841339
 s    1 1.00
             0.1612778                   1

27 0
 s    3 1.00
             18.731137    0.03349459952309
             2.8253937    0.23472694665786
             0.6401217    0.81375731841339
 s    1 1.00
             0.1612778                   1

28 0
 s    3 1.00
             18.731137    0.03349459952309
             2.8253937    0.23472694665786
             0.6401217    0.81375731841339
 s    1 1.00
             0.1612778                   1

29 0
 s    3 1.00
             18.731137    0.03349459952309
             2.8253937    0.23472694665786
             0.6401217    0.81375731841339
 s    1 1.00
             0.1612778                   1

30 0
 s    3 1.00
             18.731137    0.03349459952309
             2.8253937    0.23472694665786
             0.6401217    0.81375731841339
 s    1 1.00
             0.1612778                   1

31 0
 s    3 1.00
             18.731137    0.03349459952309
             2.8253937    0.23472694665786
             0.6401217    0.81375731841339
 s    1 1.00
             0.1612778                   1

32 0
 s    3 1.00
             18.731137    0.03349459952309
             2.8253937    0.23472694665786
             0.6401217    0.81375731841339
 s    1 1.00
             0.1612778                   1

33 0
 s    6 1.00
             3047.5249  0.0018347001629433
             457.36951    0.01403730124668
             103.94869   0.068842606114048
             29.210155    0.23218442062076
              9.286663    0.46794134155879
              3.163927    0.36231203217765
 s    3 1.00
             7.8682724   -0.11933240861517
             1.8812885   -0.16085421161283
             0.5442493     1.1434564825515
 s    1 1.00
             0.1687144                   1
 p    3 1.00
             7.8682724   0.068999095584993
             1.8812885    0.31642397975315
             0.5442493    0.74430825237435
 p    1 1.00
             0.1687144                   1
 d    1 1.00
                   0.8                   1

34 0
 s    6 1.00
             3047.5249  0.0018347001629433
             457.36951    0.01403730124668
             103.94869   0.068842606114048
             29.210155    0.23218442062076
              9.286663    0.46794134155879
              3.163927    0.36231203217765
 s    3 1.00
             7.8682724   -0.11933240861517
             1.8812885   -0.16085421161283
             0.5442493     1.1434564825515
 s    1 1.00
             0.1687144                   1
 p    3 1.00
             7.8682724   0.068999095584993
             1.8812885    0.31642397975315
             0.5442493    0.74430825237435
 p    1 1.00
             0.1687144                   1
 d    1 1.00
                   0.8                   1

35 0
 s    3 1.00
             18.731137    0.03349459952309
             2.8253937    0.23472694665786
             0.6401217    0.81375731841339
 s    1 1.00
             0.1612778                   1

36 0
 s    6 1.00
             3047.5249  0.0018347001629433
             457.36951    0.01403730124668
             103.94869   0.068842606114048
             29.210155    0.23218442062076
              9.286663    0.46794134155879
              3.163927    0.36231203217765
 s    3 1.00
             7.8682724   -0.11933240861517
             1.8812885   -0.16085421161283
             0.5442493     1.1434564825515
 s    1 1.00
             0.1687144                   1
 p    3 1.00
             7.8682724   0.068999095584993
             1.8812885    0.31642397975315
             0.5442493    0.74430825237435
 p    1 1.00
             0.1687144                   1
 d    1 1.00
                   0.8                   1

37 0
 s    3 1.00
             18.731137    0.03349459952309
             2.8253937    0.23472694665786
             0.6401217    0.81375731841339
 s    1 1.00
             0.1612778                   1

38 0
 s    3 1.00
             18.731137    0.03349459952309
             2.8253937    0.23472694665786
             0.6401217    0.81375731841339
 s    1 1.00
             0.1612778                   1

39 0
 s    6 1.00
             3047.5249  0.0018347001629433
             457.36951    0.01403730124668
             103.94869   0.068842606114048
             29.210155    0.23218442062076
              9.286663    0.46794134155879
              3.163927    0.36231203217765
 s    3 1.00
             7.8682724   -0.11933240861517
             1.8812885   -0.16085421161283
             0.5442493     1.1434564825515
 s    1 1.00
             0.1687144                   1
 p    3 1.00
             7.8682724   0.068999095584993
             1.8812885    0.31642397975315
             0.5442493    0.74430825237435
 p    1 1.00
             0.1687144                   1
 d    1 1.00
                   0.8                   1

40 0
 s    6 1.00
             3047.5249  0.0018347001629433
             457.36951    0.01403730124668
             103.94869   0.068842606114048
             29.210155    0.23218442062076
              9.286663    0.46794134155879
              3.163927    0.36231203217765
 s    3 1.00
             7.8682724   -0.11933240861517
             1.8812885   -0.16085421161283
             0.5442493     1.1434564825515
 s    1 1.00
             0.1687144                   1
 p    3 1.00
             7.8682724   0.068999095584993
             1.8812885    0.31642397975315
             0.5442493    0.74430825237435
 p    1 1.00
             0.1687144                   1
 d    1 1.00
                   0.8                   1

41 0
 s    3 1.00
             18.731137    0.03349459952309
             2.8253937    0.23472694665786
             0.6401217    0.81375731841339
 s    1 1.00
             0.1612778                   1

42 0
 s    6 1.00
             5484.6717   0.001831099805527
             825.23495   0.013950098518422
             188.04696    0.06844509273075
               52.9645    0.23271427528445
              16.89757    0.47019295006289
             5.7996353    0.35852086192309
 s    3 1.00
             15.539616   -0.11077750382508
             3.5999336   -0.14802630511126
             1.0137618     1.1307670390447
 s    1 1.00
             0.2700058                   1
 p    3 1.00
             15.539616   0.070874299543311
             3.5999336    0.33975279781076
             1.0137618    0.72715859531445
 p    1 1.00
             0.2700058                   1
 d    1 1.00
                   0.8                   1

43 0
 s    3 1.00
             18.731137    0.03349459952309
             2.8253937    0.23472694665786
             0.6401217    0.81375731841339
 s    1 1.00
             0.1612778                   1

[5d]
[7f]
[9g]

[MO]
 Sym= A
 Ene=               0
 Spin= Alpha
 Occup=    1.00000
   1    1.5716815178892e-05
   2    0.00011677876974713
   3    -0.0016143858992758
   4    3.6525637236433e-05
   5    1.2940283349812e-05
   6    -1.5909474161779e-05
   7       0.0001167916812
   8    -0.00033995616365461
   9    0.0018887497438735
  10    -4.9657994252164e-05
  11    -5.834219661291e-05
  12    2.5465968388267e-06
  13    -7.4942748528408e-06
  14    7.8084502505074e-06
  15    5.9781154458118e-05
  16    -0.00010049919450763
  17    -4.1157910938244e-05
  18    -0.00023140241030159
  19     0.003610118519221
  20    1.8398077667376e-05
  21    2.2918169184852e-05
  22    -9.1875823004625e-05
  23    0.0022730769062467
  24    0.00045811351321224
  25    0.00076220656902132
  26    5.175790901438e-05
  27    -2.4799177250663e-05
  28    -3.3142301802405e-05
  29    3.1707302538895e-05
  30    2.5355792515411e-05
  31    9.0264557860353e-05
  32    0.00052671603902052
  33    9.2531749709929e-05
  34    0.00049084112102141
  35    -0.0066938605500941
  36    -0.00013006712940995
  37    -4.9100014963166e-05
  38    7.3416750024284e-05
  39    -0.0030410563227788
  40    -0.00038676493142134
  41    -0.002174634615668
  42    1.535429899029e-05
  43    2.6287590215257e-05
  44    3.9362800249534e-05
  45    -0.00015690471084035
  46    -9.8221057493575e-05
  47    -7.1902034754069e-05
  48    -0.0006943279781677
  49    -2.7499903529199e-05
  50    0.00013656230318772
  51    0.0047225435979878
  52    0.00045764531443034
  53    0.00013239178580481
  54    -5.0708913523361e-05
  55    -0.0051163075787176
  56    -0.0013513052190553
  57    -8.6274023927928e-05
  58    -0.00024510685674964
  59    5.7110659715273e-05
  60    7.7801328147232e-05
  61    0.0001068928756955
  62    4.5395852729713e-05
  63    0.00027601415139066
  64    0.00038106712238432
  65     4.02507313361e-07
  66    -2.0602737510379e-06
  67    1.5188027627353e-07
  68    1.4609943185039e-06
  69    1.1138266397376e-06
  70    -9.1224318740512e-07
  71    1.3524965294861e-06
  72    -2.1626902064408e-07
  73    -3.3763619820437e-06
  74    -3.2978443363076e-06
  75    2.0904637320694e-06
  76    -4.2108091173265e-07
  77    -2.3547683558378e-07
  78    -8.543345546648e-08
  79    -1.9127247159178e-07
  80    -2.0823714585071e-07
  81    -4.1261544561166e-07
  82    -2.2349194373671e-06
  83    -3.5430849255689e-07
  84    -2.9804868516076e-06
  85    3.3129712011056e-06
  86    2.2685991377071e-09
  87    -9.0258276392115e-07
  88    -3.3554567815869e-07
  89    -3.8366798761293e-06
  90    1.4360076850276e-05
  91    2.9407666516282e-06
  92    1.5607019503381e-07
  93    3.3238321186434e-07
  94    -1.0831958500924e-06
  95    5.1175299763918e-07
  96    -3.0923696573834e-08
  97    -1.8866951684963e-06
  98    -2.5959010556992e-06
  99    1.2003838960845e-06
 100    3.3732125073638e-06
 101    7.4994320585848e-07
 102    3.646390160327e-06
 103    -9.6213863141871e-05
 104    2.2622595063571e-06
 105    4.3101038569324e-07
 106    1.6898816087631e-06
 107    2.7052329106075e-05
 108    -3.6914384143936e-05
 109    2.9866425787563e-05
 110    -6.2858547418856e-07
 111    -1.7004660167082e-06
 112    7.5421813656031e-07
 113    4.8433451790178e-07
 114    1.5968749369608e-06
 115    -2.9789226391176e-07
 116    -2.7977165643346e-06
 117    1.0946118302316e-05
 118    -4.9903986691803e-08
 119    -2.0080349273081e-06
 120    1.4670280676826e-06
 121    -7.1873376964255e-06
 122    1.8851510413462e-05
 123    -8.6418636566344e-06
 124    -7.9780700336009e-07
 125    4.2155052129463e-07
 126    1.3519147464868e-06
 127    3.6008006723143e-07
 128    1.3916471482058e-08
 129    -9.6928716314263e-07
 130    -4.3221720919462e-06
 131    3.0473581208488e-07
 132    -5.8759009168511e-06
 133    1.4004371416614e-07
 134    2.5837226508496e-06
 135    0.00012632453098756
 136    -9.9876702806003e-06
 137    -3.1878859636902e-05
 138    1.7055350855176e-06
 139    -5.7129486343756e-07
 140    -3.5447645967873e-06
 141    2.2259140628325e-08
 142    -3.1338037228125e-06
 143    -2.8670023726512e-07
 144    -3.8701875984559e-07
 145    6.4496012516043e-05
 146    -7.2700902024939e-07
 147    6.3158594377547e-07
 148    -6.6432220609121e-06
 149    3.2300400395402e-05
 150    -5.0529015646475e-05
 151    3.2298187148825e-05
 152    5.3732152959697e-07
 153    1.0458325926644e-07
 154    2.6235829291717e-06
 155    6.4828745073502e-07
 156    6.4802042865487e-07
 157    -9.9734212835046e-07
 158    -8.7431182238435e-06
 159    4.7636340132903e-05
 160    -1.1326403385096e-06
 161    -7.5057180920083e-07
 162    1.712473391557e-06
 163    1.3115210769446e-05
 164    -1.927867630911e-05
 165    -6.1601457464457e-06
 166    -1.2283008203203e-06
 167    3.5750758751997e-07
 168    -5.3372088784152e-08
 169    -1.1016275442996e-06
 170    -5.7738618580934e-07
 171    4.3569430162372e-08
 172    1.0986282501753e-06
 173    -1.7737241179828e-06
 174    1.577474355863e-06
 175    2.5573261512922e-07
 176    -2.8299322415178e-06
 177    -2.2725319257088e-05
 178    -1.3941305411659e-06
 179    -5.4070934201637e-06
 180    3.0003306544269e-07
 181    -2.0657279769018e-06
 182    1.1887805818353e-07
 183    -1.3534529147886e-06
 184    -1.6271293108385e-06
 185    8.7019292650127e-07
 186    6.8348205038225e-06
 187    -4.5439130252334e-05
 188    1.5770459501975e-06
 189    4.3706640890477e-07
 190    1.1932771379456e-06
 191    4.8215260743577e-06
 192    1.1836007544368e-05
 193    2.026185796456e-05
 194    -8.8256738518298e-07
 195    -1.2651480410172e-06
 196    -1.810544824376e-06
 197    7.0208390394143e-07
 198    -7.0732393117765e-07
 199    2.2770406484466e-06
 200    -1.8318931852711e-06
 201    7.809999564831e-07
 202     1.74787841799e-07
 203    1.6357171523853e-06
 204    8.1752697350629e-06
 205    -3.3341914033947e-06
 206    -6.1676336677423e-07
 207    -2.8484470572853e-06
 208    -1.6408754012886e-06
 209    -3.8109596216192e-06
 210    -2.7097122663283e-06
 211    -2.5592330475738e-06
 212    -5.2218690715265e-06
 213    -8.3216643960871e-07
 214    6.3292241542531e-06
 215    5.1484736530554e-06
 216    -2.7641093370938e-05
 217    -1.623096477405e-06
 218    -4.5094172533387e-06
 219    -3.5689512808226e-07
 220    5.3706211399913e-06
 221    6.5094804049203e-06
 222    4.2426383125871e-05
 223    -0.00053353284091407
 224    -6.8293441518836e-06
 225    -2.8217592961714e-06
 226    6.3646856709426e-06
 227    -0.0001340691756329
 228    -8.2464870697639e-05
 229    0.00031316941988271
 230    -1.0582306184717e-05
 231    1.1347754169494e-05
 232    9.9550301980086e-06
 233    -4.9182017584903e-06
 234    -4.9079347421703e-06
 235    -6.896193442694e-06
 236    -3.2017581633034e-05
 237    0.00092689884507926
 238    1.1979123624975e-05
 239    9.466345009505e-06
 240    -3.2384186393198e-05
 241    -0.00035188837232435
 242    -0.00010177247405307
 243    5.3190515872651e-05
 244    1.8631762750455e-05
 245    -1.0753499622807e-05
 246    -8.9224454419695e-06
 247    -5.7225743341424e-07
 248    1.9421265698093e-06
 249    7.5558419717404e-06
 250    2.5997009252522e-05
 251    6.4640829262142e-06
 252    4.2757796427008e-05
 253    -0.00096493721506207
 254    1.7577534366503e-05
 255    -1.4853147255099e-06
 256    3.2742516838651e-05
 257    -0.00058909821736264
 258    -0.00010531154249719
 259    -0.00027513448160536
 260    -9.9288682321766e-06
 261    4.8489741369997e-06
 262    6.9824220005851e-06
 263    -9.19022175834e-06
 264    -6.8653041262823e-06
 265    2.3750699284766e-05
 266    1.5681933641558e-05
 267    -3.2616895754038e-05
 268    -0.00018150470820128
 269    -7.7399847703613e-05
 270    -0.00013134573634144
 271    0.0038466808370357
 272    7.3659145557279e-05
 273    -1.9628603338331e-05
 274    0.00020058348410324
 275     0.002936149212716
 276    0.0012995956215625
 277    -0.0026474705051414
 278    -0.00018874658373313
 279    -0.00033106313462978
 280    -6.0248726307465e-05