[Molden Format]
made by pyscf v[2.0.1]
[Atoms] (AU)
C   1   6     0.69100024066471     0.64692934207205    -3.48223131169301
H   2   1     2.68052439830868     1.13355088658700    -3.25784032593313
C   3   6    -0.36286361513219     0.85440132524594    -5.97030179418974
H   4   1    -2.35448549047279     0.36322488579172    -6.17995817793143
C   5   6     0.93697958957450     1.61209284601821    -8.05828437677121
H   6   1     1.06549067678056     3.62267689696451    -8.48487489511106
C   7   6     2.16736557798100    -0.10534186648568    -9.75912299477448
H   8   1     2.02320928491733    -2.11383137749881    -9.30645195914250
H   9   1     1.55630230933075    -1.92953025305990    12.99630010416247
C   10   6     0.75233899775814    -2.21270439606481    11.10705728102219
H   11   1    -0.43433408177274    -3.90944857546550    11.22216085340412
C   12   6     2.86362581178706    -2.63237380607947     9.17926416456045
H   13   1     4.39038949912609    -1.24955421540245     9.49899813497433
H   14   1     3.74629220191363    -4.48798724300892     9.47414880959024
C   15   6     2.02478325613682    -2.42177285709634     6.44560829588644
C   16   6     3.88048732735477    -3.58795445234514     4.61402886975252
C   17   6    -0.18412382258602    -1.30464291234259     5.76021113872346
C   18   6    -2.10044360464350    -0.26837831858460     7.71610340967100
C   19   6    -3.08956938670431     2.35282328359417     6.88693925039594
C   20   6    -4.37372924086464    -2.09766595989678     7.93610724222001
C   21   6    -0.83850430601230     0.06372213486173    10.33002307638377
H   22   1     0.38411922151109     1.74281358582432    10.27380136542181
H   23   1    -2.30980003007874     0.45460143924521    11.73986301809809
H   24   1     4.58527064644668    -5.38706904487420     5.36778158031719
H   25   1     5.54944938085014    -2.37631462192748     4.35398898413318
H   26   1     3.06633019150423    -3.94118377050688     2.75255466040884
H   27   1    -4.17727778763735     2.26573369139522     5.12914900961283
H   28   1    -1.52662344944051     3.68001877445626     6.59540397144508
H   29   1    -4.32916174397830     3.13643051467482     8.35225460090378
H   30   1    -5.32329548508442    -2.36691813602939     6.11583672749896
H   31   1    -5.77989366602257    -1.33896741843465     9.25748940450990
H   32   1    -3.79310905208926    -3.96389819310853     8.61386170102686
C   33   6    -1.01100794811226    -1.06331657314144     3.11929490449947
C   34   6     0.37686231036534    -0.33275864505552     1.09165013605873
H   35   1    -3.01671213906703    -1.40297922279997     2.77827895090944
C   36   6    -0.64382707979370    -0.11591880174385    -1.42063131251064
H   37   1     2.35569259782137     0.17174499283897     1.33641070251401
H   38   1    -2.63317482980319    -0.60229203511219    -1.66119700387645
C   39   6     3.47875288242203     0.56169257871714   -11.85961387583028
C   40   6     4.66516051155728    -1.33401759756945   -13.47384510134906
H   41   1     3.69428385946791     2.52875803282145   -12.41815504578381
O   42   8     5.86788117255002    -0.86880199432758   -15.38639878207248
H   43   1     4.39675898316744    -3.32256790318547   -12.83056660829343
[GTO]
1 0
 s    6 1.00
             3047.5249  0.0018347001629433
             457.36951    0.01403730124668
             103.94869   0.068842606114048
             29.210155    0.23218442062076
              9.286663    0.46794134155879
              3.163927    0.36231203217765
 s    3 1.00
             7.8682724   -0.11933240861517
             1.8812885   -0.16085421161283
             0.5442493     1.1434564825515
 s    1 1.00
             0.1687144                   1
 p    3 1.00
             7.8682724   0.068999095584993
             1.8812885    0.31642397975315
             0.5442493    0.74430825237435
 p    1 1.00
             0.1687144                   1
 d    1 1.00
                   0.8                   1

2 0
 s    3 1.00
             18.731137    0.03349459952309
             2.8253937    0.23472694665786
             0.6401217    0.81375731841339
 s    1 1.00
             0.1612778                   1

3 0
 s    6 1.00
             3047.5249  0.0018347001629433
             457.36951    0.01403730124668
             103.94869   0.068842606114048
             29.210155    0.23218442062076
              9.286663    0.46794134155879
              3.163927    0.36231203217765
 s    3 1.00
             7.8682724   -0.11933240861517
             1.8812885   -0.16085421161283
             0.5442493     1.1434564825515
 s    1 1.00
             0.1687144                   1
 p    3 1.00
             7.8682724   0.068999095584993
             1.8812885    0.31642397975315
             0.5442493    0.74430825237435
 p    1 1.00
             0.1687144                   1
 d    1 1.00
                   0.8                   1

4 0
 s    3 1.00
             18.731137    0.03349459952309
             2.8253937    0.23472694665786
             0.6401217    0.81375731841339
 s    1 1.00
             0.1612778                   1

5 0
 s    6 1.00
             3047.5249  0.0018347001629433
             457.36951    0.01403730124668
             103.94869   0.068842606114048
             29.210155    0.23218442062076
              9.286663    0.46794134155879
              3.163927    0.36231203217765
 s    3 1.00
             7.8682724   -0.11933240861517
             1.8812885   -0.16085421161283
             0.5442493     1.1434564825515
 s    1 1.00
             0.1687144                   1
 p    3 1.00
             7.8682724   0.068999095584993
             1.8812885    0.31642397975315
             0.5442493    0.74430825237435
 p    1 1.00
             0.1687144                   1
 d    1 1.00
                   0.8                   1

6 0
 s    3 1.00
             18.731137    0.03349459952309
             2.8253937    0.23472694665786
             0.6401217    0.81375731841339
 s    1 1.00
             0.1612778                   1

7 0
 s    6 1.00
             3047.5249  0.0018347001629433
             457.36951    0.01403730124668
             103.94869   0.068842606114048
             29.210155    0.23218442062076
              9.286663    0.46794134155879
              3.163927    0.36231203217765
 s    3 1.00
             7.8682724   -0.11933240861517
             1.8812885   -0.16085421161283
             0.5442493     1.1434564825515
 s    1 1.00
             0.1687144                   1
 p    3 1.00
             7.8682724   0.068999095584993
             1.8812885    0.31642397975315
             0.5442493    0.74430825237435
 p    1 1.00
             0.1687144                   1
 d    1 1.00
                   0.8                   1

8 0
 s    3 1.00
             18.731137    0.03349459952309
             2.8253937    0.23472694665786
             0.6401217    0.81375731841339
 s    1 1.00
             0.1612778                   1

9 0
 s    3 1.00
             18.731137    0.03349459952309
             2.8253937    0.23472694665786
             0.6401217    0.81375731841339
 s    1 1.00
             0.1612778                   1

10 0
 s    6 1.00
             3047.5249  0.0018347001629433
             457.36951    0.01403730124668
             103.94869   0.068842606114048
             29.210155    0.23218442062076
              9.286663    0.46794134155879
              3.163927    0.36231203217765
 s    3 1.00
             7.8682724   -0.11933240861517
             1.8812885   -0.16085421161283
             0.5442493     1.1434564825515
 s    1 1.00
             0.1687144                   1
 p    3 1.00
             7.8682724   0.068999095584993
             1.8812885    0.31642397975315
             0.5442493    0.74430825237435
 p    1 1.00
             0.1687144                   1
 d    1 1.00
                   0.8                   1

11 0
 s    3 1.00
             18.731137    0.03349459952309
             2.8253937    0.23472694665786
             0.6401217    0.81375731841339
 s    1 1.00
             0.1612778                   1

12 0
 s    6 1.00
             3047.5249  0.0018347001629433
             457.36951    0.01403730124668
             103.94869   0.068842606114048
             29.210155    0.23218442062076
              9.286663    0.46794134155879
              3.163927    0.36231203217765
 s    3 1.00
             7.8682724   -0.11933240861517
             1.8812885   -0.16085421161283
             0.5442493     1.1434564825515
 s    1 1.00
             0.1687144                   1
 p    3 1.00
             7.8682724   0.068999095584993
             1.8812885    0.31642397975315
             0.5442493    0.74430825237435
 p    1 1.00
             0.1687144                   1
 d    1 1.00
                   0.8                   1

13 0
 s    3 1.00
             18.731137    0.03349459952309
             2.8253937    0.23472694665786
             0.6401217    0.81375731841339
 s    1 1.00
             0.1612778                   1

14 0
 s    3 1.00
             18.731137    0.03349459952309
             2.8253937    0.23472694665786
             0.6401217    0.81375731841339
 s    1 1.00
             0.1612778                   1

15 0
 s    6 1.00
             3047.5249  0.0018347001629433
             457.36951    0.01403730124668
             103.94869   0.068842606114048
             29.210155    0.23218442062076
              9.286663    0.46794134155879
              3.163927    0.36231203217765
 s    3 1.00
             7.8682724   -0.11933240861517
             1.8812885   -0.16085421161283
             0.5442493     1.1434564825515
 s    1 1.00
             0.1687144                   1
 p    3 1.00
             7.8682724   0.068999095584993
             1.8812885    0.31642397975315
             0.5442493    0.74430825237435
 p    1 1.00
             0.1687144                   1
 d    1 1.00
                   0.8                   1

16 0
 s    6 1.00
             3047.5249  0.0018347001629433
             457.36951    0.01403730124668
             103.94869   0.068842606114048
             29.210155    0.23218442062076
              9.286663    0.46794134155879
              3.163927    0.36231203217765
 s    3 1.00
             7.8682724   -0.11933240861517
             1.8812885   -0.16085421161283
             0.5442493     1.1434564825515
 s    1 1.00
             0.1687144                   1
 p    3 1.00
             7.8682724   0.068999095584993
             1.8812885    0.31642397975315
             0.5442493    0.74430825237435
 p    1 1.00
             0.1687144                   1
 d    1 1.00
                   0.8                   1

17 0
 s    6 1.00
             3047.5249  0.0018347001629433
             457.36951    0.01403730124668
             103.94869   0.068842606114048
             29.210155    0.23218442062076
              9.286663    0.46794134155879
              3.163927    0.36231203217765
 s    3 1.00
             7.8682724   -0.11933240861517
             1.8812885   -0.16085421161283
             0.5442493     1.1434564825515
 s    1 1.00
             0.1687144                   1
 p    3 1.00
             7.8682724   0.068999095584993
             1.8812885    0.31642397975315
             0.5442493    0.74430825237435
 p    1 1.00
             0.1687144                   1
 d    1 1.00
                   0.8                   1

18 0
 s    6 1.00
             3047.5249  0.0018347001629433
             457.36951    0.01403730124668
             103.94869   0.068842606114048
             29.210155    0.23218442062076
              9.286663    0.46794134155879
              3.163927    0.36231203217765
 s    3 1.00
             7.8682724   -0.11933240861517
             1.8812885   -0.16085421161283
             0.5442493     1.1434564825515
 s    1 1.00
             0.1687144                   1
 p    3 1.00
             7.8682724   0.068999095584993
             1.8812885    0.31642397975315
             0.5442493    0.74430825237435
 p    1 1.00
             0.1687144                   1
 d    1 1.00
                   0.8                   1

19 0
 s    6 1.00
             3047.5249  0.0018347001629433
             457.36951    0.01403730124668
             103.94869   0.068842606114048
             29.210155    0.23218442062076
              9.286663    0.46794134155879
              3.163927    0.36231203217765
 s    3 1.00
             7.8682724   -0.11933240861517
             1.8812885   -0.16085421161283
             0.5442493     1.1434564825515
 s    1 1.00
             0.1687144                   1
 p    3 1.00
             7.8682724   0.068999095584993
             1.8812885    0.31642397975315
             0.5442493    0.74430825237435
 p    1 1.00
             0.1687144                   1
 d    1 1.00
                   0.8                   1

20 0
 s    6 1.00
             3047.5249  0.0018347001629433
             457.36951    0.01403730124668
             103.94869   0.068842606114048
             29.210155    0.23218442062076
              9.286663    0.46794134155879
              3.163927    0.36231203217765
 s    3 1.00
             7.8682724   -0.11933240861517
             1.8812885   -0.16085421161283
             0.5442493     1.1434564825515
 s    1 1.00
             0.1687144                   1
 p    3 1.00
             7.8682724   0.068999095584993
             1.8812885    0.31642397975315
             0.5442493    0.74430825237435
 p    1 1.00
             0.1687144                   1
 d    1 1.00
                   0.8                   1

21 0
 s    6 1.00
             3047.5249  0.0018347001629433
             457.36951    0.01403730124668
             103.94869   0.068842606114048
             29.210155    0.23218442062076
              9.286663    0.46794134155879
              3.163927    0.36231203217765
 s    3 1.00
             7.8682724   -0.11933240861517
             1.8812885   -0.16085421161283
             0.5442493     1.1434564825515
 s    1 1.00
             0.1687144                   1
 p    3 1.00
             7.8682724   0.068999095584993
             1.8812885    0.31642397975315
             0.5442493    0.74430825237435
 p    1 1.00
             0.1687144                   1
 d    1 1.00
                   0.8                   1

22 0
 s    3 1.00
             18.731137    0.03349459952309
             2.8253937    0.23472694665786
             0.6401217    0.81375731841339
 s    1 1.00
             0.1612778                   1

23 0
 s    3 1.00
             18.731137    0.03349459952309
             2.8253937    0.23472694665786
             0.6401217    0.81375731841339
 s    1 1.00
             0.1612778                   1

24 0
 s    3 1.00
             18.731137    0.03349459952309
             2.8253937    0.23472694665786
             0.6401217    0.81375731841339
 s    1 1.00
             0.1612778                   1

25 0
 s    3 1.00
             18.731137    0.03349459952309
             2.8253937    0.23472694665786
             0.6401217    0.81375731841339
 s    1 1.00
             0.1612778                   1

26 0
 s    3 1.00
             18.731137    0.03349459952309
             2.8253937    0.23472694665786
             0.6401217    0.81375731841339
 s    1 1.00
             0.1612778                   1

27 0
 s    3 1.00
             18.731137    0.03349459952309
             2.8253937    0.23472694665786
             0.6401217    0.81375731841339
 s    1 1.00
             0.1612778                   1

28 0
 s    3 1.00
             18.731137    0.03349459952309
             2.8253937    0.23472694665786
             0.6401217    0.81375731841339
 s    1 1.00
             0.1612778                   1

29 0
 s    3 1.00
             18.731137    0.03349459952309
             2.8253937    0.23472694665786
             0.6401217    0.81375731841339
 s    1 1.00
             0.1612778                   1

30 0
 s    3 1.00
             18.731137    0.03349459952309
             2.8253937    0.23472694665786
             0.6401217    0.81375731841339
 s    1 1.00
             0.1612778                   1

31 0
 s    3 1.00
             18.731137    0.03349459952309
             2.8253937    0.23472694665786
             0.6401217    0.81375731841339
 s    1 1.00
             0.1612778                   1

32 0
 s    3 1.00
             18.731137    0.03349459952309
             2.8253937    0.23472694665786
             0.6401217    0.81375731841339
 s    1 1.00
             0.1612778                   1

33 0
 s    6 1.00
             3047.5249  0.0018347001629433
             457.36951    0.01403730124668
             103.94869   0.068842606114048
             29.210155    0.23218442062076
              9.286663    0.46794134155879
              3.163927    0.36231203217765
 s    3 1.00
             7.8682724   -0.11933240861517
             1.8812885   -0.16085421161283
             0.5442493     1.1434564825515
 s    1 1.00
             0.1687144                   1
 p    3 1.00
             7.8682724   0.068999095584993
             1.8812885    0.31642397975315
             0.5442493    0.74430825237435
 p    1 1.00
             0.1687144                   1
 d    1 1.00
                   0.8                   1

34 0
 s    6 1.00
             3047.5249  0.0018347001629433
             457.36951    0.01403730124668
             103.94869   0.068842606114048
             29.210155    0.23218442062076
              9.286663    0.46794134155879
              3.163927    0.36231203217765
 s    3 1.00
             7.8682724   -0.11933240861517
             1.8812885   -0.16085421161283
             0.5442493     1.1434564825515
 s    1 1.00
             0.1687144                   1
 p    3 1.00
             7.8682724   0.068999095584993
             1.8812885    0.31642397975315
             0.5442493    0.74430825237435
 p    1 1.00
             0.1687144                   1
 d    1 1.00
                   0.8                   1

35 0
 s    3 1.00
             18.731137    0.03349459952309
             2.8253937    0.23472694665786
             0.6401217    0.81375731841339
 s    1 1.00
             0.1612778                   1

36 0
 s    6 1.00
             3047.5249  0.0018347001629433
             457.36951    0.01403730124668
             103.94869   0.068842606114048
             29.210155    0.23218442062076
              9.286663    0.46794134155879
              3.163927    0.36231203217765
 s    3 1.00
             7.8682724   -0.11933240861517
             1.8812885   -0.16085421161283
             0.5442493     1.1434564825515
 s    1 1.00
             0.1687144                   1
 p    3 1.00
             7.8682724   0.068999095584993
             1.8812885    0.31642397975315
             0.5442493    0.74430825237435
 p    1 1.00
             0.1687144                   1
 d    1 1.00
                   0.8                   1

37 0
 s    3 1.00
             18.731137    0.03349459952309
             2.8253937    0.23472694665786
             0.6401217    0.81375731841339
 s    1 1.00
             0.1612778                   1

38 0
 s    3 1.00
             18.731137    0.03349459952309
             2.8253937    0.23472694665786
             0.6401217    0.81375731841339
 s    1 1.00
             0.1612778                   1

39 0
 s    6 1.00
             3047.5249  0.0018347001629433
             457.36951    0.01403730124668
             103.94869   0.068842606114048
             29.210155    0.23218442062076
              9.286663    0.46794134155879
              3.163927    0.36231203217765
 s    3 1.00
             7.8682724   -0.11933240861517
             1.8812885   -0.16085421161283
             0.5442493     1.1434564825515
 s    1 1.00
             0.1687144                   1
 p    3 1.00
             7.8682724   0.068999095584993
             1.8812885    0.31642397975315
             0.5442493    0.74430825237435
 p    1 1.00
             0.1687144                   1
 d    1 1.00
                   0.8                   1

40 0
 s    6 1.00
             3047.5249  0.0018347001629433
             457.36951    0.01403730124668
             103.94869   0.068842606114048
             29.210155    0.23218442062076
              9.286663    0.46794134155879
              3.163927    0.36231203217765
 s    3 1.00
             7.8682724   -0.11933240861517
             1.8812885   -0.16085421161283
             0.5442493     1.1434564825515
 s    1 1.00
             0.1687144                   1
 p    3 1.00
             7.8682724   0.068999095584993
             1.8812885    0.31642397975315
             0.5442493    0.74430825237435
 p    1 1.00
             0.1687144                   1
 d    1 1.00
                   0.8                   1

41 0
 s    3 1.00
             18.731137    0.03349459952309
             2.8253937    0.23472694665786
             0.6401217    0.81375731841339
 s    1 1.00
             0.1612778                   1

42 0
 s    6 1.00
             5484.6717   0.001831099805527
             825.23495   0.013950098518422
             188.04696    0.06844509273075
               52.9645    0.23271427528445
              16.89757    0.47019295006289
             5.7996353    0.35852086192309
 s    3 1.00
             15.539616   -0.11077750382508
             3.5999336   -0.14802630511126
             1.0137618     1.1307670390447
 s    1 1.00
             0.2700058                   1
 p    3 1.00
             15.539616   0.070874299543311
             3.5999336    0.33975279781076
             1.0137618    0.72715859531445
 p    1 1.00
             0.2700058                   1
 d    1 1.00
                   0.8                   1

43 0
 s    3 1.00
             18.731137    0.03349459952309
             2.8253937    0.23472694665786
             0.6401217    0.81375731841339
 s    1 1.00
             0.1612778                   1

[5d]
[7f]
[9g]

[MO]
 Sym= A
 Ene=               0
 Spin= Alpha
 Occup=    1.00000
   1    8.9809237575109e-07
   2    2.2252136108266e-05
   3    -1.164897517848e-05
   4    2.4508193090355e-06
   5    7.342254707232e-06
   6    -1.8054329781295e-05
   7    -2.8469261136883e-05
   8    -9.5659300071209e-05
   9    0.00039835602887818
  10    -4.4161822722246e-07
  11    -1.1800857911556e-05
  12    -2.6336217979548e-06
  13    -1.4816995454286e-05
  14    8.1249154727919e-06
  15    1.5136411652883e-05
  16    -1.9195412526008e-05
  17    -5.1467892080499e-06
  18    -0.0001752644992107
  19    -0.00045640249197195
  20    -6.361045422155e-05
  21    9.9635256479478e-06
  22    8.2572935729699e-05
  23    -0.00017922338639732
  24    0.00010616104429569
  25    0.00066108565442519
  26    -2.2361850793259e-05
  27    2.4886840026917e-05
  28    -9.9353089358122e-06
  29    -4.5048170540657e-05
  30    3.0343803446058e-06
  31    1.161168008698e-05
  32    -3.2523438556091e-05
  33    -7.0910899106458e-05
  34    -0.00036645383345481
  35    0.0046688541752215
  36    9.9333667690294e-05
  37    -4.9604520692256e-05
  38    -0.00017661261028146
  39    0.00048669335320107
  40    -0.0020485409513952
  41    -0.00057259440728557
  42    2.7316258069016e-05
  43    -0.0001136863525161
  44    7.3665227966892e-05
  45    -3.1298972153342e-05
  46    -5.621008838543e-05
  47    5.596600626312e-06
  48    0.00028194687350575
  49    1.9434754236352e-05
  50    -0.00018036695022762
  51    -0.003784056341623
  52    -0.00022242097560727
  53    0.00025597224017373
  54    0.00032735486279835
  55    0.0017572280926414
  56    -0.0027251876774951
  57    -0.0023931736295184
  58    2.1368566902432e-05
  59    -3.9309265449438e-05
  60    -0.00020156321405142
  61    -2.6890357667932e-05
  62    0.00012622595439671
  63    -0.0003262859107171
  64    -9.1978716688978e-05
  65    2.4779453867827e-07
  66    4.6858578949158e-07
  67    6.3790414509692e-08
  68    5.5112222851848e-07
  69    -3.146493936148e-06
  70    -3.0843033140615e-07
  71    4.1316777931115e-07
  72    -1.0684277794985e-07
  73    -3.4380666272375e-07
  74    -1.4926328114551e-06
  75    -2.3097329183669e-07
  76    5.3692522525277e-08
  77    1.3638716847894e-07
  78    -5.1806629716575e-08
  79    -7.3055922456909e-08
  80    1.1411635210572e-07
  81    -9.2497285193607e-08
  82    -2.7368577497129e-08
  83    1.9228289764468e-08
  84    1.2205506115356e-07
  85    1.3553964983162e-05
  86    -6.0703020321034e-07
  87    -7.0458731024575e-08
  88    -7.6005497338547e-07
  89    -3.5741069203753e-06
  90    4.911427376875e-06
  91    -3.0036697641254e-06
  92    -1.9786609377117e-07
  93    3.3380917578377e-07
  94    -3.2363275860019e-07
  95    -2.6000495193081e-08
  96    1.9926445118753e-07
  97    -4.5813479240444e-07
  98    -2.1939223790762e-07
  99    -9.8934142504963e-08
 100    8.440401564282e-07
 101    -2.4404302881325e-08
 102    1.2388557779529e-06
 103    -1.4655717663069e-05
 104    -1.0073566551214e-06
 105    1.9691128454654e-09
 106    5.5757185279212e-07
 107    2.0066818404571e-05
 108    -2.0075058052028e-05
 109    -3.1617316847167e-05
 110    6.1015599682689e-07
 111    5.4206345141841e-07
 112    -2.6049918539705e-07
 113    -4.2939398203778e-07
 114    5.2636696484058e-07
 115    5.3898998128532e-07
 116     4.77318389587e-06
 117    -3.8807318328414e-05
 118    7.2748214074314e-07
 119    -1.1358292494485e-06
 120    -7.2025227601628e-07
 121    8.8314473160592e-06
 122    -8.8517657849336e-07
 123    -2.7090939255596e-06
 124    6.3502116887112e-08
 125    1.8689920789889e-07
 126    1.1372137639608e-07
 127    -5.7971092124923e-08
 128    3.9845620658041e-07
 129    9.4876788331107e-07
 130    9.3961550968552e-06
 131    -5.2927476579392e-05
 132    2.4124604864854e-07
 133    1.3383804089638e-06
 134    -3.8780410616963e-06
 135    2.6834592882897e-05
 136    -5.084610085783e-07
 137    8.4809004176622e-05
 138    -2.6546048427806e-06
 139    -1.577515735595e-06
 140    -4.2007926038628e-07
 141    -4.7239195647072e-07
 142    -1.8092447134204e-07
 143    5.3928932905537e-07
 144    3.6759728897416e-06
 145    -2.0528904729832e-05
 146    -6.1812406783683e-07
 147    -6.4897359878415e-07
 148    -2.0071528250947e-08
 149    -1.2558586635192e-05
 150    6.7773782876744e-06
 151    3.0435065693282e-06
 152    1.1069704187026e-06
 153    3.7043755601112e-07
 154    1.0291698634719e-07
 155    -7.3296594267202e-07
 156    8.009051450973e-07
 157    -4.458909428792e-09
 158    -1.1598101182216e-06
 159    -1.3033853800756e-06
 160    -8.2375328423802e-07
 161    3.4985667168564e-07
 162    2.4551315130044e-07
 163    6.8153097707207e-06
 164    -2.249841638855e-07
 165    -8.6229647472157e-07
 166    -4.4343259605802e-07
 167    1.2540332338388e-07
 168    6.7348602272042e-09
 169    1.1845831882836e-07
 170    -2.9816045088365e-07
 171    -7.3864283611525e-08
 172    5.5976874058465e-07
 173    1.8314308016926e-06
 174    9.1588279278501e-07
 175    2.8532441697587e-07
 176    -8.7153723872812e-07
 177    3.6980035627885e-07
 178    -1.4623631853711e-06
 179    2.0585046746461e-06
 180    -1.5081531567865e-07
 181    -1.9599899774662e-07
 182    -1.6098521462944e-08
 183    3.8856849139116e-07
 184    -1.8577257938654e-07
 185    2.9378406900922e-07
 186    3.248834963474e-06
 187    -2.2819820625282e-06
 188    1.8286265219847e-07
 189    -1.5910884822373e-07
 190    -1.3049139127702e-06
 191    -2.7247346156878e-06
 192    -8.9147609183788e-07
 193    5.8314085623325e-06
 194    -3.6676553189879e-07
 195    5.5842615948755e-08
 196    -1.8293788987413e-07
 197    -7.9089081773531e-08
 198    1.0495100281366e-07
 199    8.5819340089085e-07
 200    1.5387907815331e-06
 201    -1.6392265400145e-07
 202    -3.8189904005963e-06
 203    1.7194145522081e-06
 204    1.8168399669522e-06
 205    5.0688266588734e-07
 206    2.9488584656146e-06
 207    -1.5255584896925e-06
 208    1.2720366830607e-05
 209    -1.2386751024055e-06
 210    4.6134566407284e-06
 211    -5.0971248610698e-07
 212    -2.9165816767426e-06
 213    3.9940219807538e-07
 214    2.8034743806366e-06
 215    6.0979250710876e-07
 216    -5.7197555416806e-07
 217    -4.603455625864e-07
 218    -1.308635356718e-06
 219    -2.4277793904739e-07
 220    -1.069345966663e-06
 221    9.1135322531662e-07
 222    8.5613963349466e-06
 223    4.0549800983209e-06
 224    -1.2002094722087e-06
 225    3.2453702685227e-06
 226    -3.0756217243407e-06
 227    -1.483314263799e-05
 228    -2.5696898073621e-05
 229    0.00010089953782687
 230    1.2196381231031e-06
 231    4.2868796203859e-06
 232    2.2733745008083e-06
 233    -1.8778732102544e-06
 234    -3.0468786141259e-06
 235    1.0427083825141e-06
 236    1.2533538226473e-05
 237    -2.4402063876671e-05
 238    1.8127953977036e-06
 239    -6.3412751632451e-06
 240    -5.8729723964819e-06
 241    2.2230994611769e-05
 242    5.9585671765867e-06
 243    9.6302958540103e-05
 244    -1.8333557957266e-06
 245    -7.252130797479e-06
 246    -1.925478233398e-06
 247    -2.6782030448833e-06
 248    -1.6763292377906e-06
 249    4.336063178345e-06
 250    -1.1437029242851e-05
 251      4.6146906021e-06
 252    3.2025029021903e-05
 253    -0.0002638665343698
 254    -3.4951722243844e-06
 255    6.4787768439983e-06
 256    -7.2868896300822e-06
 257    -0.00011431951825773
 258    -0.0001137838037331
 259    0.00025322923783079
 260    -2.025615194732e-06
 261    1.2935219128548e-05
 262    5.6872407772933e-06
 263    -8.0615963557415e-06
 264    -6.4608976459865e-06
 265    5.1339092246812e-06
 266    -2.9199771208771e-05
 267    8.8969961731531e-06
 268    -4.2038071219131e-05
 269    7.2990414714894e-05
 270    9.9460693368194e-05
 271    -0.0033054159932586
 272    3.467431494607e-05
 273    0.00022269641670313
 274    -4.7182733688524e-05
 275    -0.0022099135040465
 276    -0.0006175629723881
 277    0.0035169867738032
 278    -0.00023202879757123
 279    0.00022445736303122
 280    -0.00016305484191156