[Molden Format]
made by pyscf v[2.0.1]
[Atoms] (AU)
C   1   6     0.69100024066471     0.64692934207205    -3.48223131169301
H   2   1     2.68052439830868     1.13355088658700    -3.25784032593313
C   3   6    -0.36286361513219     0.85440132524594    -5.97030179418974
H   4   1    -2.35448549047279     0.36322488579172    -6.17995817793143
C   5   6     0.93697958957450     1.61209284601821    -8.05828437677121
H   6   1     0.73648971111668     3.55370010139060    -8.71472010856714
C   7   6     2.58127687438623    -0.01872844577485    -9.47001807350619
H   8   1     2.76404479428938    -1.95840164828389    -8.78885291415754
H   9   1     1.55630230933075    -1.92953025305990    12.99630010416247
C   10   6     0.75233899775814    -2.21270439606481    11.10705728102219
H   11   1    -0.43433408177274    -3.90944857546550    11.22216085340412
C   12   6     2.86362581178706    -2.63237380607947     9.17926416456045
H   13   1     4.39038949912609    -1.24955421540245     9.49899813497433
H   14   1     3.74629220191363    -4.48798724300892     9.47414880959024
C   15   6     2.02478325613682    -2.42177285709634     6.44560829588644
C   16   6     3.88048732735477    -3.58795445234514     4.61402886975252
C   17   6    -0.18412382258602    -1.30464291234259     5.76021113872346
C   18   6    -2.10044360464350    -0.26837831858460     7.71610340967100
C   19   6    -3.08956938670431     2.35282328359417     6.88693925039594
C   20   6    -4.37372924086464    -2.09766595989678     7.93610724222001
C   21   6    -0.83850430601230     0.06372213486173    10.33002307638377
H   22   1     0.38411922151109     1.74281358582432    10.27380136542181
H   23   1    -2.30980003007874     0.45460143924521    11.73986301809809
H   24   1     4.58527064644668    -5.38706904487420     5.36778158031719
H   25   1     5.54944938085014    -2.37631462192748     4.35398898413318
H   26   1     3.06633019150423    -3.94118377050688     2.75255466040884
H   27   1    -4.17727778763735     2.26573369139522     5.12914900961283
H   28   1    -1.52662344944051     3.68001877445626     6.59540397144508
H   29   1    -4.32916174397830     3.13643051467482     8.35225460090378
H   30   1    -5.32329548508442    -2.36691813602939     6.11583672749896
H   31   1    -5.77989366602257    -1.33896741843465     9.25748940450990
H   32   1    -3.79310905208926    -3.96389819310853     8.61386170102686
C   33   6    -1.01100794811226    -1.06331657314144     3.11929490449947
C   34   6     0.37686231036534    -0.33275864505552     1.09165013605873
H   35   1    -3.01671213906703    -1.40297922279997     2.77827895090944
C   36   6    -0.64382707979370    -0.11591880174385    -1.42063131251064
H   37   1     2.35569259782137     0.17174499283897     1.33641070251401
H   38   1    -2.63317482980319    -0.60229203511219    -1.66119700387645
C   39   6     3.90960344721415     0.65123442372143   -11.55890098643101
C   40   6     5.53597339482346    -1.15257329589011   -12.86589030877460
H   41   1     3.81237322709460     2.55237110239842   -12.33607146621226
O   42   8     6.77935136485374    -0.67974925370394   -14.75037240649433
H   43   1     5.57867975922019    -3.07543379045103   -12.00509846248917
[GTO]
1 0
 s    6 1.00
             3047.5249  0.0018347001629433
             457.36951    0.01403730124668
             103.94869   0.068842606114048
             29.210155    0.23218442062076
              9.286663    0.46794134155879
              3.163927    0.36231203217765
 s    3 1.00
             7.8682724   -0.11933240861517
             1.8812885   -0.16085421161283
             0.5442493     1.1434564825515
 s    1 1.00
             0.1687144                   1
 p    3 1.00
             7.8682724   0.068999095584993
             1.8812885    0.31642397975315
             0.5442493    0.74430825237435
 p    1 1.00
             0.1687144                   1
 d    1 1.00
                   0.8                   1

2 0
 s    3 1.00
             18.731137    0.03349459952309
             2.8253937    0.23472694665786
             0.6401217    0.81375731841339
 s    1 1.00
             0.1612778                   1

3 0
 s    6 1.00
             3047.5249  0.0018347001629433
             457.36951    0.01403730124668
             103.94869   0.068842606114048
             29.210155    0.23218442062076
              9.286663    0.46794134155879
              3.163927    0.36231203217765
 s    3 1.00
             7.8682724   -0.11933240861517
             1.8812885   -0.16085421161283
             0.5442493     1.1434564825515
 s    1 1.00
             0.1687144                   1
 p    3 1.00
             7.8682724   0.068999095584993
             1.8812885    0.31642397975315
             0.5442493    0.74430825237435
 p    1 1.00
             0.1687144                   1
 d    1 1.00
                   0.8                   1

4 0
 s    3 1.00
             18.731137    0.03349459952309
             2.8253937    0.23472694665786
             0.6401217    0.81375731841339
 s    1 1.00
             0.1612778                   1

5 0
 s    6 1.00
             3047.5249  0.0018347001629433
             457.36951    0.01403730124668
             103.94869   0.068842606114048
             29.210155    0.23218442062076
              9.286663    0.46794134155879
              3.163927    0.36231203217765
 s    3 1.00
             7.8682724   -0.11933240861517
             1.8812885   -0.16085421161283
             0.5442493     1.1434564825515
 s    1 1.00
             0.1687144                   1
 p    3 1.00
             7.8682724   0.068999095584993
             1.8812885    0.31642397975315
             0.5442493    0.74430825237435
 p    1 1.00
             0.1687144                   1
 d    1 1.00
                   0.8                   1

6 0
 s    3 1.00
             18.731137    0.03349459952309
             2.8253937    0.23472694665786
             0.6401217    0.81375731841339
 s    1 1.00
             0.1612778                   1

7 0
 s    6 1.00
             3047.5249  0.0018347001629433
             457.36951    0.01403730124668
             103.94869   0.068842606114048
             29.210155    0.23218442062076
              9.286663    0.46794134155879
              3.163927    0.36231203217765
 s    3 1.00
             7.8682724   -0.11933240861517
             1.8812885   -0.16085421161283
             0.5442493     1.1434564825515
 s    1 1.00
             0.1687144                   1
 p    3 1.00
             7.8682724   0.068999095584993
             1.8812885    0.31642397975315
             0.5442493    0.74430825237435
 p    1 1.00
             0.1687144                   1
 d    1 1.00
                   0.8                   1

8 0
 s    3 1.00
             18.731137    0.03349459952309
             2.8253937    0.23472694665786
             0.6401217    0.81375731841339
 s    1 1.00
             0.1612778                   1

9 0
 s    3 1.00
             18.731137    0.03349459952309
             2.8253937    0.23472694665786
             0.6401217    0.81375731841339
 s    1 1.00
             0.1612778                   1

10 0
 s    6 1.00
             3047.5249  0.0018347001629433
             457.36951    0.01403730124668
             103.94869   0.068842606114048
             29.210155    0.23218442062076
              9.286663    0.46794134155879
              3.163927    0.36231203217765
 s    3 1.00
             7.8682724   -0.11933240861517
             1.8812885   -0.16085421161283
             0.5442493     1.1434564825515
 s    1 1.00
             0.1687144                   1
 p    3 1.00
             7.8682724   0.068999095584993
             1.8812885    0.31642397975315
             0.5442493    0.74430825237435
 p    1 1.00
             0.1687144                   1
 d    1 1.00
                   0.8                   1

11 0
 s    3 1.00
             18.731137    0.03349459952309
             2.8253937    0.23472694665786
             0.6401217    0.81375731841339
 s    1 1.00
             0.1612778                   1

12 0
 s    6 1.00
             3047.5249  0.0018347001629433
             457.36951    0.01403730124668
             103.94869   0.068842606114048
             29.210155    0.23218442062076
              9.286663    0.46794134155879
              3.163927    0.36231203217765
 s    3 1.00
             7.8682724   -0.11933240861517
             1.8812885   -0.16085421161283
             0.5442493     1.1434564825515
 s    1 1.00
             0.1687144                   1
 p    3 1.00
             7.8682724   0.068999095584993
             1.8812885    0.31642397975315
             0.5442493    0.74430825237435
 p    1 1.00
             0.1687144                   1
 d    1 1.00
                   0.8                   1

13 0
 s    3 1.00
             18.731137    0.03349459952309
             2.8253937    0.23472694665786
             0.6401217    0.81375731841339
 s    1 1.00
             0.1612778                   1

14 0
 s    3 1.00
             18.731137    0.03349459952309
             2.8253937    0.23472694665786
             0.6401217    0.81375731841339
 s    1 1.00
             0.1612778                   1

15 0
 s    6 1.00
             3047.5249  0.0018347001629433
             457.36951    0.01403730124668
             103.94869   0.068842606114048
             29.210155    0.23218442062076
              9.286663    0.46794134155879
              3.163927    0.36231203217765
 s    3 1.00
             7.8682724   -0.11933240861517
             1.8812885   -0.16085421161283
             0.5442493     1.1434564825515
 s    1 1.00
             0.1687144                   1
 p    3 1.00
             7.8682724   0.068999095584993
             1.8812885    0.31642397975315
             0.5442493    0.74430825237435
 p    1 1.00
             0.1687144                   1
 d    1 1.00
                   0.8                   1

16 0
 s    6 1.00
             3047.5249  0.0018347001629433
             457.36951    0.01403730124668
             103.94869   0.068842606114048
             29.210155    0.23218442062076
              9.286663    0.46794134155879
              3.163927    0.36231203217765
 s    3 1.00
             7.8682724   -0.11933240861517
             1.8812885   -0.16085421161283
             0.5442493     1.1434564825515
 s    1 1.00
             0.1687144                   1
 p    3 1.00
             7.8682724   0.068999095584993
             1.8812885    0.31642397975315
             0.5442493    0.74430825237435
 p    1 1.00
             0.1687144                   1
 d    1 1.00
                   0.8                   1

17 0
 s    6 1.00
             3047.5249  0.0018347001629433
             457.36951    0.01403730124668
             103.94869   0.068842606114048
             29.210155    0.23218442062076
              9.286663    0.46794134155879
              3.163927    0.36231203217765
 s    3 1.00
             7.8682724   -0.11933240861517
             1.8812885   -0.16085421161283
             0.5442493     1.1434564825515
 s    1 1.00
             0.1687144                   1
 p    3 1.00
             7.8682724   0.068999095584993
             1.8812885    0.31642397975315
             0.5442493    0.74430825237435
 p    1 1.00
             0.1687144                   1
 d    1 1.00
                   0.8                   1

18 0
 s    6 1.00
             3047.5249  0.0018347001629433
             457.36951    0.01403730124668
             103.94869   0.068842606114048
             29.210155    0.23218442062076
              9.286663    0.46794134155879
              3.163927    0.36231203217765
 s    3 1.00
             7.8682724   -0.11933240861517
             1.8812885   -0.16085421161283
             0.5442493     1.1434564825515
 s    1 1.00
             0.1687144                   1
 p    3 1.00
             7.8682724   0.068999095584993
             1.8812885    0.31642397975315
             0.5442493    0.74430825237435
 p    1 1.00
             0.1687144                   1
 d    1 1.00
                   0.8                   1

19 0
 s    6 1.00
             3047.5249  0.0018347001629433
             457.36951    0.01403730124668
             103.94869   0.068842606114048
             29.210155    0.23218442062076
              9.286663    0.46794134155879
              3.163927    0.36231203217765
 s    3 1.00
             7.8682724   -0.11933240861517
             1.8812885   -0.16085421161283
             0.5442493     1.1434564825515
 s    1 1.00
             0.1687144                   1
 p    3 1.00
             7.8682724   0.068999095584993
             1.8812885    0.31642397975315
             0.5442493    0.74430825237435
 p    1 1.00
             0.1687144                   1
 d    1 1.00
                   0.8                   1

20 0
 s    6 1.00
             3047.5249  0.0018347001629433
             457.36951    0.01403730124668
             103.94869   0.068842606114048
             29.210155    0.23218442062076
              9.286663    0.46794134155879
              3.163927    0.36231203217765
 s    3 1.00
             7.8682724   -0.11933240861517
             1.8812885   -0.16085421161283
             0.5442493     1.1434564825515
 s    1 1.00
             0.1687144                   1
 p    3 1.00
             7.8682724   0.068999095584993
             1.8812885    0.31642397975315
             0.5442493    0.74430825237435
 p    1 1.00
             0.1687144                   1
 d    1 1.00
                   0.8                   1

21 0
 s    6 1.00
             3047.5249  0.0018347001629433
             457.36951    0.01403730124668
             103.94869   0.068842606114048
             29.210155    0.23218442062076
              9.286663    0.46794134155879
              3.163927    0.36231203217765
 s    3 1.00
             7.8682724   -0.11933240861517
             1.8812885   -0.16085421161283
             0.5442493     1.1434564825515
 s    1 1.00
             0.1687144                   1
 p    3 1.00
             7.8682724   0.068999095584993
             1.8812885    0.31642397975315
             0.5442493    0.74430825237435
 p    1 1.00
             0.1687144                   1
 d    1 1.00
                   0.8                   1

22 0
 s    3 1.00
             18.731137    0.03349459952309
             2.8253937    0.23472694665786
             0.6401217    0.81375731841339
 s    1 1.00
             0.1612778                   1

23 0
 s    3 1.00
             18.731137    0.03349459952309
             2.8253937    0.23472694665786
             0.6401217    0.81375731841339
 s    1 1.00
             0.1612778                   1

24 0
 s    3 1.00
             18.731137    0.03349459952309
             2.8253937    0.23472694665786
             0.6401217    0.81375731841339
 s    1 1.00
             0.1612778                   1

25 0
 s    3 1.00
             18.731137    0.03349459952309
             2.8253937    0.23472694665786
             0.6401217    0.81375731841339
 s    1 1.00
             0.1612778                   1

26 0
 s    3 1.00
             18.731137    0.03349459952309
             2.8253937    0.23472694665786
             0.6401217    0.81375731841339
 s    1 1.00
             0.1612778                   1

27 0
 s    3 1.00
             18.731137    0.03349459952309
             2.8253937    0.23472694665786
             0.6401217    0.81375731841339
 s    1 1.00
             0.1612778                   1

28 0
 s    3 1.00
             18.731137    0.03349459952309
             2.8253937    0.23472694665786
             0.6401217    0.81375731841339
 s    1 1.00
             0.1612778                   1

29 0
 s    3 1.00
             18.731137    0.03349459952309
             2.8253937    0.23472694665786
             0.6401217    0.81375731841339
 s    1 1.00
             0.1612778                   1

30 0
 s    3 1.00
             18.731137    0.03349459952309
             2.8253937    0.23472694665786
             0.6401217    0.81375731841339
 s    1 1.00
             0.1612778                   1

31 0
 s    3 1.00
             18.731137    0.03349459952309
             2.8253937    0.23472694665786
             0.6401217    0.81375731841339
 s    1 1.00
             0.1612778                   1

32 0
 s    3 1.00
             18.731137    0.03349459952309
             2.8253937    0.23472694665786
             0.6401217    0.81375731841339
 s    1 1.00
             0.1612778                   1

33 0
 s    6 1.00
             3047.5249  0.0018347001629433
             457.36951    0.01403730124668
             103.94869   0.068842606114048
             29.210155    0.23218442062076
              9.286663    0.46794134155879
              3.163927    0.36231203217765
 s    3 1.00
             7.8682724   -0.11933240861517
             1.8812885   -0.16085421161283
             0.5442493     1.1434564825515
 s    1 1.00
             0.1687144                   1
 p    3 1.00
             7.8682724   0.068999095584993
             1.8812885    0.31642397975315
             0.5442493    0.74430825237435
 p    1 1.00
             0.1687144                   1
 d    1 1.00
                   0.8                   1

34 0
 s    6 1.00
             3047.5249  0.0018347001629433
             457.36951    0.01403730124668
             103.94869   0.068842606114048
             29.210155    0.23218442062076
              9.286663    0.46794134155879
              3.163927    0.36231203217765
 s    3 1.00
             7.8682724   -0.11933240861517
             1.8812885   -0.16085421161283
             0.5442493     1.1434564825515
 s    1 1.00
             0.1687144                   1
 p    3 1.00
             7.8682724   0.068999095584993
             1.8812885    0.31642397975315
             0.5442493    0.74430825237435
 p    1 1.00
             0.1687144                   1
 d    1 1.00
                   0.8                   1

35 0
 s    3 1.00
             18.731137    0.03349459952309
             2.8253937    0.23472694665786
             0.6401217    0.81375731841339
 s    1 1.00
             0.1612778                   1

36 0
 s    6 1.00
             3047.5249  0.0018347001629433
             457.36951    0.01403730124668
             103.94869   0.068842606114048
             29.210155    0.23218442062076
              9.286663    0.46794134155879
              3.163927    0.36231203217765
 s    3 1.00
             7.8682724   -0.11933240861517
             1.8812885   -0.16085421161283
             0.5442493     1.1434564825515
 s    1 1.00
             0.1687144                   1
 p    3 1.00
             7.8682724   0.068999095584993
             1.8812885    0.31642397975315
             0.5442493    0.74430825237435
 p    1 1.00
             0.1687144                   1
 d    1 1.00
                   0.8                   1

37 0
 s    3 1.00
             18.731137    0.03349459952309
             2.8253937    0.23472694665786
             0.6401217    0.81375731841339
 s    1 1.00
             0.1612778                   1

38 0
 s    3 1.00
             18.731137    0.03349459952309
             2.8253937    0.23472694665786
             0.6401217    0.81375731841339
 s    1 1.00
             0.1612778                   1

39 0
 s    6 1.00
             3047.5249  0.0018347001629433
             457.36951    0.01403730124668
             103.94869   0.068842606114048
             29.210155    0.23218442062076
              9.286663    0.46794134155879
              3.163927    0.36231203217765
 s    3 1.00
             7.8682724   -0.11933240861517
             1.8812885   -0.16085421161283
             0.5442493     1.1434564825515
 s    1 1.00
             0.1687144                   1
 p    3 1.00
             7.8682724   0.068999095584993
             1.8812885    0.31642397975315
             0.5442493    0.74430825237435
 p    1 1.00
             0.1687144                   1
 d    1 1.00
                   0.8                   1

40 0
 s    6 1.00
             3047.5249  0.0018347001629433
             457.36951    0.01403730124668
             103.94869   0.068842606114048
             29.210155    0.23218442062076
              9.286663    0.46794134155879
              3.163927    0.36231203217765
 s    3 1.00
             7.8682724   -0.11933240861517
             1.8812885   -0.16085421161283
             0.5442493     1.1434564825515
 s    1 1.00
             0.1687144                   1
 p    3 1.00
             7.8682724   0.068999095584993
             1.8812885    0.31642397975315
             0.5442493    0.74430825237435
 p    1 1.00
             0.1687144                   1
 d    1 1.00
                   0.8                   1

41 0
 s    3 1.00
             18.731137    0.03349459952309
             2.8253937    0.23472694665786
             0.6401217    0.81375731841339
 s    1 1.00
             0.1612778                   1

42 0
 s    6 1.00
             5484.6717   0.001831099805527
             825.23495   0.013950098518422
             188.04696    0.06844509273075
               52.9645    0.23271427528445
              16.89757    0.47019295006289
             5.7996353    0.35852086192309
 s    3 1.00
             15.539616   -0.11077750382508
             3.5999336   -0.14802630511126
             1.0137618     1.1307670390447
 s    1 1.00
             0.2700058                   1
 p    3 1.00
             15.539616   0.070874299543311
             3.5999336    0.33975279781076
             1.0137618    0.72715859531445
 p    1 1.00
             0.2700058                   1
 d    1 1.00
                   0.8                   1

43 0
 s    3 1.00
             18.731137    0.03349459952309
             2.8253937    0.23472694665786
             0.6401217    0.81375731841339
 s    1 1.00
             0.1612778                   1

[5d]
[7f]
[9g]

[MO]
 Sym= A
 Ene=               0
 Spin= Alpha
 Occup=    1.00000
   1    -8.495628535097e-07
   2    -9.2850345587092e-06
   3    -0.00011717623249577
   4    -5.7289126990028e-07
   5    -1.8773719805398e-05
   6    1.0149102019816e-05
   7    6.5999326291148e-05
   8    0.00015286357375237
   9    -0.00034876116908296
  10    -1.1123464625579e-06
  11    9.0010432990789e-06
  12    -4.9455009505771e-08
  13    1.4142052439868e-05
  14    -8.221079140406e-06
  15    -1.3743000525421e-05
  16    4.6596324433923e-06
  17    3.9157127052263e-06
  18    0.00016242824216673
  19    0.00053092384850221
  20    6.680942560226e-05
  21    -3.8445538809254e-06
  22    -8.0331244824178e-05
  23    0.00026959116143577
  24    -0.00013582084933437
  25    -0.00055155792934126
  26    2.3672681300719e-05
  27    -2.5701436221579e-05
  28    1.6656524804754e-05
  29     4.15333425721e-05
  30    8.4813768187797e-06
  31    -1.5504258447869e-05
  32    4.1873396223381e-05
  33    7.0915961329718e-05
  34    0.00036574782690697
  35    -0.0046559371186545
  36    -0.00013315852726681
  37    4.1834284504912e-05
  38    0.00015224821346338
  39    -0.00092939912979947
  40    0.0019780412411925
  41    0.00028861858354079
  42    -3.9271996145462e-06
  43    0.00011909267626731
  44    -4.7436904279363e-05
  45    5.1766088000183e-06
  46    8.3598615174204e-05
  47    -7.8610830167655e-06
  48    -0.0002887772811902
  49    -1.9622137417543e-05
  50    0.00018027895243931
  51    0.0038076687620026
  52    0.00029951777218956
  53    -0.00024007656779908
  54    -0.000271888296279
  55    -0.0023910598377734
  56    0.0026029992197807
  57     0.001948216486732
  58    -5.8322703411284e-05
  59    2.2477426513653e-05
  60    0.00019540756475983
  61    4.8844218173811e-05
  62    -0.00012146491920884
  63    0.00032692524285004
  64    9.4249377022536e-05
  65    -2.0218968643416e-07
  66    -4.9419567276339e-07
  67    -6.1859330319261e-08
  68    -5.029980399348e-07
  69    2.8829871475192e-06
  70    2.6534442988106e-07
  71    -3.6819801565622e-07
  72    1.4125157485669e-07
  73    3.1051777193864e-07
  74    1.3930114634827e-06
  75    1.1804119818043e-07
  76    -7.2086192807764e-08
  77    -1.4172636331807e-07
  78    3.9213695173906e-08
  79    5.2491414434387e-08
  80    -1.2872097858885e-07
  81    9.7870278625995e-08
  82    -1.3567812279326e-08
  83    -4.1389982901609e-08
  84    -3.5098424996832e-07
  85    -1.5022015691757e-05
  86    6.9184375676065e-07
  87    -5.1982247022203e-08
  88    8.0468124468435e-07
  89    3.3170192615619e-06
  90    -4.2759436929505e-06
  91    3.831858437083e-06
  92    2.1222503139605e-07
  93    -3.2321444450752e-07
  94    3.1162247947549e-07
  95    7.2590722752149e-08
  96    -2.197152282636e-07
  97    4.1433989458752e-07
  98    5.2936952829628e-08
  99    2.1090306475597e-07
 100    -6.2397883269959e-07
 101    1.0921051047307e-07
 102    -6.9550032438682e-07
 103    6.6049331095646e-06
 104    1.2824238189198e-06
 105    -2.4806514100628e-08
 106    -6.3482445010476e-07
 107    -1.8864210605783e-05
 108    1.974690726286e-05
 109    3.7705132627688e-05
 110    -6.6384458905091e-07
 111    -6.7425854574833e-07
 112    2.9962787771356e-07
 113    2.5506917250458e-07
 114    -4.9233532657636e-07
 115    -5.287906994135e-07
 116    -4.7879451140819e-06
 117    4.0166960656695e-05
 118    -7.5624881140483e-07
 119    9.5012658615365e-07
 120    8.8647382304286e-07
 121    -1.0417226149618e-05
 122    2.9545745571466e-06
 123    4.0093289120068e-06
 124    -1.3985379710125e-07
 125    -2.8240360176591e-07
 126    -8.001240196388e-09
 127    1.7920417538097e-07
 128    -4.8346735684642e-07
 129    -1.070716499796e-06
 130    -9.5980756767786e-06
 131    6.2142624044216e-05
 132    -5.0266878187314e-07
 133    -6.8960099911916e-07
 134    3.7922179070165e-06
 135    -2.0476215199825e-05
 136    -4.3337809824324e-06
 137    -9.5802841323525e-05
 138    2.8750875705582e-06
 139    1.8241375888662e-06
 140    2.8313492344554e-07
 141    5.3157606804676e-07
 142    -5.3292570285395e-09
 143    -6.877659760702e-07
 144    -4.9532277297116e-06
 145    3.0191159345629e-05
 146    4.6876705954551e-07
 147    3.9833042492975e-07
 148    -1.3606102898483e-07
 149    1.6958503180813e-05
 150    -6.6343242074379e-06
 151    -4.6602837589129e-06
 152    -1.036033099026e-06
 153    -4.6218237459916e-07
 154    -6.4335098779417e-08
 155    7.9208794172414e-07
 156    -9.4777398323298e-07
 157    1.2391863784876e-08
 158    1.0651803934578e-06
 159    4.9989689890468e-07
 160    7.2009721083784e-07
 161    -2.2490975840174e-07
 162    -3.6817245577468e-07
 163    -7.5505674241254e-06
 164    6.0019254900524e-07
 165    8.1670986251202e-07
 166    5.2918184358109e-07
 167    -2.548055359213e-07
 168    2.0475585216711e-08
 169    -1.3808663752741e-07
 170    3.7131872648973e-07
 171    6.259815843342e-08
 172    -6.0206809161183e-07
 173    -8.5912472280962e-07
 174    -8.1905364233944e-07
 175    -3.1044798111627e-07
 176    7.9425887824001e-07
 177    -8.2005540602344e-07
 178    1.9968719104011e-06
 179    -1.7542078487962e-06
 180    1.3333528046456e-07
 181    1.5091993637178e-07
 182    8.8653471198125e-08
 183    -4.3476323025366e-07
 184    1.6135788917853e-07
 185    -2.7278596790743e-07
 186    -3.1178744404085e-06
 187    1.7224438309788e-07
 188    -1.1794432530223e-07
 189    1.8161608705155e-07
 190    1.4848274269016e-06
 191    2.5752364528173e-06
 192    7.1820904480893e-07
 193    -4.7301255926305e-06
 194    2.5145288660943e-07
 195    -9.5787246418181e-08
 196    2.2699096632921e-07
 197    1.4659800118236e-07
 198    -1.3740582606526e-07
 199    -7.3165435716969e-07
 200    -1.2937490130668e-06
 201    1.5989298467437e-07
 202    3.8775677463037e-06
 203    -1.5525951940138e-06
 204    -9.8454330348025e-07
 205    -6.2690359690692e-07
 206    -3.0035115130801e-06
 207    8.2572844657444e-07
 208    -9.8051684693881e-06
 209    1.3186300645965e-06
 210    -5.0606918532533e-06
 211    6.157521332542e-07
 212    2.9864561822269e-06
 213    -4.5753244548896e-07
 214    -2.7165362690834e-06
 215    -4.4956083109777e-07
 216    4.0167545238462e-08
 217    3.4067128249151e-07
 218    9.9054974343698e-07
 219    2.9863680956186e-07
 220    1.2097449091381e-06
 221    -5.9666354229382e-07
 222    -7.2874221930776e-06
 223    -2.9657640893318e-05
 224    1.4693112105573e-06
 225    -4.4262632276369e-06
 226    3.8492664855453e-06
 227    3.2694992627393e-06
 228    2.5968199995394e-05
 229    -0.00010192458018669
 230    -1.5275598071894e-06
 231    -4.401417633832e-06
 232    -1.8376304665683e-06
 233    1.867839739565e-06
 234    2.8498929063654e-06
 235    -9.8340768578804e-07
 236    -1.100325759367e-05
 237    3.5194128294248e-05
 238    -1.1341845121326e-06
 239    6.4014797009505e-06
 240    5.0085652751904e-06
 241    -3.2613464288183e-05
 242    -6.2586695042651e-06
 243    -8.0243116275103e-05
 244    1.0331676668941e-06
 245    6.8925640104445e-06
 246    8.1675426565738e-07
 247    2.8566799011231e-06
 248    7.6108574627853e-07
 249    -5.2420025937295e-06
 250    1.0910610162876e-05
 251    -4.6229679359662e-06
 252    -3.5731595330001e-05
 253     0.000303127869306
 254    2.1361880024714e-07
 255    -3.3574511151351e-06
 256    9.0665226765583e-06
 257    0.00012080641575707
 258    9.3041855231079e-05
 259    -0.00027971698437301
 260    3.6131896673891e-06
 261    -1.3741479104436e-05
 262    -4.2366608606892e-06
 263    9.424896417895e-06
 264    3.7496156919664e-06
 265    -3.1925971811156e-06
 266    3.0317557650312e-05
 267    -9.4003916575908e-06
 268    3.4470676205284e-05
 269    -7.2858626970553e-05
 270    -9.868871672285e-05
 271     0.003292752881443
 272    2.8776622400208e-05
 273    -0.00020935690761662
 274    9.0928946605793e-05
 275    0.0023541407980181
 276    0.00064622712805145
 277    -0.0034232706672397
 278    0.00016988865698926
 279    -0.00025648358452622
 280    0.00018160934734088