[Molden Format]
made by pyscf v[2.0.1]
[Atoms] (AU)
C   1   6     0.69100024066471     0.64692934207205    -3.48223131169301
H   2   1     2.68052439830868     1.13355088658700    -3.25784032593313
C   3   6    -0.36286361513219     0.85440132524594    -5.97030179418974
H   4   1    -2.35448549047279     0.36322488579172    -6.17995817793143
C   5   6     0.93697958957450     1.61209284601821    -8.05828437677121
H   6   1    -0.06960811584452     2.58702669474359    -9.56733307637730
C   7   6     3.59571274713804     1.19684402678434    -8.39738626626495
H   8   1     4.57899779978681     0.21871567749258    -6.86894337963000
H   9   1     1.55630230933075    -1.92953025305990    12.99630010416247
C   10   6     0.75233899775814    -2.21270439606481    11.10705728102219
H   11   1    -0.43433408177274    -3.90944857546550    11.22216085340412
C   12   6     2.86362581178706    -2.63237380607947     9.17926416456045
H   13   1     4.39038949912609    -1.24955421540245     9.49899813497433
H   14   1     3.74629220191363    -4.48798724300892     9.47414880959024
C   15   6     2.02478325613682    -2.42177285709634     6.44560829588644
C   16   6     3.88048732735477    -3.58795445234514     4.61402886975252
C   17   6    -0.18412382258602    -1.30464291234259     5.76021113872346
C   18   6    -2.10044360464350    -0.26837831858460     7.71610340967100
C   19   6    -3.08956938670431     2.35282328359417     6.88693925039594
C   20   6    -4.37372924086464    -2.09766595989678     7.93610724222001
C   21   6    -0.83850430601230     0.06372213486173    10.33002307638377
H   22   1     0.38411922151109     1.74281358582432    10.27380136542181
H   23   1    -2.30980003007874     0.45460143924521    11.73986301809809
H   24   1     4.58527064644668    -5.38706904487420     5.36778158031719
H   25   1     5.54944938085014    -2.37631462192748     4.35398898413318
H   26   1     3.06633019150423    -3.94118377050688     2.75255466040884
H   27   1    -4.17727778763735     2.26573369139522     5.12914900961283
H   28   1    -1.52662344944051     3.68001877445626     6.59540397144508
H   29   1    -4.32916174397830     3.13643051467482     8.35225460090378
H   30   1    -5.32329548508442    -2.36691813602939     6.11583672749896
H   31   1    -5.77989366602257    -1.33896741843465     9.25748940450990
H   32   1    -3.79310905208926    -3.96389819310853     8.61386170102686
C   33   6    -1.01100794811226    -1.06331657314144     3.11929490449947
C   34   6     0.37686231036534    -0.33275864505552     1.09165013605873
H   35   1    -3.01671213906703    -1.40297922279997     2.77827895090944
C   36   6    -0.64382707979370    -0.11591880174385    -1.42063131251064
H   37   1     2.35569259782137     0.17174499283897     1.33641070251401
H   38   1    -2.63317482980319    -0.60229203511219    -1.66119700387645
C   39   6     4.96665860975130     1.91437223239220   -10.44247655051683
C   40   6     7.67160233174465     1.40206885234173   -10.60935163126053
H   41   1     4.10375913642339     2.89528826049847   -12.03023490303406
O   42   8     9.01623610133373     1.99111078946158   -12.38862500825095
H   43   1     8.47573431044455     0.39495244048141    -8.94223819440966
[GTO]
1 0
 s    6 1.00
             3047.5249  0.0018347001629433
             457.36951    0.01403730124668
             103.94869   0.068842606114048
             29.210155    0.23218442062076
              9.286663    0.46794134155879
              3.163927    0.36231203217765
 s    3 1.00
             7.8682724   -0.11933240861517
             1.8812885   -0.16085421161283
             0.5442493     1.1434564825515
 s    1 1.00
             0.1687144                   1
 p    3 1.00
             7.8682724   0.068999095584993
             1.8812885    0.31642397975315
             0.5442493    0.74430825237435
 p    1 1.00
             0.1687144                   1
 d    1 1.00
                   0.8                   1

2 0
 s    3 1.00
             18.731137    0.03349459952309
             2.8253937    0.23472694665786
             0.6401217    0.81375731841339
 s    1 1.00
             0.1612778                   1

3 0
 s    6 1.00
             3047.5249  0.0018347001629433
             457.36951    0.01403730124668
             103.94869   0.068842606114048
             29.210155    0.23218442062076
              9.286663    0.46794134155879
              3.163927    0.36231203217765
 s    3 1.00
             7.8682724   -0.11933240861517
             1.8812885   -0.16085421161283
             0.5442493     1.1434564825515
 s    1 1.00
             0.1687144                   1
 p    3 1.00
             7.8682724   0.068999095584993
             1.8812885    0.31642397975315
             0.5442493    0.74430825237435
 p    1 1.00
             0.1687144                   1
 d    1 1.00
                   0.8                   1

4 0
 s    3 1.00
             18.731137    0.03349459952309
             2.8253937    0.23472694665786
             0.6401217    0.81375731841339
 s    1 1.00
             0.1612778                   1

5 0
 s    6 1.00
             3047.5249  0.0018347001629433
             457.36951    0.01403730124668
             103.94869   0.068842606114048
             29.210155    0.23218442062076
              9.286663    0.46794134155879
              3.163927    0.36231203217765
 s    3 1.00
             7.8682724   -0.11933240861517
             1.8812885   -0.16085421161283
             0.5442493     1.1434564825515
 s    1 1.00
             0.1687144                   1
 p    3 1.00
             7.8682724   0.068999095584993
             1.8812885    0.31642397975315
             0.5442493    0.74430825237435
 p    1 1.00
             0.1687144                   1
 d    1 1.00
                   0.8                   1

6 0
 s    3 1.00
             18.731137    0.03349459952309
             2.8253937    0.23472694665786
             0.6401217    0.81375731841339
 s    1 1.00
             0.1612778                   1

7 0
 s    6 1.00
             3047.5249  0.0018347001629433
             457.36951    0.01403730124668
             103.94869   0.068842606114048
             29.210155    0.23218442062076
              9.286663    0.46794134155879
              3.163927    0.36231203217765
 s    3 1.00
             7.8682724   -0.11933240861517
             1.8812885   -0.16085421161283
             0.5442493     1.1434564825515
 s    1 1.00
             0.1687144                   1
 p    3 1.00
             7.8682724   0.068999095584993
             1.8812885    0.31642397975315
             0.5442493    0.74430825237435
 p    1 1.00
             0.1687144                   1
 d    1 1.00
                   0.8                   1

8 0
 s    3 1.00
             18.731137    0.03349459952309
             2.8253937    0.23472694665786
             0.6401217    0.81375731841339
 s    1 1.00
             0.1612778                   1

9 0
 s    3 1.00
             18.731137    0.03349459952309
             2.8253937    0.23472694665786
             0.6401217    0.81375731841339
 s    1 1.00
             0.1612778                   1

10 0
 s    6 1.00
             3047.5249  0.0018347001629433
             457.36951    0.01403730124668
             103.94869   0.068842606114048
             29.210155    0.23218442062076
              9.286663    0.46794134155879
              3.163927    0.36231203217765
 s    3 1.00
             7.8682724   -0.11933240861517
             1.8812885   -0.16085421161283
             0.5442493     1.1434564825515
 s    1 1.00
             0.1687144                   1
 p    3 1.00
             7.8682724   0.068999095584993
             1.8812885    0.31642397975315
             0.5442493    0.74430825237435
 p    1 1.00
             0.1687144                   1
 d    1 1.00
                   0.8                   1

11 0
 s    3 1.00
             18.731137    0.03349459952309
             2.8253937    0.23472694665786
             0.6401217    0.81375731841339
 s    1 1.00
             0.1612778                   1

12 0
 s    6 1.00
             3047.5249  0.0018347001629433
             457.36951    0.01403730124668
             103.94869   0.068842606114048
             29.210155    0.23218442062076
              9.286663    0.46794134155879
              3.163927    0.36231203217765
 s    3 1.00
             7.8682724   -0.11933240861517
             1.8812885   -0.16085421161283
             0.5442493     1.1434564825515
 s    1 1.00
             0.1687144                   1
 p    3 1.00
             7.8682724   0.068999095584993
             1.8812885    0.31642397975315
             0.5442493    0.74430825237435
 p    1 1.00
             0.1687144                   1
 d    1 1.00
                   0.8                   1

13 0
 s    3 1.00
             18.731137    0.03349459952309
             2.8253937    0.23472694665786
             0.6401217    0.81375731841339
 s    1 1.00
             0.1612778                   1

14 0
 s    3 1.00
             18.731137    0.03349459952309
             2.8253937    0.23472694665786
             0.6401217    0.81375731841339
 s    1 1.00
             0.1612778                   1

15 0
 s    6 1.00
             3047.5249  0.0018347001629433
             457.36951    0.01403730124668
             103.94869   0.068842606114048
             29.210155    0.23218442062076
              9.286663    0.46794134155879
              3.163927    0.36231203217765
 s    3 1.00
             7.8682724   -0.11933240861517
             1.8812885   -0.16085421161283
             0.5442493     1.1434564825515
 s    1 1.00
             0.1687144                   1
 p    3 1.00
             7.8682724   0.068999095584993
             1.8812885    0.31642397975315
             0.5442493    0.74430825237435
 p    1 1.00
             0.1687144                   1
 d    1 1.00
                   0.8                   1

16 0
 s    6 1.00
             3047.5249  0.0018347001629433
             457.36951    0.01403730124668
             103.94869   0.068842606114048
             29.210155    0.23218442062076
              9.286663    0.46794134155879
              3.163927    0.36231203217765
 s    3 1.00
             7.8682724   -0.11933240861517
             1.8812885   -0.16085421161283
             0.5442493     1.1434564825515
 s    1 1.00
             0.1687144                   1
 p    3 1.00
             7.8682724   0.068999095584993
             1.8812885    0.31642397975315
             0.5442493    0.74430825237435
 p    1 1.00
             0.1687144                   1
 d    1 1.00
                   0.8                   1

17 0
 s    6 1.00
             3047.5249  0.0018347001629433
             457.36951    0.01403730124668
             103.94869   0.068842606114048
             29.210155    0.23218442062076
              9.286663    0.46794134155879
              3.163927    0.36231203217765
 s    3 1.00
             7.8682724   -0.11933240861517
             1.8812885   -0.16085421161283
             0.5442493     1.1434564825515
 s    1 1.00
             0.1687144                   1
 p    3 1.00
             7.8682724   0.068999095584993
             1.8812885    0.31642397975315
             0.5442493    0.74430825237435
 p    1 1.00
             0.1687144                   1
 d    1 1.00
                   0.8                   1

18 0
 s    6 1.00
             3047.5249  0.0018347001629433
             457.36951    0.01403730124668
             103.94869   0.068842606114048
             29.210155    0.23218442062076
              9.286663    0.46794134155879
              3.163927    0.36231203217765
 s    3 1.00
             7.8682724   -0.11933240861517
             1.8812885   -0.16085421161283
             0.5442493     1.1434564825515
 s    1 1.00
             0.1687144                   1
 p    3 1.00
             7.8682724   0.068999095584993
             1.8812885    0.31642397975315
             0.5442493    0.74430825237435
 p    1 1.00
             0.1687144                   1
 d    1 1.00
                   0.8                   1

19 0
 s    6 1.00
             3047.5249  0.0018347001629433
             457.36951    0.01403730124668
             103.94869   0.068842606114048
             29.210155    0.23218442062076
              9.286663    0.46794134155879
              3.163927    0.36231203217765
 s    3 1.00
             7.8682724   -0.11933240861517
             1.8812885   -0.16085421161283
             0.5442493     1.1434564825515
 s    1 1.00
             0.1687144                   1
 p    3 1.00
             7.8682724   0.068999095584993
             1.8812885    0.31642397975315
             0.5442493    0.74430825237435
 p    1 1.00
             0.1687144                   1
 d    1 1.00
                   0.8                   1

20 0
 s    6 1.00
             3047.5249  0.0018347001629433
             457.36951    0.01403730124668
             103.94869   0.068842606114048
             29.210155    0.23218442062076
              9.286663    0.46794134155879
              3.163927    0.36231203217765
 s    3 1.00
             7.8682724   -0.11933240861517
             1.8812885   -0.16085421161283
             0.5442493     1.1434564825515
 s    1 1.00
             0.1687144                   1
 p    3 1.00
             7.8682724   0.068999095584993
             1.8812885    0.31642397975315
             0.5442493    0.74430825237435
 p    1 1.00
             0.1687144                   1
 d    1 1.00
                   0.8                   1

21 0
 s    6 1.00
             3047.5249  0.0018347001629433
             457.36951    0.01403730124668
             103.94869   0.068842606114048
             29.210155    0.23218442062076
              9.286663    0.46794134155879
              3.163927    0.36231203217765
 s    3 1.00
             7.8682724   -0.11933240861517
             1.8812885   -0.16085421161283
             0.5442493     1.1434564825515
 s    1 1.00
             0.1687144                   1
 p    3 1.00
             7.8682724   0.068999095584993
             1.8812885    0.31642397975315
             0.5442493    0.74430825237435
 p    1 1.00
             0.1687144                   1
 d    1 1.00
                   0.8                   1

22 0
 s    3 1.00
             18.731137    0.03349459952309
             2.8253937    0.23472694665786
             0.6401217    0.81375731841339
 s    1 1.00
             0.1612778                   1

23 0
 s    3 1.00
             18.731137    0.03349459952309
             2.8253937    0.23472694665786
             0.6401217    0.81375731841339
 s    1 1.00
             0.1612778                   1

24 0
 s    3 1.00
             18.731137    0.03349459952309
             2.8253937    0.23472694665786
             0.6401217    0.81375731841339
 s    1 1.00
             0.1612778                   1

25 0
 s    3 1.00
             18.731137    0.03349459952309
             2.8253937    0.23472694665786
             0.6401217    0.81375731841339
 s    1 1.00
             0.1612778                   1

26 0
 s    3 1.00
             18.731137    0.03349459952309
             2.8253937    0.23472694665786
             0.6401217    0.81375731841339
 s    1 1.00
             0.1612778                   1

27 0
 s    3 1.00
             18.731137    0.03349459952309
             2.8253937    0.23472694665786
             0.6401217    0.81375731841339
 s    1 1.00
             0.1612778                   1

28 0
 s    3 1.00
             18.731137    0.03349459952309
             2.8253937    0.23472694665786
             0.6401217    0.81375731841339
 s    1 1.00
             0.1612778                   1

29 0
 s    3 1.00
             18.731137    0.03349459952309
             2.8253937    0.23472694665786
             0.6401217    0.81375731841339
 s    1 1.00
             0.1612778                   1

30 0
 s    3 1.00
             18.731137    0.03349459952309
             2.8253937    0.23472694665786
             0.6401217    0.81375731841339
 s    1 1.00
             0.1612778                   1

31 0
 s    3 1.00
             18.731137    0.03349459952309
             2.8253937    0.23472694665786
             0.6401217    0.81375731841339
 s    1 1.00
             0.1612778                   1

32 0
 s    3 1.00
             18.731137    0.03349459952309
             2.8253937    0.23472694665786
             0.6401217    0.81375731841339
 s    1 1.00
             0.1612778                   1

33 0
 s    6 1.00
             3047.5249  0.0018347001629433
             457.36951    0.01403730124668
             103.94869   0.068842606114048
             29.210155    0.23218442062076
              9.286663    0.46794134155879
              3.163927    0.36231203217765
 s    3 1.00
             7.8682724   -0.11933240861517
             1.8812885   -0.16085421161283
             0.5442493     1.1434564825515
 s    1 1.00
             0.1687144                   1
 p    3 1.00
             7.8682724   0.068999095584993
             1.8812885    0.31642397975315
             0.5442493    0.74430825237435
 p    1 1.00
             0.1687144                   1
 d    1 1.00
                   0.8                   1

34 0
 s    6 1.00
             3047.5249  0.0018347001629433
             457.36951    0.01403730124668
             103.94869   0.068842606114048
             29.210155    0.23218442062076
              9.286663    0.46794134155879
              3.163927    0.36231203217765
 s    3 1.00
             7.8682724   -0.11933240861517
             1.8812885   -0.16085421161283
             0.5442493     1.1434564825515
 s    1 1.00
             0.1687144                   1
 p    3 1.00
             7.8682724   0.068999095584993
             1.8812885    0.31642397975315
             0.5442493    0.74430825237435
 p    1 1.00
             0.1687144                   1
 d    1 1.00
                   0.8                   1

35 0
 s    3 1.00
             18.731137    0.03349459952309
             2.8253937    0.23472694665786
             0.6401217    0.81375731841339
 s    1 1.00
             0.1612778                   1

36 0
 s    6 1.00
             3047.5249  0.0018347001629433
             457.36951    0.01403730124668
             103.94869   0.068842606114048
             29.210155    0.23218442062076
              9.286663    0.46794134155879
              3.163927    0.36231203217765
 s    3 1.00
             7.8682724   -0.11933240861517
             1.8812885   -0.16085421161283
             0.5442493     1.1434564825515
 s    1 1.00
             0.1687144                   1
 p    3 1.00
             7.8682724   0.068999095584993
             1.8812885    0.31642397975315
             0.5442493    0.74430825237435
 p    1 1.00
             0.1687144                   1
 d    1 1.00
                   0.8                   1

37 0
 s    3 1.00
             18.731137    0.03349459952309
             2.8253937    0.23472694665786
             0.6401217    0.81375731841339
 s    1 1.00
             0.1612778                   1

38 0
 s    3 1.00
             18.731137    0.03349459952309
             2.8253937    0.23472694665786
             0.6401217    0.81375731841339
 s    1 1.00
             0.1612778                   1

39 0
 s    6 1.00
             3047.5249  0.0018347001629433
             457.36951    0.01403730124668
             103.94869   0.068842606114048
             29.210155    0.23218442062076
              9.286663    0.46794134155879
              3.163927    0.36231203217765
 s    3 1.00
             7.8682724   -0.11933240861517
             1.8812885   -0.16085421161283
             0.5442493     1.1434564825515
 s    1 1.00
             0.1687144                   1
 p    3 1.00
             7.8682724   0.068999095584993
             1.8812885    0.31642397975315
             0.5442493    0.74430825237435
 p    1 1.00
             0.1687144                   1
 d    1 1.00
                   0.8                   1

40 0
 s    6 1.00
             3047.5249  0.0018347001629433
             457.36951    0.01403730124668
             103.94869   0.068842606114048
             29.210155    0.23218442062076
              9.286663    0.46794134155879
              3.163927    0.36231203217765
 s    3 1.00
             7.8682724   -0.11933240861517
             1.8812885   -0.16085421161283
             0.5442493     1.1434564825515
 s    1 1.00
             0.1687144                   1
 p    3 1.00
             7.8682724   0.068999095584993
             1.8812885    0.31642397975315
             0.5442493    0.74430825237435
 p    1 1.00
             0.1687144                   1
 d    1 1.00
                   0.8                   1

41 0
 s    3 1.00
             18.731137    0.03349459952309
             2.8253937    0.23472694665786
             0.6401217    0.81375731841339
 s    1 1.00
             0.1612778                   1

42 0
 s    6 1.00
             5484.6717   0.001831099805527
             825.23495   0.013950098518422
             188.04696    0.06844509273075
               52.9645    0.23271427528445
              16.89757    0.47019295006289
             5.7996353    0.35852086192309
 s    3 1.00
             15.539616   -0.11077750382508
             3.5999336   -0.14802630511126
             1.0137618     1.1307670390447
 s    1 1.00
             0.2700058                   1
 p    3 1.00
             15.539616   0.070874299543311
             3.5999336    0.33975279781076
             1.0137618    0.72715859531445
 p    1 1.00
             0.2700058                   1
 d    1 1.00
                   0.8                   1

43 0
 s    3 1.00
             18.731137    0.03349459952309
             2.8253937    0.23472694665786
             0.6401217    0.81375731841339
 s    1 1.00
             0.1612778                   1

[5d]
[7f]
[9g]

[MO]
 Sym= A
 Ene=               0
 Spin= Alpha
 Occup=    1.00000
   1    -1.0541521143631e-05
   2    -8.6812027552998e-05
   3    0.0011350153673009
   4    -3.3022061718264e-05
   5    2.4942994481828e-05
   6    9.7049438143959e-06
   7    -4.7363148935257e-05
   8    1.4144448540032e-07
   9    -0.00092316513365025
  10    3.2621273659794e-05
  11    2.8216952917379e-05
  12    6.6230263693477e-06
  13    1.3052003408023e-06
  14    1.3671626039558e-06
  15    -2.6527237349433e-05
  16    -2.7024249096133e-05
  17     2.31752725308e-05
  18    8.6870152590304e-05
  19    -0.0022484234451351
  20    -3.8406792007628e-05
  21    -1.5369499752638e-05
  22    7.9947907700858e-05
  23    -0.0014402260375307
  24    -5.5261276803131e-05
  25    -0.00026102879418901
  26    -4.3466146641182e-05
  27    2.8707088902527e-05
  28    -7.3747018806255e-06
  29    -2.8385609194814e-05
  30    -2.8588073770094e-05
  31    -4.463954408805e-05
  32    -0.00029573258640766
  33    -7.8590076687588e-05
  34    -0.00039340665669675
  35    0.0055145530758523
  36    0.00015221143086771
  37    1.5952694449142e-05
  38    -8.3628632211222e-05
  39    0.0024737398700213
  40    -0.00098599404292711
  41    0.0011334839652917
  42    -2.5532048484214e-05
  43    -6.5575297865552e-05
  44    -3.8222835158639e-05
  45    0.00014374005972578
  46    -4.6881553564632e-05
  47    3.6404609463557e-05
  48    0.0004709105064738
  49    2.3610332027984e-05
  50    -0.00015813268543383
  51    -0.0043090912997168
  52    -0.00045496498654811
  53    5.8441157068947e-05
  54    0.00010566032924175
  55    0.0044193161097359
  56    -0.00085677396104502
  57    -0.00037560136254242
  58    0.00019025775603696
  59    -1.6230884163243e-05
  60    -0.00012897632595754
  61    -0.00011285260398459
  62    5.1338914523912e-05
  63    -0.00030866503904408
  64    -0.00021790898806025
  65    -2.6764524502054e-07
  66    1.1846288477536e-06
  67    -5.7759809208132e-08
  68    -5.5830716725619e-07
  69    -1.406910336128e-06
  70    4.9210468262223e-07
  71    -6.9742790788494e-07
  72    -5.5168017671311e-08
  73    2.0341946196937e-06
  74    1.6178733809776e-06
  75    -5.4597532403701e-07
  76    2.7808964377792e-07
  77    1.9474380380895e-07
  78    6.7506947660224e-08
  79    1.2731659604495e-07
  80    2.0222146188893e-07
  81    2.0621242025995e-07
  82    1.4781733285321e-06
  83    2.4522795043714e-07
  84    2.2336174649887e-06
  85    8.1104518367731e-06
  86    -4.5344527225376e-07
  87    7.8364297626906e-07
  88    -2.4450837620136e-07
  89    1.3163060795678e-06
  90    -7.8348253218001e-06
  91    -5.3937855116983e-06
  92    -1.6313490362468e-07
  93    -1.2062351925247e-07
  94    5.0522780262643e-07
  95    -4.1502858932135e-07
  96    1.4969438364862e-07
  97    9.2547416040804e-07
  98    1.859125714986e-06
  99    -9.8739709430648e-07
 100    -2.235059611827e-06
 101    -6.4866738393769e-07
 102    -3.0691956891089e-06
 103    7.0927888107388e-05
 104    -2.2593558531973e-06
 105    -1.0331501890517e-07
 106    -4.8748043777106e-07
 107    -1.287146431645e-05
 108    1.4600603543746e-05
 109    -4.54587697474e-05
 110    6.4582675395028e-07
 111    1.5155896228226e-06
 112    -6.4398809151288e-07
 113    6.107373648292e-08
 114    -7.8565291846748e-07
 115    3.8292303605395e-07
 116    3.350565608801e-06
 117    -2.4417174188762e-05
 118    3.0445035647141e-07
 119    1.0488199064309e-06
 120    -1.5503281077323e-06
 121    1.2422765391803e-05
 122    -1.5630570378091e-05
 123    1.7711970299734e-06
 124    6.8125260726538e-07
 125    4.6873532538123e-08
 126    -9.9735074125658e-07
 127    -5.8543791923429e-07
 128    3.1714621066354e-07
 129    1.147267959567e-06
 130    6.6085252669557e-06
 131    -5.0600150018731e-05
 132    3.8448287115713e-06
 133    -1.2677816604061e-06
 134    -2.6334198738098e-06
 135    -7.8083801489336e-05
 136    1.9832670454433e-05
 137    7.8690507872995e-05
 138    -2.5181141732862e-06
 139    -8.3567969720164e-07
 140    2.0934795268254e-06
 141    -3.2029650371022e-07
 142    2.2045641258518e-06
 143    7.5312421380455e-07
 144    4.7697491488478e-06
 145    -6.8689194695705e-05
 146    4.8590828667012e-07
 147    1.5817997224503e-07
 148    3.9960247509361e-06
 149    -3.4114185181626e-05
 150    2.8517697434392e-05
 151    -1.1572313290972e-05
 152    -1.0799013646125e-07
 153    2.7914134055477e-07
 154    -1.4417850003163e-06
 155    -7.4055439680351e-07
 156    3.6162892403912e-07
 157    5.0657418822577e-07
 158    4.2979591921905e-06
 159    -2.3161312279026e-05
 160    5.2777919765729e-07
 161     2.42998929891e-07
 162    -4.5561161238564e-07
 163    -2.2449780851395e-06
 164    9.1042985946603e-06
 165    2.9574494967255e-06
 166    2.770250023711e-07
 167    2.2695465318417e-07
 168    -5.1388150699653e-08
 169    6.658212491612e-07
 170    2.6942618981414e-09
 171    -2.8174962307375e-08
 172    -4.3194851664349e-07
 173    -2.9031842773753e-08
 174    -6.6305851531537e-07
 175    6.3078306930454e-08
 176    1.4538647540379e-06
 177    1.2312259303324e-05
 178    -1.5422875763666e-06
 179     2.32556575859e-06
 180    -1.4678444938103e-07
 181    1.184184763764e-06
 182    -2.2685985069078e-07
 183    9.5786201259564e-07
 184    8.0735761377949e-07
 185    -4.3814669632515e-07
 186    -2.8969820399318e-06
 187    2.9647900285769e-05
 188    -9.4560287605124e-07
 189    -3.1797786858821e-07
 190    -1.5820556524058e-06
 191    -3.4839590583353e-06
 192    -6.4303258563917e-06
 193    -1.1927210494217e-05
 194    6.5095964098673e-07
 195    8.204488187623e-07
 196    7.6780815718624e-07
 197    -5.7957161417498e-07
 198    4.9672730596346e-07
 199    -1.2421415883903e-06
 200    1.0948850987317e-06
 201    -5.1020110522993e-07
 202    -1.7183499031914e-06
 203    -6.7082315087611e-07
 204    -5.9055042347952e-06
 205    2.5531016278237e-06
 206    1.0755042464612e-07
 207    2.7641506378956e-06
 208    4.6008140681017e-08
 209    1.3103272981326e-06
 210    4.4184338084645e-06
 211    9.1760839429851e-07
 212    1.2091023624643e-06
 213    7.4614613324661e-07
 214    -2.4576167019602e-06
 215    -2.6831880944834e-06
 216    1.3698996653079e-05
 217    9.3428064779616e-07
 218    2.498669567298e-06
 219    -7.063519185145e-08
 220    -3.5963517802569e-06
 221    -3.7171644395899e-06
 222    -2.2958780970574e-05
 223    0.00034773132301371
 224    1.4352873202734e-06
 225    5.6591227872318e-06
 226    -6.0956290674255e-06
 227    0.00010670532831467
 228    3.2689717161955e-05
 229    -0.00012185974880101
 230    6.7438156348206e-06
 231    -4.2721067815637e-06
 232    -5.5008782729191e-06
 233    2.2670008795899e-06
 234    1.9488388121351e-06
 235    3.8658519316398e-06
 236    1.9893332681554e-05
 237    -0.00050810148069871
 238    -5.9365209289702e-06
 239    -8.6227205793787e-06
 240    1.6416406815365e-05
 241    0.00020532420694075
 242    6.0083963396169e-05
 243    -5.2631583461002e-05
 244    -8.6839318331447e-06
 245    4.278237132158e-06
 246    6.9026061653229e-06
 247    -1.1868990371194e-06
 248    4.2296684802186e-07
 249    3.1980311601195e-08
 250    -8.0724999955495e-06
 251    -7.1591973398807e-07
 252    -2.0328931797563e-06
 253    0.00031638470042428
 254    -6.6588362663535e-06
 255    -4.1698062481737e-06
 256    -2.1905270351138e-05
 257    0.00021013590321604
 258    6.144325602367e-05
 259    0.00027050909378053
 260    1.2540166626839e-06
 261    5.7947972440367e-06
 262    -4.6891747217163e-06
 263    -3.6380647578161e-06
 264    7.4325954437223e-06
 265    -1.5805744471129e-05
 266    -7.0765197875456e-06
 267    2.0448070148691e-05
 268    7.1922747732989e-05
 269    7.3421452102465e-05
 270    0.0001026354967753
 271    -0.0033942971247888
 272    -9.4956605245349e-05
 273    9.8732753239412e-05
 274    -0.00017501523044208
 275    -0.0027983813025392
 276    -0.00089589007517172
 277     0.003072710381123
 278    9.5003326771493e-05
 279    0.00034875309797437
 280    -9.6377118882395e-05