[Molden Format]
made by pyscf v[2.0.1]
[Atoms] (AU)
C   1   6     0.69100024066471     0.64692934207205    -3.48223131169301
H   2   1     2.68052439830868     1.13355088658700    -3.25784032593313
C   3   6    -0.36286361513219     0.85440132524594    -5.97030179418974
H   4   1    -2.35448549047279     0.36322488579172    -6.17995817793143
C   5   6     0.93697958957450     1.61209284601821    -8.05828437677121
H   6   1     0.01358296644616     2.85086245433209    -9.41980240085128
C   7   6     3.49095983212942     0.86501358647737    -8.58301400036413
H   8   1     4.39173101664678    -0.37544723242066    -7.20113468241566
H   9   1     1.55630230933075    -1.92953025305990    12.99630010416247
C   10   6     0.75233899775814    -2.21270439606481    11.10705728102219
H   11   1    -0.43433408177274    -3.90944857546550    11.22216085340412
C   12   6     2.86362581178706    -2.63237380607947     9.17926416456045
H   13   1     4.39038949912609    -1.24955421540245     9.49899813497433
H   14   1     3.74629220191363    -4.48798724300892     9.47414880959024
C   15   6     2.02478325613682    -2.42177285709634     6.44560829588644
C   16   6     3.88048732735477    -3.58795445234514     4.61402886975252
C   17   6    -0.18412382258602    -1.30464291234259     5.76021113872346
C   18   6    -2.10044360464350    -0.26837831858460     7.71610340967100
C   19   6    -3.08956938670431     2.35282328359417     6.88693925039594
C   20   6    -4.37372924086464    -2.09766595989678     7.93610724222001
C   21   6    -0.83850430601230     0.06372213486173    10.33002307638377
H   22   1     0.38411922151109     1.74281358582432    10.27380136542181
H   23   1    -2.30980003007874     0.45460143924521    11.73986301809809
H   24   1     4.58527064644668    -5.38706904487420     5.36778158031719
H   25   1     5.54944938085014    -2.37631462192748     4.35398898413318
H   26   1     3.06633019150423    -3.94118377050688     2.75255466040884
H   27   1    -4.17727778763735     2.26573369139522     5.12914900961283
H   28   1    -1.52662344944051     3.68001877445626     6.59540397144508
H   29   1    -4.32916174397830     3.13643051467482     8.35225460090378
H   30   1    -5.32329548508442    -2.36691813602939     6.11583672749896
H   31   1    -5.77989366602257    -1.33896741843465     9.25748940450990
H   32   1    -3.79310905208926    -3.96389819310853     8.61386170102686
C   33   6    -1.01100794811226    -1.06331657314144     3.11929490449947
C   34   6     0.37686231036534    -0.33275864505552     1.09165013605873
H   35   1    -3.01671213906703    -1.40297922279997     2.77827895090944
C   36   6    -0.64382707979370    -0.11591880174385    -1.42063131251064
H   37   1     2.35569259782137     0.17174499283897     1.33641070251401
H   38   1    -2.63317482980319    -0.60229203511219    -1.66119700387645
C   39   6     4.85727779250226     1.56932506344372   -10.63578143211247
C   40   6     7.45078580641309     0.70440198785573   -10.99998857146552
H   41   1     4.07326566832422     2.80126406203857   -12.08333786763668
O   42   8     8.78463246786107     1.26137953491899   -12.79761289932761
H   43   1     8.17650804893433    -0.55247504818230    -9.47232163774676
[GTO]
1 0
 s    6 1.00
             3047.5249  0.0018347001629433
             457.36951    0.01403730124668
             103.94869   0.068842606114048
             29.210155    0.23218442062076
              9.286663    0.46794134155879
              3.163927    0.36231203217765
 s    3 1.00
             7.8682724   -0.11933240861517
             1.8812885   -0.16085421161283
             0.5442493     1.1434564825515
 s    1 1.00
             0.1687144                   1
 p    3 1.00
             7.8682724   0.068999095584993
             1.8812885    0.31642397975315
             0.5442493    0.74430825237435
 p    1 1.00
             0.1687144                   1
 d    1 1.00
                   0.8                   1

2 0
 s    3 1.00
             18.731137    0.03349459952309
             2.8253937    0.23472694665786
             0.6401217    0.81375731841339
 s    1 1.00
             0.1612778                   1

3 0
 s    6 1.00
             3047.5249  0.0018347001629433
             457.36951    0.01403730124668
             103.94869   0.068842606114048
             29.210155    0.23218442062076
              9.286663    0.46794134155879
              3.163927    0.36231203217765
 s    3 1.00
             7.8682724   -0.11933240861517
             1.8812885   -0.16085421161283
             0.5442493     1.1434564825515
 s    1 1.00
             0.1687144                   1
 p    3 1.00
             7.8682724   0.068999095584993
             1.8812885    0.31642397975315
             0.5442493    0.74430825237435
 p    1 1.00
             0.1687144                   1
 d    1 1.00
                   0.8                   1

4 0
 s    3 1.00
             18.731137    0.03349459952309
             2.8253937    0.23472694665786
             0.6401217    0.81375731841339
 s    1 1.00
             0.1612778                   1

5 0
 s    6 1.00
             3047.5249  0.0018347001629433
             457.36951    0.01403730124668
             103.94869   0.068842606114048
             29.210155    0.23218442062076
              9.286663    0.46794134155879
              3.163927    0.36231203217765
 s    3 1.00
             7.8682724   -0.11933240861517
             1.8812885   -0.16085421161283
             0.5442493     1.1434564825515
 s    1 1.00
             0.1687144                   1
 p    3 1.00
             7.8682724   0.068999095584993
             1.8812885    0.31642397975315
             0.5442493    0.74430825237435
 p    1 1.00
             0.1687144                   1
 d    1 1.00
                   0.8                   1

6 0
 s    3 1.00
             18.731137    0.03349459952309
             2.8253937    0.23472694665786
             0.6401217    0.81375731841339
 s    1 1.00
             0.1612778                   1

7 0
 s    6 1.00
             3047.5249  0.0018347001629433
             457.36951    0.01403730124668
             103.94869   0.068842606114048
             29.210155    0.23218442062076
              9.286663    0.46794134155879
              3.163927    0.36231203217765
 s    3 1.00
             7.8682724   -0.11933240861517
             1.8812885   -0.16085421161283
             0.5442493     1.1434564825515
 s    1 1.00
             0.1687144                   1
 p    3 1.00
             7.8682724   0.068999095584993
             1.8812885    0.31642397975315
             0.5442493    0.74430825237435
 p    1 1.00
             0.1687144                   1
 d    1 1.00
                   0.8                   1

8 0
 s    3 1.00
             18.731137    0.03349459952309
             2.8253937    0.23472694665786
             0.6401217    0.81375731841339
 s    1 1.00
             0.1612778                   1

9 0
 s    3 1.00
             18.731137    0.03349459952309
             2.8253937    0.23472694665786
             0.6401217    0.81375731841339
 s    1 1.00
             0.1612778                   1

10 0
 s    6 1.00
             3047.5249  0.0018347001629433
             457.36951    0.01403730124668
             103.94869   0.068842606114048
             29.210155    0.23218442062076
              9.286663    0.46794134155879
              3.163927    0.36231203217765
 s    3 1.00
             7.8682724   -0.11933240861517
             1.8812885   -0.16085421161283
             0.5442493     1.1434564825515
 s    1 1.00
             0.1687144                   1
 p    3 1.00
             7.8682724   0.068999095584993
             1.8812885    0.31642397975315
             0.5442493    0.74430825237435
 p    1 1.00
             0.1687144                   1
 d    1 1.00
                   0.8                   1

11 0
 s    3 1.00
             18.731137    0.03349459952309
             2.8253937    0.23472694665786
             0.6401217    0.81375731841339
 s    1 1.00
             0.1612778                   1

12 0
 s    6 1.00
             3047.5249  0.0018347001629433
             457.36951    0.01403730124668
             103.94869   0.068842606114048
             29.210155    0.23218442062076
              9.286663    0.46794134155879
              3.163927    0.36231203217765
 s    3 1.00
             7.8682724   -0.11933240861517
             1.8812885   -0.16085421161283
             0.5442493     1.1434564825515
 s    1 1.00
             0.1687144                   1
 p    3 1.00
             7.8682724   0.068999095584993
             1.8812885    0.31642397975315
             0.5442493    0.74430825237435
 p    1 1.00
             0.1687144                   1
 d    1 1.00
                   0.8                   1

13 0
 s    3 1.00
             18.731137    0.03349459952309
             2.8253937    0.23472694665786
             0.6401217    0.81375731841339
 s    1 1.00
             0.1612778                   1

14 0
 s    3 1.00
             18.731137    0.03349459952309
             2.8253937    0.23472694665786
             0.6401217    0.81375731841339
 s    1 1.00
             0.1612778                   1

15 0
 s    6 1.00
             3047.5249  0.0018347001629433
             457.36951    0.01403730124668
             103.94869   0.068842606114048
             29.210155    0.23218442062076
              9.286663    0.46794134155879
              3.163927    0.36231203217765
 s    3 1.00
             7.8682724   -0.11933240861517
             1.8812885   -0.16085421161283
             0.5442493     1.1434564825515
 s    1 1.00
             0.1687144                   1
 p    3 1.00
             7.8682724   0.068999095584993
             1.8812885    0.31642397975315
             0.5442493    0.74430825237435
 p    1 1.00
             0.1687144                   1
 d    1 1.00
                   0.8                   1

16 0
 s    6 1.00
             3047.5249  0.0018347001629433
             457.36951    0.01403730124668
             103.94869   0.068842606114048
             29.210155    0.23218442062076
              9.286663    0.46794134155879
              3.163927    0.36231203217765
 s    3 1.00
             7.8682724   -0.11933240861517
             1.8812885   -0.16085421161283
             0.5442493     1.1434564825515
 s    1 1.00
             0.1687144                   1
 p    3 1.00
             7.8682724   0.068999095584993
             1.8812885    0.31642397975315
             0.5442493    0.74430825237435
 p    1 1.00
             0.1687144                   1
 d    1 1.00
                   0.8                   1

17 0
 s    6 1.00
             3047.5249  0.0018347001629433
             457.36951    0.01403730124668
             103.94869   0.068842606114048
             29.210155    0.23218442062076
              9.286663    0.46794134155879
              3.163927    0.36231203217765
 s    3 1.00
             7.8682724   -0.11933240861517
             1.8812885   -0.16085421161283
             0.5442493     1.1434564825515
 s    1 1.00
             0.1687144                   1
 p    3 1.00
             7.8682724   0.068999095584993
             1.8812885    0.31642397975315
             0.5442493    0.74430825237435
 p    1 1.00
             0.1687144                   1
 d    1 1.00
                   0.8                   1

18 0
 s    6 1.00
             3047.5249  0.0018347001629433
             457.36951    0.01403730124668
             103.94869   0.068842606114048
             29.210155    0.23218442062076
              9.286663    0.46794134155879
              3.163927    0.36231203217765
 s    3 1.00
             7.8682724   -0.11933240861517
             1.8812885   -0.16085421161283
             0.5442493     1.1434564825515
 s    1 1.00
             0.1687144                   1
 p    3 1.00
             7.8682724   0.068999095584993
             1.8812885    0.31642397975315
             0.5442493    0.74430825237435
 p    1 1.00
             0.1687144                   1
 d    1 1.00
                   0.8                   1

19 0
 s    6 1.00
             3047.5249  0.0018347001629433
             457.36951    0.01403730124668
             103.94869   0.068842606114048
             29.210155    0.23218442062076
              9.286663    0.46794134155879
              3.163927    0.36231203217765
 s    3 1.00
             7.8682724   -0.11933240861517
             1.8812885   -0.16085421161283
             0.5442493     1.1434564825515
 s    1 1.00
             0.1687144                   1
 p    3 1.00
             7.8682724   0.068999095584993
             1.8812885    0.31642397975315
             0.5442493    0.74430825237435
 p    1 1.00
             0.1687144                   1
 d    1 1.00
                   0.8                   1

20 0
 s    6 1.00
             3047.5249  0.0018347001629433
             457.36951    0.01403730124668
             103.94869   0.068842606114048
             29.210155    0.23218442062076
              9.286663    0.46794134155879
              3.163927    0.36231203217765
 s    3 1.00
             7.8682724   -0.11933240861517
             1.8812885   -0.16085421161283
             0.5442493     1.1434564825515
 s    1 1.00
             0.1687144                   1
 p    3 1.00
             7.8682724   0.068999095584993
             1.8812885    0.31642397975315
             0.5442493    0.74430825237435
 p    1 1.00
             0.1687144                   1
 d    1 1.00
                   0.8                   1

21 0
 s    6 1.00
             3047.5249  0.0018347001629433
             457.36951    0.01403730124668
             103.94869   0.068842606114048
             29.210155    0.23218442062076
              9.286663    0.46794134155879
              3.163927    0.36231203217765
 s    3 1.00
             7.8682724   -0.11933240861517
             1.8812885   -0.16085421161283
             0.5442493     1.1434564825515
 s    1 1.00
             0.1687144                   1
 p    3 1.00
             7.8682724   0.068999095584993
             1.8812885    0.31642397975315
             0.5442493    0.74430825237435
 p    1 1.00
             0.1687144                   1
 d    1 1.00
                   0.8                   1

22 0
 s    3 1.00
             18.731137    0.03349459952309
             2.8253937    0.23472694665786
             0.6401217    0.81375731841339
 s    1 1.00
             0.1612778                   1

23 0
 s    3 1.00
             18.731137    0.03349459952309
             2.8253937    0.23472694665786
             0.6401217    0.81375731841339
 s    1 1.00
             0.1612778                   1

24 0
 s    3 1.00
             18.731137    0.03349459952309
             2.8253937    0.23472694665786
             0.6401217    0.81375731841339
 s    1 1.00
             0.1612778                   1

25 0
 s    3 1.00
             18.731137    0.03349459952309
             2.8253937    0.23472694665786
             0.6401217    0.81375731841339
 s    1 1.00
             0.1612778                   1

26 0
 s    3 1.00
             18.731137    0.03349459952309
             2.8253937    0.23472694665786
             0.6401217    0.81375731841339
 s    1 1.00
             0.1612778                   1

27 0
 s    3 1.00
             18.731137    0.03349459952309
             2.8253937    0.23472694665786
             0.6401217    0.81375731841339
 s    1 1.00
             0.1612778                   1

28 0
 s    3 1.00
             18.731137    0.03349459952309
             2.8253937    0.23472694665786
             0.6401217    0.81375731841339
 s    1 1.00
             0.1612778                   1

29 0
 s    3 1.00
             18.731137    0.03349459952309
             2.8253937    0.23472694665786
             0.6401217    0.81375731841339
 s    1 1.00
             0.1612778                   1

30 0
 s    3 1.00
             18.731137    0.03349459952309
             2.8253937    0.23472694665786
             0.6401217    0.81375731841339
 s    1 1.00
             0.1612778                   1

31 0
 s    3 1.00
             18.731137    0.03349459952309
             2.8253937    0.23472694665786
             0.6401217    0.81375731841339
 s    1 1.00
             0.1612778                   1

32 0
 s    3 1.00
             18.731137    0.03349459952309
             2.8253937    0.23472694665786
             0.6401217    0.81375731841339
 s    1 1.00
             0.1612778                   1

33 0
 s    6 1.00
             3047.5249  0.0018347001629433
             457.36951    0.01403730124668
             103.94869   0.068842606114048
             29.210155    0.23218442062076
              9.286663    0.46794134155879
              3.163927    0.36231203217765
 s    3 1.00
             7.8682724   -0.11933240861517
             1.8812885   -0.16085421161283
             0.5442493     1.1434564825515
 s    1 1.00
             0.1687144                   1
 p    3 1.00
             7.8682724   0.068999095584993
             1.8812885    0.31642397975315
             0.5442493    0.74430825237435
 p    1 1.00
             0.1687144                   1
 d    1 1.00
                   0.8                   1

34 0
 s    6 1.00
             3047.5249  0.0018347001629433
             457.36951    0.01403730124668
             103.94869   0.068842606114048
             29.210155    0.23218442062076
              9.286663    0.46794134155879
              3.163927    0.36231203217765
 s    3 1.00
             7.8682724   -0.11933240861517
             1.8812885   -0.16085421161283
             0.5442493     1.1434564825515
 s    1 1.00
             0.1687144                   1
 p    3 1.00
             7.8682724   0.068999095584993
             1.8812885    0.31642397975315
             0.5442493    0.74430825237435
 p    1 1.00
             0.1687144                   1
 d    1 1.00
                   0.8                   1

35 0
 s    3 1.00
             18.731137    0.03349459952309
             2.8253937    0.23472694665786
             0.6401217    0.81375731841339
 s    1 1.00
             0.1612778                   1

36 0
 s    6 1.00
             3047.5249  0.0018347001629433
             457.36951    0.01403730124668
             103.94869   0.068842606114048
             29.210155    0.23218442062076
              9.286663    0.46794134155879
              3.163927    0.36231203217765
 s    3 1.00
             7.8682724   -0.11933240861517
             1.8812885   -0.16085421161283
             0.5442493     1.1434564825515
 s    1 1.00
             0.1687144                   1
 p    3 1.00
             7.8682724   0.068999095584993
             1.8812885    0.31642397975315
             0.5442493    0.74430825237435
 p    1 1.00
             0.1687144                   1
 d    1 1.00
                   0.8                   1

37 0
 s    3 1.00
             18.731137    0.03349459952309
             2.8253937    0.23472694665786
             0.6401217    0.81375731841339
 s    1 1.00
             0.1612778                   1

38 0
 s    3 1.00
             18.731137    0.03349459952309
             2.8253937    0.23472694665786
             0.6401217    0.81375731841339
 s    1 1.00
             0.1612778                   1

39 0
 s    6 1.00
             3047.5249  0.0018347001629433
             457.36951    0.01403730124668
             103.94869   0.068842606114048
             29.210155    0.23218442062076
              9.286663    0.46794134155879
              3.163927    0.36231203217765
 s    3 1.00
             7.8682724   -0.11933240861517
             1.8812885   -0.16085421161283
             0.5442493     1.1434564825515
 s    1 1.00
             0.1687144                   1
 p    3 1.00
             7.8682724   0.068999095584993
             1.8812885    0.31642397975315
             0.5442493    0.74430825237435
 p    1 1.00
             0.1687144                   1
 d    1 1.00
                   0.8                   1

40 0
 s    6 1.00
             3047.5249  0.0018347001629433
             457.36951    0.01403730124668
             103.94869   0.068842606114048
             29.210155    0.23218442062076
              9.286663    0.46794134155879
              3.163927    0.36231203217765
 s    3 1.00
             7.8682724   -0.11933240861517
             1.8812885   -0.16085421161283
             0.5442493     1.1434564825515
 s    1 1.00
             0.1687144                   1
 p    3 1.00
             7.8682724   0.068999095584993
             1.8812885    0.31642397975315
             0.5442493    0.74430825237435
 p    1 1.00
             0.1687144                   1
 d    1 1.00
                   0.8                   1

41 0
 s    3 1.00
             18.731137    0.03349459952309
             2.8253937    0.23472694665786
             0.6401217    0.81375731841339
 s    1 1.00
             0.1612778                   1

42 0
 s    6 1.00
             5484.6717   0.001831099805527
             825.23495   0.013950098518422
             188.04696    0.06844509273075
               52.9645    0.23271427528445
              16.89757    0.47019295006289
             5.7996353    0.35852086192309
 s    3 1.00
             15.539616   -0.11077750382508
             3.5999336   -0.14802630511126
             1.0137618     1.1307670390447
 s    1 1.00
             0.2700058                   1
 p    3 1.00
             15.539616   0.070874299543311
             3.5999336    0.33975279781076
             1.0137618    0.72715859531445
 p    1 1.00
             0.2700058                   1
 d    1 1.00
                   0.8                   1

43 0
 s    3 1.00
             18.731137    0.03349459952309
             2.8253937    0.23472694665786
             0.6401217    0.81375731841339
 s    1 1.00
             0.1612778                   1

[5d]
[7f]
[9g]

[MO]
 Sym= A
 Ene=               0
 Spin= Alpha
 Occup=    1.00000
   1    -7.6387585227336e-06
   2    -6.5771085396772e-05
   3    0.00088659335236165
   4    -2.5001528025602e-05
   5    2.8928756047105e-05
   6    5.9616797824185e-06
   7    -6.2045116985127e-05
   8    -8.0145270051517e-05
   9    -0.00054884922415965
  10    2.3986412248732e-05
  11    1.7535667646215e-05
  12    6.8872033041054e-06
  13    -2.4212057240553e-06
  14    3.517782328735e-06
  15    -1.3773708592204e-05
  16    -2.8331522344264e-05
  17    1.5631454112244e-05
  18    2.1984837955717e-05
  19    -0.0017252183222463
  20    -4.7175027295666e-05
  21    -1.3087527177985e-05
  22    7.6206170897461e-05
  23    -0.0010925806612706
  24    3.3185742146806e-05
  25    -6.221087301466e-05
  26    -3.7769596893222e-05
  27    2.8422892103669e-05
  28    -1.4757695575005e-05
  29    -2.8614854494792e-05
  30    -2.7577058947634e-05
  31    -2.5307500810819e-05
  32    -0.00021006288334848
  33    -7.4310893371953e-05
  34    -0.00036634079901007
  35    0.0051255719168217
  36    0.00015654609574379
  37    1.3916899111789e-06
  38    -9.3829673118693e-05
  39    0.0021457215655221
  40    -0.0012635282076028
  41    0.00076969919196146
  42    -2.6226904407605e-05
  43    -8.0444909976602e-05
  44    -2.7331735335105e-05
  45    0.0001157086968075
  46    -7.5388968915622e-05
  47    2.4676236274128e-05
  48    0.00039750989856054
  49    2.1987139236327e-05
  50    -0.00016829790188391
  51    -0.0041334159849673
  52    -0.0004369200561005
  53    0.00010828933652472
  54    0.0001315835584447
  55     0.004014697055339
  56    -0.0013754155004034
  57    -0.00059955474445706
  58    0.0001653241025966
  59    -9.677962079611e-06
  60    -0.00014592123751459
  61    -0.00010185546373502
  62    7.1218887329868e-05
  63    -0.00031843519654109
  64    -0.00017686987242725
  65     -1.6137889713e-07
  66    9.2214706875733e-07
  67    -2.4692588476567e-08
  68    -2.3009989408973e-07
  69    -1.7024673434867e-06
  70    2.9448929709144e-07
  71    -4.090383917346e-07
  72    -1.1491114925738e-07
  73    1.4004718083923e-06
  74    8.0673149297486e-07
  75    -2.5209467617666e-07
  76    2.2139455998658e-07
  77    1.7946204808114e-07
  78     4.27180823365e-08
  79    8.4072169493157e-08
  80    1.8738062722767e-07
  81    1.1900807717212e-07
  82    1.082135915067e-06
  83    1.8873559440581e-07
  84    1.7846889431689e-06
  85    1.1067428246596e-05
  86    -5.7519341148599e-07
  87    6.3313162483131e-07
  88    -4.4935133616518e-07
  89    6.3281918577065e-08
  90    -4.6214682615186e-06
  91    -5.4532201985784e-06
  92    -1.7519265493742e-07
  93    -4.5589337630712e-09
  94    2.6330607763205e-07
  95    -3.3872749057166e-07
  96    1.7652787211169e-07
  97    5.1829297937404e-07
  98    1.3376064992924e-06
  99    -8.0489140517408e-07
 100    -1.5081079105827e-06
 101    -5.2163160717176e-07
 102    -2.2736591579233e-06
 103    5.2158683065942e-05
 104    -2.0169779138793e-06
 105    4.5676763634307e-08
 106    -9.4836985685431e-08
 107    -4.3896919068331e-06
 108    4.8636647131363e-06
 109    -4.6257218071537e-05
 110    6.5372282893751e-07
 111    1.3323635382964e-06
 112    -5.6065985708685e-07
 113    7.4801485438562e-08
 114    -4.2081825471768e-07
 115    4.1891114568049e-07
 116    3.6652136161812e-06
 117    -2.9305446578782e-05
 118    4.4133568171313e-07
 119    5.2529095982693e-07
 120    -1.4247492335488e-06
 121    1.2666677781349e-05
 122    -1.2783962719196e-05
 123    -5.5312687487813e-07
 124    5.6202126730099e-07
 125    1.6606116623657e-07
 126    -7.5435417897985e-07
 127    -5.3827133147637e-07
 128    3.9914324990693e-07
 129    1.1653361031979e-06
 130    7.4977117165504e-06
 131    -5.9859664449551e-05
 132    2.8770280519252e-06
 133    -1.1291858082114e-06
 134    -2.8429513668836e-06
 135    -5.2184501307252e-05
 136    1.7978104595585e-05
 137    8.9209456895102e-05
 138    -2.7304700932573e-06
 139    -1.2366693727641e-06
 140    1.4570280165421e-06
 141    -3.9554312567411e-07
 142    1.6634568362219e-06
 143    8.0127742871093e-07
 144    5.476759471895e-06
 145    -6.2036598648237e-05
 146    3.0665979680974e-07
 147    1.6742459508736e-07
 148    2.8598200688681e-06
 149    -3.1233619143866e-05
 150    2.1475437223774e-05
 151    -5.751386897884e-06
 152    1.8116067574953e-07
 153    3.6904648424884e-07
 154    -9.930466514103e-07
 155    -7.7411726090619e-07
 156    6.1672406829131e-07
 157    3.3582130838676e-07
 158    2.7175861779088e-06
 159    -1.5599484744387e-05
 160    2.161622727879e-07
 161    1.5184774642469e-07
 162    -1.4844366636211e-07
 163    1.0829005125326e-06
 164    5.9250669525784e-06
 165    1.8322806084074e-06
 166    -1.2006011255674e-08
 167    3.1353264058474e-07
 168    -6.1722277607661e-08
 169    5.1216994514941e-07
 170    -1.5186644518733e-07
 171    -3.0503129534084e-08
 172    -1.5800770794696e-07
 173    -1.6443727935892e-07
 174    -2.8742667235767e-07
 175    1.4418619051721e-07
 176    8.4548620874212e-07
 177    8.8401962739643e-06
 178    -2.0689521221916e-06
 179    1.8063082360382e-06
 180    -1.2392977028812e-07
 181    8.0601928788362e-07
 182    -2.1963421002786e-07
 183    8.1242751699957e-07
 184    5.1602597770845e-07
 185    -2.4002029659735e-07
 186    -1.1903979650808e-06
 187    2.1836975699209e-05
 188    -6.5587199673924e-07
 189    -2.7964612932491e-07
 190    -1.6217593082749e-06
 191    -3.1372975944968e-06
 192    -4.5908547985199e-06
 193    -7.5927065176401e-06
 194    4.4728636711835e-07
 195    6.2096264696886e-07
 196    4.3530899394579e-07
 197    -4.820817421851e-07
 198    4.0172169237276e-07
 199    -7.2628901760521e-07
 200    1.0114443183748e-06
 201    -3.9757943165997e-07
 202    -2.34872859447e-06
 203    -9.5863374599364e-08
 204    -4.1988407910797e-06
 205    2.0205415351857e-06
 206    6.931173518782e-07
 207    2.0989932335982e-06
 208    1.3654256185446e-06
 209    4.8421065086068e-07
 210    4.7872728212955e-06
 211    4.000805557184e-07
 212    -1.1749370879851e-07
 213    6.6997873012399e-07
 214    -9.9803658605644e-07
 215    -1.7852098985002e-06
 216    9.3403887421861e-06
 217    6.1738572118686e-07
 218    1.6403571726222e-06
 219    -1.8018020823629e-07
 220    -2.9407728515056e-06
 221    -2.5333391184945e-06
 222    -1.4621644647279e-05
 223    0.0002640479694691
 224    2.2685552795603e-07
 225    5.6385242197841e-06
 226    -5.7906787648634e-06
 227    8.2071794460054e-05
 228    1.4675545801989e-05
 229    -5.2792013241348e-05
 230    5.2750408186708e-06
 231    -1.6362164858837e-06
 232    -3.5271115880089e-06
 233    1.0827543430419e-06
 234    6.4580734096703e-07
 235    2.8836677466567e-06
 236    1.6275007103811e-05
 237    -0.00036220432537636
 238    -4.0200325947149e-06
 239    -7.8488597120734e-06
 240    1.0317490553619e-05
 241    0.00015462436351021
 242    4.4406076178283e-05
 243    -2.7416567585461e-05
 244    -5.8096913586947e-06
 245    1.3235921844938e-06
 246    5.1718534223569e-06
 247    -1.7471295315784e-06
 248    5.5159723687942e-07
 249    2.1026649516364e-06
 250    -6.7320855560588e-06
 251    1.0628340789398e-06
 252    1.0715716046912e-05
 253    9.9267481340829e-05
 254    -3.9576865314254e-06
 255    -3.5567228194316e-06
 256    -1.7841281781962e-05
 257    9.5792108309393e-05
 258    2.5749029744738e-05
 259    0.0002788133967301
 260    -1.0328483829697e-06
 261    8.6019546885455e-06
 262    -2.6916730100761e-06
 263    -6.2470793808722e-06
 264    5.4811971394693e-06
 265    -1.1130209697066e-05
 266    -1.1909152653595e-05
 267    1.693526886839e-05
 268    3.8435967643441e-05
 269    7.2567925035248e-05
 270    9.6481180692542e-05
 271    -0.0032876804177331
 272    -9.2744189257539e-05
 273    0.00012745391530396
 274    -0.00016069915574902
 275    -0.0027094005343407
 276    -0.00083571511338239
 277    0.0031873486769236
 278    4.6816371942101e-05
 279    0.00033913106046764
 280    -0.0001361838495096