[Molden Format]
made by pyscf v[2.0.1]
[Atoms] (AU)
C   1   6     0.69100024066471     0.64692934207205    -3.48223131169301
H   2   1     2.68052439830868     1.13355088658700    -3.25784032593313
C   3   6    -0.36286361513219     0.85440132524594    -5.97030179418974
H   4   1    -2.35448549047279     0.36322488579172    -6.17995817793143
C   5   6     0.93697958957450     1.61209284601821    -8.05828437677121
H   6   1     0.93570604399073     3.60645829547735    -8.57155587183010
C   7   6     2.33064164489587    -0.08500019610028    -9.65009622470686
H   8   1     2.31545752956704    -2.07726916449957    -9.11124928966168
H   9   1     1.55630230933075    -1.92953025305990    12.99630010416247
C   10   6     0.75233899775814    -2.21270439606481    11.10705728102219
H   11   1    -0.43433408177274    -3.90944857546550    11.22216085340412
C   12   6     2.86362581178706    -2.63237380607947     9.17926416456045
H   13   1     4.39038949912609    -1.24955421540245     9.49899813497433
H   14   1     3.74629220191363    -4.48798724300892     9.47414880959024
C   15   6     2.02478325613682    -2.42177285709634     6.44560829588644
C   16   6     3.88048732735477    -3.58795445234514     4.61402886975252
C   17   6    -0.18412382258602    -1.30464291234259     5.76021113872346
C   18   6    -2.10044360464350    -0.26837831858460     7.71610340967100
C   19   6    -3.08956938670431     2.35282328359417     6.88693925039594
C   20   6    -4.37372924086464    -2.09766595989678     7.93610724222001
C   21   6    -0.83850430601230     0.06372213486173    10.33002307638377
H   22   1     0.38411922151109     1.74281358582432    10.27380136542181
H   23   1    -2.30980003007874     0.45460143924521    11.73986301809809
H   24   1     4.58527064644668    -5.38706904487420     5.36778158031719
H   25   1     5.54944938085014    -2.37631462192748     4.35398898413318
H   26   1     3.06633019150423    -3.94118377050688     2.75255466040884
H   27   1    -4.17727778763735     2.26573369139522     5.12914900961283
H   28   1    -1.52662344944051     3.68001877445626     6.59540397144508
H   29   1    -4.32916174397830     3.13643051467482     8.35225460090378
H   30   1    -5.32329548508442    -2.36691813602939     6.11583672749896
H   31   1    -5.77989366602257    -1.33896741843465     9.25748940450990
H   32   1    -3.79310905208926    -3.96389819310853     8.61386170102686
C   33   6    -1.01100794811226    -1.06331657314144     3.11929490449947
C   34   6     0.37686231036534    -0.33275864505552     1.09165013605873
H   35   1    -3.01671213906703    -1.40297922279997     2.77827895090944
C   36   6    -0.64382707979370    -0.11591880174385    -1.42063131251064
H   37   1     2.35569259782137     0.17174499283897     1.33641070251401
H   38   1    -2.63317482980319    -0.60229203511219    -1.66119700387645
C   39   6     3.64869579482306     0.58263290243353   -11.74621951745329
C   40   6     5.00865186237336    -1.29151691020822   -13.24458681490645
H   41   1     3.74083961582251     2.53414495508714   -12.38721761884598
O   42   8     6.22738846457655    -0.82464446464225   -15.14656876600025
H   43   1     4.86298794977594    -3.26455446446118   -12.51927050350916
[GTO]
1 0
 s    6 1.00
             3047.5249  0.0018347001629433
             457.36951    0.01403730124668
             103.94869   0.068842606114048
             29.210155    0.23218442062076
              9.286663    0.46794134155879
              3.163927    0.36231203217765
 s    3 1.00
             7.8682724   -0.11933240861517
             1.8812885   -0.16085421161283
             0.5442493     1.1434564825515
 s    1 1.00
             0.1687144                   1
 p    3 1.00
             7.8682724   0.068999095584993
             1.8812885    0.31642397975315
             0.5442493    0.74430825237435
 p    1 1.00
             0.1687144                   1
 d    1 1.00
                   0.8                   1

2 0
 s    3 1.00
             18.731137    0.03349459952309
             2.8253937    0.23472694665786
             0.6401217    0.81375731841339
 s    1 1.00
             0.1612778                   1

3 0
 s    6 1.00
             3047.5249  0.0018347001629433
             457.36951    0.01403730124668
             103.94869   0.068842606114048
             29.210155    0.23218442062076
              9.286663    0.46794134155879
              3.163927    0.36231203217765
 s    3 1.00
             7.8682724   -0.11933240861517
             1.8812885   -0.16085421161283
             0.5442493     1.1434564825515
 s    1 1.00
             0.1687144                   1
 p    3 1.00
             7.8682724   0.068999095584993
             1.8812885    0.31642397975315
             0.5442493    0.74430825237435
 p    1 1.00
             0.1687144                   1
 d    1 1.00
                   0.8                   1

4 0
 s    3 1.00
             18.731137    0.03349459952309
             2.8253937    0.23472694665786
             0.6401217    0.81375731841339
 s    1 1.00
             0.1612778                   1

5 0
 s    6 1.00
             3047.5249  0.0018347001629433
             457.36951    0.01403730124668
             103.94869   0.068842606114048
             29.210155    0.23218442062076
              9.286663    0.46794134155879
              3.163927    0.36231203217765
 s    3 1.00
             7.8682724   -0.11933240861517
             1.8812885   -0.16085421161283
             0.5442493     1.1434564825515
 s    1 1.00
             0.1687144                   1
 p    3 1.00
             7.8682724   0.068999095584993
             1.8812885    0.31642397975315
             0.5442493    0.74430825237435
 p    1 1.00
             0.1687144                   1
 d    1 1.00
                   0.8                   1

6 0
 s    3 1.00
             18.731137    0.03349459952309
             2.8253937    0.23472694665786
             0.6401217    0.81375731841339
 s    1 1.00
             0.1612778                   1

7 0
 s    6 1.00
             3047.5249  0.0018347001629433
             457.36951    0.01403730124668
             103.94869   0.068842606114048
             29.210155    0.23218442062076
              9.286663    0.46794134155879
              3.163927    0.36231203217765
 s    3 1.00
             7.8682724   -0.11933240861517
             1.8812885   -0.16085421161283
             0.5442493     1.1434564825515
 s    1 1.00
             0.1687144                   1
 p    3 1.00
             7.8682724   0.068999095584993
             1.8812885    0.31642397975315
             0.5442493    0.74430825237435
 p    1 1.00
             0.1687144                   1
 d    1 1.00
                   0.8                   1

8 0
 s    3 1.00
             18.731137    0.03349459952309
             2.8253937    0.23472694665786
             0.6401217    0.81375731841339
 s    1 1.00
             0.1612778                   1

9 0
 s    3 1.00
             18.731137    0.03349459952309
             2.8253937    0.23472694665786
             0.6401217    0.81375731841339
 s    1 1.00
             0.1612778                   1

10 0
 s    6 1.00
             3047.5249  0.0018347001629433
             457.36951    0.01403730124668
             103.94869   0.068842606114048
             29.210155    0.23218442062076
              9.286663    0.46794134155879
              3.163927    0.36231203217765
 s    3 1.00
             7.8682724   -0.11933240861517
             1.8812885   -0.16085421161283
             0.5442493     1.1434564825515
 s    1 1.00
             0.1687144                   1
 p    3 1.00
             7.8682724   0.068999095584993
             1.8812885    0.31642397975315
             0.5442493    0.74430825237435
 p    1 1.00
             0.1687144                   1
 d    1 1.00
                   0.8                   1

11 0
 s    3 1.00
             18.731137    0.03349459952309
             2.8253937    0.23472694665786
             0.6401217    0.81375731841339
 s    1 1.00
             0.1612778                   1

12 0
 s    6 1.00
             3047.5249  0.0018347001629433
             457.36951    0.01403730124668
             103.94869   0.068842606114048
             29.210155    0.23218442062076
              9.286663    0.46794134155879
              3.163927    0.36231203217765
 s    3 1.00
             7.8682724   -0.11933240861517
             1.8812885   -0.16085421161283
             0.5442493     1.1434564825515
 s    1 1.00
             0.1687144                   1
 p    3 1.00
             7.8682724   0.068999095584993
             1.8812885    0.31642397975315
             0.5442493    0.74430825237435
 p    1 1.00
             0.1687144                   1
 d    1 1.00
                   0.8                   1

13 0
 s    3 1.00
             18.731137    0.03349459952309
             2.8253937    0.23472694665786
             0.6401217    0.81375731841339
 s    1 1.00
             0.1612778                   1

14 0
 s    3 1.00
             18.731137    0.03349459952309
             2.8253937    0.23472694665786
             0.6401217    0.81375731841339
 s    1 1.00
             0.1612778                   1

15 0
 s    6 1.00
             3047.5249  0.0018347001629433
             457.36951    0.01403730124668
             103.94869   0.068842606114048
             29.210155    0.23218442062076
              9.286663    0.46794134155879
              3.163927    0.36231203217765
 s    3 1.00
             7.8682724   -0.11933240861517
             1.8812885   -0.16085421161283
             0.5442493     1.1434564825515
 s    1 1.00
             0.1687144                   1
 p    3 1.00
             7.8682724   0.068999095584993
             1.8812885    0.31642397975315
             0.5442493    0.74430825237435
 p    1 1.00
             0.1687144                   1
 d    1 1.00
                   0.8                   1

16 0
 s    6 1.00
             3047.5249  0.0018347001629433
             457.36951    0.01403730124668
             103.94869   0.068842606114048
             29.210155    0.23218442062076
              9.286663    0.46794134155879
              3.163927    0.36231203217765
 s    3 1.00
             7.8682724   -0.11933240861517
             1.8812885   -0.16085421161283
             0.5442493     1.1434564825515
 s    1 1.00
             0.1687144                   1
 p    3 1.00
             7.8682724   0.068999095584993
             1.8812885    0.31642397975315
             0.5442493    0.74430825237435
 p    1 1.00
             0.1687144                   1
 d    1 1.00
                   0.8                   1

17 0
 s    6 1.00
             3047.5249  0.0018347001629433
             457.36951    0.01403730124668
             103.94869   0.068842606114048
             29.210155    0.23218442062076
              9.286663    0.46794134155879
              3.163927    0.36231203217765
 s    3 1.00
             7.8682724   -0.11933240861517
             1.8812885   -0.16085421161283
             0.5442493     1.1434564825515
 s    1 1.00
             0.1687144                   1
 p    3 1.00
             7.8682724   0.068999095584993
             1.8812885    0.31642397975315
             0.5442493    0.74430825237435
 p    1 1.00
             0.1687144                   1
 d    1 1.00
                   0.8                   1

18 0
 s    6 1.00
             3047.5249  0.0018347001629433
             457.36951    0.01403730124668
             103.94869   0.068842606114048
             29.210155    0.23218442062076
              9.286663    0.46794134155879
              3.163927    0.36231203217765
 s    3 1.00
             7.8682724   -0.11933240861517
             1.8812885   -0.16085421161283
             0.5442493     1.1434564825515
 s    1 1.00
             0.1687144                   1
 p    3 1.00
             7.8682724   0.068999095584993
             1.8812885    0.31642397975315
             0.5442493    0.74430825237435
 p    1 1.00
             0.1687144                   1
 d    1 1.00
                   0.8                   1

19 0
 s    6 1.00
             3047.5249  0.0018347001629433
             457.36951    0.01403730124668
             103.94869   0.068842606114048
             29.210155    0.23218442062076
              9.286663    0.46794134155879
              3.163927    0.36231203217765
 s    3 1.00
             7.8682724   -0.11933240861517
             1.8812885   -0.16085421161283
             0.5442493     1.1434564825515
 s    1 1.00
             0.1687144                   1
 p    3 1.00
             7.8682724   0.068999095584993
             1.8812885    0.31642397975315
             0.5442493    0.74430825237435
 p    1 1.00
             0.1687144                   1
 d    1 1.00
                   0.8                   1

20 0
 s    6 1.00
             3047.5249  0.0018347001629433
             457.36951    0.01403730124668
             103.94869   0.068842606114048
             29.210155    0.23218442062076
              9.286663    0.46794134155879
              3.163927    0.36231203217765
 s    3 1.00
             7.8682724   -0.11933240861517
             1.8812885   -0.16085421161283
             0.5442493     1.1434564825515
 s    1 1.00
             0.1687144                   1
 p    3 1.00
             7.8682724   0.068999095584993
             1.8812885    0.31642397975315
             0.5442493    0.74430825237435
 p    1 1.00
             0.1687144                   1
 d    1 1.00
                   0.8                   1

21 0
 s    6 1.00
             3047.5249  0.0018347001629433
             457.36951    0.01403730124668
             103.94869   0.068842606114048
             29.210155    0.23218442062076
              9.286663    0.46794134155879
              3.163927    0.36231203217765
 s    3 1.00
             7.8682724   -0.11933240861517
             1.8812885   -0.16085421161283
             0.5442493     1.1434564825515
 s    1 1.00
             0.1687144                   1
 p    3 1.00
             7.8682724   0.068999095584993
             1.8812885    0.31642397975315
             0.5442493    0.74430825237435
 p    1 1.00
             0.1687144                   1
 d    1 1.00
                   0.8                   1

22 0
 s    3 1.00
             18.731137    0.03349459952309
             2.8253937    0.23472694665786
             0.6401217    0.81375731841339
 s    1 1.00
             0.1612778                   1

23 0
 s    3 1.00
             18.731137    0.03349459952309
             2.8253937    0.23472694665786
             0.6401217    0.81375731841339
 s    1 1.00
             0.1612778                   1

24 0
 s    3 1.00
             18.731137    0.03349459952309
             2.8253937    0.23472694665786
             0.6401217    0.81375731841339
 s    1 1.00
             0.1612778                   1

25 0
 s    3 1.00
             18.731137    0.03349459952309
             2.8253937    0.23472694665786
             0.6401217    0.81375731841339
 s    1 1.00
             0.1612778                   1

26 0
 s    3 1.00
             18.731137    0.03349459952309
             2.8253937    0.23472694665786
             0.6401217    0.81375731841339
 s    1 1.00
             0.1612778                   1

27 0
 s    3 1.00
             18.731137    0.03349459952309
             2.8253937    0.23472694665786
             0.6401217    0.81375731841339
 s    1 1.00
             0.1612778                   1

28 0
 s    3 1.00
             18.731137    0.03349459952309
             2.8253937    0.23472694665786
             0.6401217    0.81375731841339
 s    1 1.00
             0.1612778                   1

29 0
 s    3 1.00
             18.731137    0.03349459952309
             2.8253937    0.23472694665786
             0.6401217    0.81375731841339
 s    1 1.00
             0.1612778                   1

30 0
 s    3 1.00
             18.731137    0.03349459952309
             2.8253937    0.23472694665786
             0.6401217    0.81375731841339
 s    1 1.00
             0.1612778                   1

31 0
 s    3 1.00
             18.731137    0.03349459952309
             2.8253937    0.23472694665786
             0.6401217    0.81375731841339
 s    1 1.00
             0.1612778                   1

32 0
 s    3 1.00
             18.731137    0.03349459952309
             2.8253937    0.23472694665786
             0.6401217    0.81375731841339
 s    1 1.00
             0.1612778                   1

33 0
 s    6 1.00
             3047.5249  0.0018347001629433
             457.36951    0.01403730124668
             103.94869   0.068842606114048
             29.210155    0.23218442062076
              9.286663    0.46794134155879
              3.163927    0.36231203217765
 s    3 1.00
             7.8682724   -0.11933240861517
             1.8812885   -0.16085421161283
             0.5442493     1.1434564825515
 s    1 1.00
             0.1687144                   1
 p    3 1.00
             7.8682724   0.068999095584993
             1.8812885    0.31642397975315
             0.5442493    0.74430825237435
 p    1 1.00
             0.1687144                   1
 d    1 1.00
                   0.8                   1

34 0
 s    6 1.00
             3047.5249  0.0018347001629433
             457.36951    0.01403730124668
             103.94869   0.068842606114048
             29.210155    0.23218442062076
              9.286663    0.46794134155879
              3.163927    0.36231203217765
 s    3 1.00
             7.8682724   -0.11933240861517
             1.8812885   -0.16085421161283
             0.5442493     1.1434564825515
 s    1 1.00
             0.1687144                   1
 p    3 1.00
             7.8682724   0.068999095584993
             1.8812885    0.31642397975315
             0.5442493    0.74430825237435
 p    1 1.00
             0.1687144                   1
 d    1 1.00
                   0.8                   1

35 0
 s    3 1.00
             18.731137    0.03349459952309
             2.8253937    0.23472694665786
             0.6401217    0.81375731841339
 s    1 1.00
             0.1612778                   1

36 0
 s    6 1.00
             3047.5249  0.0018347001629433
             457.36951    0.01403730124668
             103.94869   0.068842606114048
             29.210155    0.23218442062076
              9.286663    0.46794134155879
              3.163927    0.36231203217765
 s    3 1.00
             7.8682724   -0.11933240861517
             1.8812885   -0.16085421161283
             0.5442493     1.1434564825515
 s    1 1.00
             0.1687144                   1
 p    3 1.00
             7.8682724   0.068999095584993
             1.8812885    0.31642397975315
             0.5442493    0.74430825237435
 p    1 1.00
             0.1687144                   1
 d    1 1.00
                   0.8                   1

37 0
 s    3 1.00
             18.731137    0.03349459952309
             2.8253937    0.23472694665786
             0.6401217    0.81375731841339
 s    1 1.00
             0.1612778                   1

38 0
 s    3 1.00
             18.731137    0.03349459952309
             2.8253937    0.23472694665786
             0.6401217    0.81375731841339
 s    1 1.00
             0.1612778                   1

39 0
 s    6 1.00
             3047.5249  0.0018347001629433
             457.36951    0.01403730124668
             103.94869   0.068842606114048
             29.210155    0.23218442062076
              9.286663    0.46794134155879
              3.163927    0.36231203217765
 s    3 1.00
             7.8682724   -0.11933240861517
             1.8812885   -0.16085421161283
             0.5442493     1.1434564825515
 s    1 1.00
             0.1687144                   1
 p    3 1.00
             7.8682724   0.068999095584993
             1.8812885    0.31642397975315
             0.5442493    0.74430825237435
 p    1 1.00
             0.1687144                   1
 d    1 1.00
                   0.8                   1

40 0
 s    6 1.00
             3047.5249  0.0018347001629433
             457.36951    0.01403730124668
             103.94869   0.068842606114048
             29.210155    0.23218442062076
              9.286663    0.46794134155879
              3.163927    0.36231203217765
 s    3 1.00
             7.8682724   -0.11933240861517
             1.8812885   -0.16085421161283
             0.5442493     1.1434564825515
 s    1 1.00
             0.1687144                   1
 p    3 1.00
             7.8682724   0.068999095584993
             1.8812885    0.31642397975315
             0.5442493    0.74430825237435
 p    1 1.00
             0.1687144                   1
 d    1 1.00
                   0.8                   1

41 0
 s    3 1.00
             18.731137    0.03349459952309
             2.8253937    0.23472694665786
             0.6401217    0.81375731841339
 s    1 1.00
             0.1612778                   1

42 0
 s    6 1.00
             5484.6717   0.001831099805527
             825.23495   0.013950098518422
             188.04696    0.06844509273075
               52.9645    0.23271427528445
              16.89757    0.47019295006289
             5.7996353    0.35852086192309
 s    3 1.00
             15.539616   -0.11077750382508
             3.5999336   -0.14802630511126
             1.0137618     1.1307670390447
 s    1 1.00
             0.2700058                   1
 p    3 1.00
             15.539616   0.070874299543311
             3.5999336    0.33975279781076
             1.0137618    0.72715859531445
 p    1 1.00
             0.2700058                   1
 d    1 1.00
                   0.8                   1

43 0
 s    3 1.00
             18.731137    0.03349459952309
             2.8253937    0.23472694665786
             0.6401217    0.81375731841339
 s    1 1.00
             0.1612778                   1

[5d]
[7f]
[9g]

[MO]
 Sym= A
 Ene=               0
 Spin= Alpha
 Occup=    1.00000
   1    -1.4770620164042e-06
   2    -1.759296575865e-05
   3    -2.4040094683154e-05
   4    -2.5941254739565e-06
   5    -1.1849423698928e-05
   6    1.2869303305286e-05
   7    4.2880564537192e-05
   8    0.00012076739921731
   9    -0.00039695272607201
  10    1.4052243545948e-07
  11    1.125151788432e-05
  12    1.8104504302727e-06
  13    1.4833731022821e-05
  14    -8.3061288241749e-06
  15    -1.5476606923996e-05
  16    1.228985574501e-05
  17    5.0775918012616e-06
  18    0.00017384069009426
  19    0.00046521693708307
  20    6.5379255349255e-05
  21    -7.8185996931067e-06
  22    -8.2222405178961e-05
  23    0.00020426625594197
  24    -0.00011972499221543
  25    -0.00062797112362219
  26    2.3180137074333e-05
  27    -2.4901862668788e-05
  28    1.2730491096148e-05
  29    4.3685468302935e-05
  30    1.2847272406658e-06
  31    -1.6172934548117e-05
  32    2.9928260526718e-05
  33    7.1005506143927e-05
  34    0.00036774204723308
  35    -0.0046643292037179
  36    -0.00012261971598852
  37    4.6300484767569e-05
  38    0.00016152795785159
  39    -0.00066903813248708
  40    0.0020335346880131
  41    0.00046072744540075
  42    -1.7891690099526e-05
  43    0.00011712772940196
  44    -6.4258457727476e-05
  45    2.2931008250228e-05
  46    6.7800286957098e-05
  47    -6.394618702143e-06
  48    -0.00028378724820831
  49    -1.9505774749835e-05
  50    0.00018026001010413
  51    0.0037908668258418
  52    0.00026001748200954
  53    -0.00025134240592099
  54    -0.00030193639888741
  55    -0.0020046893852784
  56     0.002697540153554
  57    0.0022317300165859
  58    -3.6389364498711e-05
  59    3.1698239060325e-05
  60    0.00019991503008855
  61    3.5814905099667e-05
  62    -0.00012529781358577
  63    0.00032638167302161
  64    9.2172385740346e-05
  65    -2.4124600457035e-07
  66    -5.0925140163477e-07
  67    -7.1734421553193e-08
  68    -5.3254386246878e-07
  69    3.1124828371654e-06
  70    3.2076348936365e-07
  71    -4.2024803874891e-07
  72    1.0885149541558e-07
  73    3.9323723406828e-07
  74    1.4507825042397e-06
  75    2.0099466701983e-07
  76    -5.8357501103879e-08
  77    -1.4021902483638e-07
  78    4.8720485153814e-08
  79    6.6701822171084e-08
  80    -1.2083903022958e-07
  81    9.6314975834627e-08
  82    -5.7245661091916e-09
  83    -3.2490891363278e-08
  84    -1.7693062756399e-07
  85    -1.422882075742e-05
  86    6.2729171391397e-07
  87    2.1668548848794e-08
  88    7.653378882807e-07
  89    3.5548524230625e-06
  90    -4.8112836722983e-06
  91    3.2661708613168e-06
  92    2.0811478585012e-07
  93    -3.4628815253767e-07
  94    3.2303826251398e-07
  95    3.6763201305662e-08
  96    -2.1565301132474e-07
  97    4.0795706264767e-07
  98    4.1516645979528e-08
  99    1.6150317160465e-07
 100    -7.3932639634076e-07
 101    6.5892851061937e-08
 102    -1.1072847006988e-06
 103    1.2520367377475e-05
 104    1.2661261147302e-06
 105    1.9098046482636e-07
 106    -6.1513634187328e-07
 107    -2.0031910545946e-05
 108    2.074840346717e-05
 109    3.4073528514101e-05
 110    -6.3181705360207e-07
 111    -5.7872652345923e-07
 112    2.7252505047245e-07
 113    3.659624714134e-07
 114    -5.3315054250785e-07
 115    -5.3013109011181e-07
 116    -4.8296151748396e-06
 117    3.9653988673529e-05
 118    -7.4828411798832e-07
 119    1.0679929103883e-06
 120    7.8908350507378e-07
 121    -9.5053416688363e-06
 122    1.5897558016128e-06
 123    3.3564249341939e-06
 124    -8.4799369384156e-08
 125    -2.2451449281259e-07
 126    -7.9786499723436e-08
 127    9.363395558413e-08
 128    -4.4461186890768e-07
 129    -1.0135757721552e-06
 130    -9.5146548013848e-06
 131    5.7349304236573e-05
 132    -3.9868241386979e-07
 133    -1.2052227812962e-06
 134    3.8451353654617e-06
 135    -2.5994248063872e-05
 136    -1.3016394551414e-06
 137    -8.9981536621533e-05
 138    2.7636736867639e-06
 139    1.6935404830438e-06
 140    4.2529066502944e-07
 141    5.0952475087642e-07
 142    1.4905542227352e-07
 143    -6.1248343904291e-07
 144    -4.1878160287028e-06
 145    2.3993404511243e-05
 146    6.0565272086006e-07
 147    5.6341353950069e-07
 148    -5.2895210871154e-08
 149    1.4150025946607e-05
 150    -6.3354189564864e-06
 151    -3.9667396617454e-06
 152    -1.1007319234805e-06
 153    -4.0948633488627e-07
 154    -1.0661797504888e-07
 155    7.5731194698267e-07
 156    -8.7717074071499e-07
 157    4.1262018315133e-09
 158    1.2325256774269e-06
 159    6.6816839877826e-07
 160    7.9971143538004e-07
 161    -3.1547514157557e-07
 162    -3.3921293558563e-07
 163    -7.3226995601679e-06
 164    5.5779790287825e-07
 165    8.8447274573666e-07
 166    4.900191130187e-07
 167    -1.7410299565292e-07
 168    2.3023831787374e-09
 169    -1.2009906155085e-07
 170    3.3597386384038e-07
 171    7.6836616301503e-08
 172    -6.0839382848367e-07
 173    -1.4469104513295e-06
 174    -9.3094012783811e-07
 175    -3.1969673327761e-07
 176    8.8767007417866e-07
 177    -3.999600691254e-07
 178    1.6567758320952e-06
 179    -1.9365023646766e-06
 180    1.4341080935143e-07
 181    1.9275569070381e-07
 182    4.3899251694925e-08
 183    -4.0006918248091e-07
 184    1.8952923148479e-07
 185    -2.9801052039704e-07
 186    -3.3020481535879e-06
 187    1.9194485477812e-06
 188    -1.763525987928e-07
 189    1.7219127985702e-07
 190    1.3997356577615e-06
 191    2.6869088356975e-06
 192    7.1466740504601e-07
 193    -5.6518403296673e-06
 194    3.355076730938e-07
 195    -6.4264141704743e-08
 196    2.1725833300028e-07
 197    1.0057630328018e-07
 198    -1.1599256888407e-07
 199    -8.4823588387393e-07
 200    -1.4702475548624e-06
 201    1.7533869266923e-07
 202    3.9174048881607e-06
 203    -1.6444341602016e-06
 204    -1.4631735475422e-06
 205    -5.8740079297328e-07
 206    -3.0904558342875e-06
 207    1.2962851053179e-06
 208    -1.1629144860883e-05
 209    1.3284180342915e-06
 210    -4.8331544035726e-06
 211    5.8119625436171e-07
 212    3.007713998196e-06
 213    -4.4167757084024e-07
 214    -2.9169668105795e-06
 215    -6.0214164844791e-07
 216    5.2147720437937e-07
 217    4.5284188018444e-07
 218    1.2772131272583e-06
 219    2.6824847498369e-07
 220    1.074710488114e-06
 221    -8.012058540302e-07
 222    -8.5904267003497e-06
 223    -1.0410833120975e-05
 224    1.3857379963918e-06
 225    -4.1394313777315e-06
 226    3.3366625625856e-06
 227    1.1622805507619e-05
 228    2.6320635706421e-05
 229    -0.00010521863499808
 230    -1.2578110763172e-06
 231    -4.4789025568069e-06
 232    -2.2266326409647e-06
 233    1.9280237958835e-06
 234    3.0404660657787e-06
 235    -9.8612607607965e-07
 236    -1.1626564283423e-05
 237    2.1526723858601e-05
 238    -1.7447080252888e-06
 239    6.560646346132e-06
 240    5.9573933957609e-06
 241    -2.3617852040147e-05
 242    -4.980221832694e-06
 243    -9.1427833539965e-05
 244    1.3016533536102e-06
 245    7.322371949279e-06
 246    1.5839412599643e-06
 247    2.791090086418e-06
 248    1.3178983049735e-06
 249    -4.8711529023558e-06
 250    1.1255496740522e-05
 251    -4.5837599618374e-06
 252    -3.4941998729216e-05
 253    0.0002885314791299
 254    6.1963812431206e-07
 255    -5.1852239646141e-06
 256    8.5199758717223e-06
 257    0.00012047006669449
 258    0.00010748871538164
 259    -0.00026306050606673
 260    2.8370890899319e-06
 261    -1.3417596540136e-05
 262    -5.2329358564957e-06
 263    8.7030162197434e-06
 264    5.5098559104946e-06
 265    -4.3967283748863e-06
 266    3.0119425306905e-05
 267    -8.7899295304798e-06
 268    3.9401622244357e-05
 269    -7.2975770793786e-05
 270    -9.9489870002547e-05
 271    0.0033045877563624
 272    9.5008350406682e-06
 273    -0.00021707955442338
 274    7.6538253368743e-05
 275     0.002280517182868
 276    0.00062532890595823
 277    -0.0034699471058002
 278    0.00020918348957522
 279    -0.00023674110184774
 280    0.00017144265839654