[Molden Format]
made by pyscf v[2.0.1]
[Atoms] (AU)
C   1   6     0.69100024066471     0.64692934207205    -3.48223131169301
H   2   1     2.68052439830868     1.13355088658700    -3.25784032593313
C   3   6    -0.36286361513219     0.85440132524594    -5.97030179418974
H   4   1    -2.35448549047279     0.36322488579172    -6.17995817793143
C   5   6     0.93697958957450     1.61209284601821    -8.05828437677121
H   6   1     1.52220939200985     3.58023657898303    -8.21595213017833
C   7   6     1.59282573286669    -0.05175011382745   -10.09734693546315
H   8   1     0.99474836942587    -2.01839690080961    -9.91207388765078
H   9   1     1.55630230933075    -1.92953025305990    12.99630010416247
C   10   6     0.75233899775814    -2.21270439606481    11.10705728102219
H   11   1    -0.43433408177274    -3.90944857546550    11.22216085340412
C   12   6     2.86362581178706    -2.63237380607947     9.17926416456045
H   13   1     4.39038949912609    -1.24955421540245     9.49899813497433
H   14   1     3.74629220191363    -4.48798724300892     9.47414880959024
C   15   6     2.02478325613682    -2.42177285709634     6.44560829588644
C   16   6     3.88048732735477    -3.58795445234514     4.61402886975252
C   17   6    -0.18412382258602    -1.30464291234259     5.76021113872346
C   18   6    -2.10044360464350    -0.26837831858460     7.71610340967100
C   19   6    -3.08956938670431     2.35282328359417     6.88693925039594
C   20   6    -4.37372924086464    -2.09766595989678     7.93610724222001
C   21   6    -0.83850430601230     0.06372213486173    10.33002307638377
H   22   1     0.38411922151109     1.74281358582432    10.27380136542181
H   23   1    -2.30980003007874     0.45460143924521    11.73986301809809
H   24   1     4.58527064644668    -5.38706904487420     5.36778158031719
H   25   1     5.54944938085014    -2.37631462192748     4.35398898413318
H   26   1     3.06633019150423    -3.94118377050688     2.75255466040884
H   27   1    -4.17727778763735     2.26573369139522     5.12914900961283
H   28   1    -1.52662344944051     3.68001877445626     6.59540397144508
H   29   1    -4.32916174397830     3.13643051467482     8.35225460090378
H   30   1    -5.32329548508442    -2.36691813602939     6.11583672749896
H   31   1    -5.77989366602257    -1.33896741843465     9.25748940450990
H   32   1    -3.79310905208926    -3.96389819310853     8.61386170102686
C   33   6    -1.01100794811226    -1.06331657314144     3.11929490449947
C   34   6     0.37686231036534    -0.33275864505552     1.09165013605873
H   35   1    -3.01671213906703    -1.40297922279997     2.77827895090944
C   36   6    -0.64382707979370    -0.11591880174385    -1.42063131251064
H   37   1     2.35569259782137     0.17174499283897     1.33641070251401
H   38   1    -2.63317482980319    -0.60229203511219    -1.66119700387645
C   39   6     2.88089126504443     0.61821658123040   -12.21129238571255
C   40   6     3.45664863859100    -1.22033421200677   -14.18493293343049
H   41   1     3.53070761900678     2.54536442784122   -12.51396089296279
O   42   8     4.60321296142939    -0.74877588551315   -16.13014426558594
H   43   1     2.75622344406002    -3.16930929543288   -13.79624335354022
[GTO]
1 0
 s    6 1.00
             3047.5249  0.0018347001629433
             457.36951    0.01403730124668
             103.94869   0.068842606114048
             29.210155    0.23218442062076
              9.286663    0.46794134155879
              3.163927    0.36231203217765
 s    3 1.00
             7.8682724   -0.11933240861517
             1.8812885   -0.16085421161283
             0.5442493     1.1434564825515
 s    1 1.00
             0.1687144                   1
 p    3 1.00
             7.8682724   0.068999095584993
             1.8812885    0.31642397975315
             0.5442493    0.74430825237435
 p    1 1.00
             0.1687144                   1
 d    1 1.00
                   0.8                   1

2 0
 s    3 1.00
             18.731137    0.03349459952309
             2.8253937    0.23472694665786
             0.6401217    0.81375731841339
 s    1 1.00
             0.1612778                   1

3 0
 s    6 1.00
             3047.5249  0.0018347001629433
             457.36951    0.01403730124668
             103.94869   0.068842606114048
             29.210155    0.23218442062076
              9.286663    0.46794134155879
              3.163927    0.36231203217765
 s    3 1.00
             7.8682724   -0.11933240861517
             1.8812885   -0.16085421161283
             0.5442493     1.1434564825515
 s    1 1.00
             0.1687144                   1
 p    3 1.00
             7.8682724   0.068999095584993
             1.8812885    0.31642397975315
             0.5442493    0.74430825237435
 p    1 1.00
             0.1687144                   1
 d    1 1.00
                   0.8                   1

4 0
 s    3 1.00
             18.731137    0.03349459952309
             2.8253937    0.23472694665786
             0.6401217    0.81375731841339
 s    1 1.00
             0.1612778                   1

5 0
 s    6 1.00
             3047.5249  0.0018347001629433
             457.36951    0.01403730124668
             103.94869   0.068842606114048
             29.210155    0.23218442062076
              9.286663    0.46794134155879
              3.163927    0.36231203217765
 s    3 1.00
             7.8682724   -0.11933240861517
             1.8812885   -0.16085421161283
             0.5442493     1.1434564825515
 s    1 1.00
             0.1687144                   1
 p    3 1.00
             7.8682724   0.068999095584993
             1.8812885    0.31642397975315
             0.5442493    0.74430825237435
 p    1 1.00
             0.1687144                   1
 d    1 1.00
                   0.8                   1

6 0
 s    3 1.00
             18.731137    0.03349459952309
             2.8253937    0.23472694665786
             0.6401217    0.81375731841339
 s    1 1.00
             0.1612778                   1

7 0
 s    6 1.00
             3047.5249  0.0018347001629433
             457.36951    0.01403730124668
             103.94869   0.068842606114048
             29.210155    0.23218442062076
              9.286663    0.46794134155879
              3.163927    0.36231203217765
 s    3 1.00
             7.8682724   -0.11933240861517
             1.8812885   -0.16085421161283
             0.5442493     1.1434564825515
 s    1 1.00
             0.1687144                   1
 p    3 1.00
             7.8682724   0.068999095584993
             1.8812885    0.31642397975315
             0.5442493    0.74430825237435
 p    1 1.00
             0.1687144                   1
 d    1 1.00
                   0.8                   1

8 0
 s    3 1.00
             18.731137    0.03349459952309
             2.8253937    0.23472694665786
             0.6401217    0.81375731841339
 s    1 1.00
             0.1612778                   1

9 0
 s    3 1.00
             18.731137    0.03349459952309
             2.8253937    0.23472694665786
             0.6401217    0.81375731841339
 s    1 1.00
             0.1612778                   1

10 0
 s    6 1.00
             3047.5249  0.0018347001629433
             457.36951    0.01403730124668
             103.94869   0.068842606114048
             29.210155    0.23218442062076
              9.286663    0.46794134155879
              3.163927    0.36231203217765
 s    3 1.00
             7.8682724   -0.11933240861517
             1.8812885   -0.16085421161283
             0.5442493     1.1434564825515
 s    1 1.00
             0.1687144                   1
 p    3 1.00
             7.8682724   0.068999095584993
             1.8812885    0.31642397975315
             0.5442493    0.74430825237435
 p    1 1.00
             0.1687144                   1
 d    1 1.00
                   0.8                   1

11 0
 s    3 1.00
             18.731137    0.03349459952309
             2.8253937    0.23472694665786
             0.6401217    0.81375731841339
 s    1 1.00
             0.1612778                   1

12 0
 s    6 1.00
             3047.5249  0.0018347001629433
             457.36951    0.01403730124668
             103.94869   0.068842606114048
             29.210155    0.23218442062076
              9.286663    0.46794134155879
              3.163927    0.36231203217765
 s    3 1.00
             7.8682724   -0.11933240861517
             1.8812885   -0.16085421161283
             0.5442493     1.1434564825515
 s    1 1.00
             0.1687144                   1
 p    3 1.00
             7.8682724   0.068999095584993
             1.8812885    0.31642397975315
             0.5442493    0.74430825237435
 p    1 1.00
             0.1687144                   1
 d    1 1.00
                   0.8                   1

13 0
 s    3 1.00
             18.731137    0.03349459952309
             2.8253937    0.23472694665786
             0.6401217    0.81375731841339
 s    1 1.00
             0.1612778                   1

14 0
 s    3 1.00
             18.731137    0.03349459952309
             2.8253937    0.23472694665786
             0.6401217    0.81375731841339
 s    1 1.00
             0.1612778                   1

15 0
 s    6 1.00
             3047.5249  0.0018347001629433
             457.36951    0.01403730124668
             103.94869   0.068842606114048
             29.210155    0.23218442062076
              9.286663    0.46794134155879
              3.163927    0.36231203217765
 s    3 1.00
             7.8682724   -0.11933240861517
             1.8812885   -0.16085421161283
             0.5442493     1.1434564825515
 s    1 1.00
             0.1687144                   1
 p    3 1.00
             7.8682724   0.068999095584993
             1.8812885    0.31642397975315
             0.5442493    0.74430825237435
 p    1 1.00
             0.1687144                   1
 d    1 1.00
                   0.8                   1

16 0
 s    6 1.00
             3047.5249  0.0018347001629433
             457.36951    0.01403730124668
             103.94869   0.068842606114048
             29.210155    0.23218442062076
              9.286663    0.46794134155879
              3.163927    0.36231203217765
 s    3 1.00
             7.8682724   -0.11933240861517
             1.8812885   -0.16085421161283
             0.5442493     1.1434564825515
 s    1 1.00
             0.1687144                   1
 p    3 1.00
             7.8682724   0.068999095584993
             1.8812885    0.31642397975315
             0.5442493    0.74430825237435
 p    1 1.00
             0.1687144                   1
 d    1 1.00
                   0.8                   1

17 0
 s    6 1.00
             3047.5249  0.0018347001629433
             457.36951    0.01403730124668
             103.94869   0.068842606114048
             29.210155    0.23218442062076
              9.286663    0.46794134155879
              3.163927    0.36231203217765
 s    3 1.00
             7.8682724   -0.11933240861517
             1.8812885   -0.16085421161283
             0.5442493     1.1434564825515
 s    1 1.00
             0.1687144                   1
 p    3 1.00
             7.8682724   0.068999095584993
             1.8812885    0.31642397975315
             0.5442493    0.74430825237435
 p    1 1.00
             0.1687144                   1
 d    1 1.00
                   0.8                   1

18 0
 s    6 1.00
             3047.5249  0.0018347001629433
             457.36951    0.01403730124668
             103.94869   0.068842606114048
             29.210155    0.23218442062076
              9.286663    0.46794134155879
              3.163927    0.36231203217765
 s    3 1.00
             7.8682724   -0.11933240861517
             1.8812885   -0.16085421161283
             0.5442493     1.1434564825515
 s    1 1.00
             0.1687144                   1
 p    3 1.00
             7.8682724   0.068999095584993
             1.8812885    0.31642397975315
             0.5442493    0.74430825237435
 p    1 1.00
             0.1687144                   1
 d    1 1.00
                   0.8                   1

19 0
 s    6 1.00
             3047.5249  0.0018347001629433
             457.36951    0.01403730124668
             103.94869   0.068842606114048
             29.210155    0.23218442062076
              9.286663    0.46794134155879
              3.163927    0.36231203217765
 s    3 1.00
             7.8682724   -0.11933240861517
             1.8812885   -0.16085421161283
             0.5442493     1.1434564825515
 s    1 1.00
             0.1687144                   1
 p    3 1.00
             7.8682724   0.068999095584993
             1.8812885    0.31642397975315
             0.5442493    0.74430825237435
 p    1 1.00
             0.1687144                   1
 d    1 1.00
                   0.8                   1

20 0
 s    6 1.00
             3047.5249  0.0018347001629433
             457.36951    0.01403730124668
             103.94869   0.068842606114048
             29.210155    0.23218442062076
              9.286663    0.46794134155879
              3.163927    0.36231203217765
 s    3 1.00
             7.8682724   -0.11933240861517
             1.8812885   -0.16085421161283
             0.5442493     1.1434564825515
 s    1 1.00
             0.1687144                   1
 p    3 1.00
             7.8682724   0.068999095584993
             1.8812885    0.31642397975315
             0.5442493    0.74430825237435
 p    1 1.00
             0.1687144                   1
 d    1 1.00
                   0.8                   1

21 0
 s    6 1.00
             3047.5249  0.0018347001629433
             457.36951    0.01403730124668
             103.94869   0.068842606114048
             29.210155    0.23218442062076
              9.286663    0.46794134155879
              3.163927    0.36231203217765
 s    3 1.00
             7.8682724   -0.11933240861517
             1.8812885   -0.16085421161283
             0.5442493     1.1434564825515
 s    1 1.00
             0.1687144                   1
 p    3 1.00
             7.8682724   0.068999095584993
             1.8812885    0.31642397975315
             0.5442493    0.74430825237435
 p    1 1.00
             0.1687144                   1
 d    1 1.00
                   0.8                   1

22 0
 s    3 1.00
             18.731137    0.03349459952309
             2.8253937    0.23472694665786
             0.6401217    0.81375731841339
 s    1 1.00
             0.1612778                   1

23 0
 s    3 1.00
             18.731137    0.03349459952309
             2.8253937    0.23472694665786
             0.6401217    0.81375731841339
 s    1 1.00
             0.1612778                   1

24 0
 s    3 1.00
             18.731137    0.03349459952309
             2.8253937    0.23472694665786
             0.6401217    0.81375731841339
 s    1 1.00
             0.1612778                   1

25 0
 s    3 1.00
             18.731137    0.03349459952309
             2.8253937    0.23472694665786
             0.6401217    0.81375731841339
 s    1 1.00
             0.1612778                   1

26 0
 s    3 1.00
             18.731137    0.03349459952309
             2.8253937    0.23472694665786
             0.6401217    0.81375731841339
 s    1 1.00
             0.1612778                   1

27 0
 s    3 1.00
             18.731137    0.03349459952309
             2.8253937    0.23472694665786
             0.6401217    0.81375731841339
 s    1 1.00
             0.1612778                   1

28 0
 s    3 1.00
             18.731137    0.03349459952309
             2.8253937    0.23472694665786
             0.6401217    0.81375731841339
 s    1 1.00
             0.1612778                   1

29 0
 s    3 1.00
             18.731137    0.03349459952309
             2.8253937    0.23472694665786
             0.6401217    0.81375731841339
 s    1 1.00
             0.1612778                   1

30 0
 s    3 1.00
             18.731137    0.03349459952309
             2.8253937    0.23472694665786
             0.6401217    0.81375731841339
 s    1 1.00
             0.1612778                   1

31 0
 s    3 1.00
             18.731137    0.03349459952309
             2.8253937    0.23472694665786
             0.6401217    0.81375731841339
 s    1 1.00
             0.1612778                   1

32 0
 s    3 1.00
             18.731137    0.03349459952309
             2.8253937    0.23472694665786
             0.6401217    0.81375731841339
 s    1 1.00
             0.1612778                   1

33 0
 s    6 1.00
             3047.5249  0.0018347001629433
             457.36951    0.01403730124668
             103.94869   0.068842606114048
             29.210155    0.23218442062076
              9.286663    0.46794134155879
              3.163927    0.36231203217765
 s    3 1.00
             7.8682724   -0.11933240861517
             1.8812885   -0.16085421161283
             0.5442493     1.1434564825515
 s    1 1.00
             0.1687144                   1
 p    3 1.00
             7.8682724   0.068999095584993
             1.8812885    0.31642397975315
             0.5442493    0.74430825237435
 p    1 1.00
             0.1687144                   1
 d    1 1.00
                   0.8                   1

34 0
 s    6 1.00
             3047.5249  0.0018347001629433
             457.36951    0.01403730124668
             103.94869   0.068842606114048
             29.210155    0.23218442062076
              9.286663    0.46794134155879
              3.163927    0.36231203217765
 s    3 1.00
             7.8682724   -0.11933240861517
             1.8812885   -0.16085421161283
             0.5442493     1.1434564825515
 s    1 1.00
             0.1687144                   1
 p    3 1.00
             7.8682724   0.068999095584993
             1.8812885    0.31642397975315
             0.5442493    0.74430825237435
 p    1 1.00
             0.1687144                   1
 d    1 1.00
                   0.8                   1

35 0
 s    3 1.00
             18.731137    0.03349459952309
             2.8253937    0.23472694665786
             0.6401217    0.81375731841339
 s    1 1.00
             0.1612778                   1

36 0
 s    6 1.00
             3047.5249  0.0018347001629433
             457.36951    0.01403730124668
             103.94869   0.068842606114048
             29.210155    0.23218442062076
              9.286663    0.46794134155879
              3.163927    0.36231203217765
 s    3 1.00
             7.8682724   -0.11933240861517
             1.8812885   -0.16085421161283
             0.5442493     1.1434564825515
 s    1 1.00
             0.1687144                   1
 p    3 1.00
             7.8682724   0.068999095584993
             1.8812885    0.31642397975315
             0.5442493    0.74430825237435
 p    1 1.00
             0.1687144                   1
 d    1 1.00
                   0.8                   1

37 0
 s    3 1.00
             18.731137    0.03349459952309
             2.8253937    0.23472694665786
             0.6401217    0.81375731841339
 s    1 1.00
             0.1612778                   1

38 0
 s    3 1.00
             18.731137    0.03349459952309
             2.8253937    0.23472694665786
             0.6401217    0.81375731841339
 s    1 1.00
             0.1612778                   1

39 0
 s    6 1.00
             3047.5249  0.0018347001629433
             457.36951    0.01403730124668
             103.94869   0.068842606114048
             29.210155    0.23218442062076
              9.286663    0.46794134155879
              3.163927    0.36231203217765
 s    3 1.00
             7.8682724   -0.11933240861517
             1.8812885   -0.16085421161283
             0.5442493     1.1434564825515
 s    1 1.00
             0.1687144                   1
 p    3 1.00
             7.8682724   0.068999095584993
             1.8812885    0.31642397975315
             0.5442493    0.74430825237435
 p    1 1.00
             0.1687144                   1
 d    1 1.00
                   0.8                   1

40 0
 s    6 1.00
             3047.5249  0.0018347001629433
             457.36951    0.01403730124668
             103.94869   0.068842606114048
             29.210155    0.23218442062076
              9.286663    0.46794134155879
              3.163927    0.36231203217765
 s    3 1.00
             7.8682724   -0.11933240861517
             1.8812885   -0.16085421161283
             0.5442493     1.1434564825515
 s    1 1.00
             0.1687144                   1
 p    3 1.00
             7.8682724   0.068999095584993
             1.8812885    0.31642397975315
             0.5442493    0.74430825237435
 p    1 1.00
             0.1687144                   1
 d    1 1.00
                   0.8                   1

41 0
 s    3 1.00
             18.731137    0.03349459952309
             2.8253937    0.23472694665786
             0.6401217    0.81375731841339
 s    1 1.00
             0.1612778                   1

42 0
 s    6 1.00
             5484.6717   0.001831099805527
             825.23495   0.013950098518422
             188.04696    0.06844509273075
               52.9645    0.23271427528445
              16.89757    0.47019295006289
             5.7996353    0.35852086192309
 s    3 1.00
             15.539616   -0.11077750382508
             3.5999336   -0.14802630511126
             1.0137618     1.1307670390447
 s    1 1.00
             0.2700058                   1
 p    3 1.00
             15.539616   0.070874299543311
             3.5999336    0.33975279781076
             1.0137618    0.72715859531445
 p    1 1.00
             0.2700058                   1
 d    1 1.00
                   0.8                   1

43 0
 s    3 1.00
             18.731137    0.03349459952309
             2.8253937    0.23472694665786
             0.6401217    0.81375731841339
 s    1 1.00
             0.1612778                   1

[5d]
[7f]
[9g]

[MO]
 Sym= A
 Ene=               0
 Spin= Alpha
 Occup=    1.00000
   1    3.3316718751186e-07
   2    2.3713109355112e-05
   3    -0.0001141598209988
   4    2.9061380227016e-06
   5    -1.1500782268252e-05
   6    -1.741131308636e-05
   7    4.0152062480956e-05
   8    1.2966661981795e-05
   9    0.00025014074027373
  10    2.0301630094449e-06
  11    -8.9145694652994e-06
  12    -4.0604939870611e-06
  13    -1.2461986444537e-05
  14    6.7028420747108e-06
  15    8.1489491731746e-06
  16    -3.0922747136643e-05
  17    -2.2998914869655e-06
  18    -0.00014535598408642
  19    -0.00062116825100627
  20    -5.2558466727028e-05
  21    1.4925765782836e-05
  22    8.2417669216799e-05
  23    -0.00017181224241327
  24    4.2894243070101e-05
  25    0.00073336490843583
  26    -2.618608625143e-05
  27    2.3462107668609e-05
  28    1.3083226055041e-06
  29    -4.4349040321469e-05
  30    1.8585082930988e-05
  31    7.1940976004414e-06
  32    -1.4702447735683e-05
  33    -7.0041105850648e-05
  34    -0.00035129369457563
  35    0.0047102305564599
  36    7.4170311432303e-05
  37    -4.6638944459984e-05
  38    -0.00018259296040526
  39    -9.6624790833738e-05
  40    -0.0019832503558328
  41    -0.00086710932841792
  42    6.5233649406268e-05
  43    -8.8712746514459e-05
  44    9.6612420913939e-05
  45    -4.4600770220804e-05
  46    -1.1939668133365e-05
  47    4.6222781207518e-06
  48    0.00028482270009372
  49    1.9302536293212e-05
  50    -0.00018157557825198
  51    -0.0037884367015563
  52    -0.00012997119349256
  53    0.00024559360721733
  54    0.00037935374663403
  55    0.00085691280167766
  56    -0.0026422327753517
  57    -0.0028803559236304
  58    -2.2024161512029e-05
  59    -6.718932701183e-05
  60    -0.00019672619314428
  61    -2.110523273933e-06
  62    0.00012427824135732
  63    -0.00032775284771766
  64    -9.243612922929e-05
  65    2.3131929789865e-07
  66    5.6789520376882e-07
  67    3.8103852777229e-08
  68    3.7543029922647e-07
  69    -3.0329412145766e-06
  70    -1.9225553775358e-07
  71    2.5679250135335e-07
  72    -1.7268587858855e-08
  73    1.1172972128767e-08
  74    -1.3183518608653e-06
  75    -5.4622053577386e-07
  76    6.2686999641354e-08
  77    1.244621559204e-07
  78    -3.9349586300698e-08
  79    -6.869302677984e-08
  80    9.5868611979813e-08
  81    -4.5918442993234e-08
  82    1.2478436066335e-08
  83    1.7441161017379e-08
  84    1.419153379712e-07
  85    9.2261700797722e-06
  86    -4.0070378763763e-07
  87    -1.5433781104415e-07
  88    -5.7015678970742e-07
  89    -2.6843186499231e-06
  90    3.6948233528036e-06
  91    -1.8977624458984e-06
  92    -1.6084445682262e-07
  93    2.253754988126e-07
  94    -1.875913324693e-07
  95    -2.580380665325e-08
  96    1.4063148669255e-07
  97    -3.266508490545e-07
  98    -4.3585028994413e-07
  99    9.9339875548835e-09
 100    7.8527989491972e-07
 101    8.9619328140065e-09
 102    1.2274280992334e-06
 103    -1.0477220284105e-05
 104    -5.1354338881242e-07
 105    2.8072135625679e-07
 106    1.4912746579609e-07
 107    1.4254571958755e-05
 108    -1.2795864874328e-05
 109    -2.204575082839e-05
 110    5.4098508841478e-07
 111    4.9837601824753e-07
 112    -2.454399621044e-07
 113    -5.9659811446764e-07
 114    2.8628724480505e-07
 115    4.9146210278794e-07
 116    4.531181755318e-06
 117    -3.2467077678276e-05
 118    5.4671455991802e-07
 119    -9.6617479435869e-07
 120    -6.8723654019926e-07
 121    6.4029055641097e-06
 122    5.5204186904809e-08
 123    9.2110897575055e-07
 124    5.5381341017623e-08
 125    -2.936959116891e-09
 126    1.3064306764051e-07
 127    5.0962518359016e-08
 128    2.3224487783231e-07
 129    7.6572276564012e-07
 130    8.1822804707057e-06
 131    -3.1912008292764e-05
 132    5.3803006438758e-07
 133    1.6480946168643e-06
 134    -3.7995206134404e-06
 135    1.5198494905473e-05
 136    -4.2598450280935e-06
 137    5.8806909048983e-05
 138    -1.9607719963597e-06
 139    -9.9867776595313e-07
 140    -1.3251545177686e-07
 141    -3.7331988675969e-07
 142    -6.5363268674993e-08
 143    2.8592877823079e-07
 144    1.6879295151733e-06
 145    -1.2481271460581e-05
 146    -6.0342721838545e-07
 147    -9.1531899757788e-07
 148    4.3413274194819e-07
 149    -8.0884820665326e-06
 150    1.055273584638e-05
 151    -1.6509045866762e-06
 152    8.9167689483371e-07
 153    2.3640625322615e-07
 154    -1.2512143283774e-07
 155    -5.9846421217549e-07
 156    4.1132213701871e-07
 157    5.9321431585616e-08
 158    -3.2392862577474e-07
 159    -5.8506449121074e-06
 160    -7.2697816420782e-07
 161    4.6264383715609e-07
 162    -8.6899197301072e-08
 163    3.7447082407535e-06
 164    1.7969535096925e-06
 165    -4.1755787217833e-07
 166    -1.5932792732972e-07
 167    -5.1242870515713e-08
 168    4.3650759046622e-08
 169    1.5310914079375e-07
 170    -9.1423207283681e-08
 171    -5.6858921413018e-08
 172    4.0691845656941e-07
 173    2.8113947159044e-06
 174    7.6062905902029e-07
 175    1.5271181367978e-07
 176    -5.9333615383478e-07
 177    1.5300615583125e-06
 178    -3.7110827857978e-07
 179    2.680260939502e-06
 180    -1.8776036658218e-07
 181    -3.0320514237613e-08
 182    6.377050501739e-08
 183    3.8913186251811e-07
 184    -4.7910886188457e-08
 185    1.8510590798285e-07
 186    2.1397221751625e-06
 187    -1.6483026262579e-07
 188    9.5748010691777e-08
 189    -1.2917552908657e-07
 190    -9.6758286610595e-07
 191    -2.5649771669502e-06
 192    -2.1781777782302e-06
 193    4.2951758431867e-06
 194    -3.4280954039321e-07
 195    1.1401833345861e-07
 196    7.7349015147171e-08
 197    -6.2053816084839e-08
 198    1.0350622248671e-07
 199    6.1219740018099e-07
 200    1.6813781990367e-06
 201    -1.893745813596e-07
 202    -2.9591622097853e-06
 203    1.5257027735881e-06
 204    1.660274751664e-06
 205    6.1897888388479e-07
 206    2.3027314047924e-06
 207    -1.9685712840627e-06
 208    1.5707937788004e-05
 209    -6.5011575866069e-07
 210    3.5847779791119e-06
 211    -7.3050440291547e-08
 212    -2.0348550285171e-06
 213    3.061059495275e-07
 214    1.8605016186723e-06
 215    2.8070849614963e-07
 216    1.2626224028384e-06
 217    -3.6192500690001e-07
 218    -1.1835952038652e-06
 219    -7.7116528259387e-08
 220    -1.1416542191759e-06
 221    5.3661386933752e-07
 222    5.6170633730075e-06
 223    1.4862196765311e-05
 224    2.5247937959358e-07
 225    1.1277895095543e-06
 226    -2.0768392650608e-06
 227    -1.6438285873228e-05
 228    -1.5577127250885e-05
 229    5.1269796380426e-05
 230    1.5137637550745e-06
 231    2.3816787448833e-06
 232    1.5148214611946e-06
 233    -1.1641126465682e-06
 234    -2.4642531615463e-06
 235    1.807003358249e-06
 236    1.6917968468407e-05
 237    -0.00010199540750765
 238    1.3237642614055e-06
 239    -5.4560746216014e-06
 240    -3.32451154677e-06
 241    3.784599820479e-05
 242    1.4522418252111e-05
 243    0.0001065986216608
 244    -4.6533668044174e-06
 245    -5.9603069918667e-06
 246    -2.1149936777659e-06
 247    -2.2355198340429e-06
 248    -2.8058321850317e-06
 249    1.5771161461485e-06
 250    -1.2821142401187e-05
 251    2.8412372907167e-06
 252    1.8289485275418e-05
 253    -5.6853285955517e-05
 254    -6.3641604705278e-06
 255    1.1229811933281e-05
 256    -8.7953074037571e-06
 257    -2.8446827964927e-05
 258    -0.00010880382377525
 259    0.00020232818110285
 260    1.9135091814246e-06
 261    9.5263686993921e-06
 262    5.7974164884303e-06
 263    -4.4988117785156e-06
 264    -7.9600605546323e-06
 265    4.6545630750556e-06
 266    -2.5068241836928e-05
 267    1.0144122920463e-05
 268    -3.0931541072872e-05
 269    7.2638727445605e-05
 270    9.6457463621779e-05
 271    -0.0032757626172342
 272    8.089381046062e-05
 273    0.00021405465136319
 274    -2.1602657748544e-05
 275    -0.0020609345526625
 276    -0.00064533109756289
 277    0.0036263069338347
 278    -0.00029977572414744
 279    0.00018289345805009
 280    -0.00012241951347029