[Molden Format]
made by pyscf v[2.0.1]
[Atoms] (AU)
C   1   6     0.69100024066471     0.64692934207205    -3.48223131169301
H   2   1     2.68052439830868     1.13355088658700    -3.25784032593313
C   3   6    -0.36286361513219     0.85440132524594    -5.97030179418974
H   4   1    -2.35448549047279     0.36322488579172    -6.17995817793143
C   5   6     0.93697958957450     1.61209284601821    -8.05828437677121
H   6   1     0.85962833397368     3.59050820045091    -8.62470494839578
C   7   6     2.42635389771936    -0.06497183323565    -9.58324401854610
H   8   1     2.48676726707897    -2.04132781761705    -8.99156043119802
H   9   1     1.55630230933075    -1.92953025305990    12.99630010416247
C   10   6     0.75233899775814    -2.21270439606481    11.10705728102219
H   11   1    -0.43433408177274    -3.90944857546550    11.22216085340412
C   12   6     2.86362581178706    -2.63237380607947     9.17926416456045
H   13   1     4.39038949912609    -1.24955421540245     9.49899813497433
H   14   1     3.74629220191363    -4.48798724300892     9.47414880959024
C   15   6     2.02478325613682    -2.42177285709634     6.44560829588644
C   16   6     3.88048732735477    -3.58795445234514     4.61402886975252
C   17   6    -0.18412382258602    -1.30464291234259     5.76021113872346
C   18   6    -2.10044360464350    -0.26837831858460     7.71610340967100
C   19   6    -3.08956938670431     2.35282328359417     6.88693925039594
C   20   6    -4.37372924086464    -2.09766595989678     7.93610724222001
C   21   6    -0.83850430601230     0.06372213486173    10.33002307638377
H   22   1     0.38411922151109     1.74281358582432    10.27380136542181
H   23   1    -2.30980003007874     0.45460143924521    11.73986301809809
H   24   1     4.58527064644668    -5.38706904487420     5.36778158031719
H   25   1     5.54944938085014    -2.37631462192748     4.35398898413318
H   26   1     3.06633019150423    -3.94118377050688     2.75255466040884
H   27   1    -4.17727778763735     2.26573369139522     5.12914900961283
H   28   1    -1.52662344944051     3.68001877445626     6.59540397144508
H   29   1    -4.32916174397830     3.13643051467482     8.35225460090378
H   30   1    -5.32329548508442    -2.36691813602939     6.11583672749896
H   31   1    -5.77989366602257    -1.33896741843465     9.25748940450990
H   32   1    -3.79310905208926    -3.96389819310853     8.61386170102686
C   33   6    -1.01100794811226    -1.06331657314144     3.11929490449947
C   34   6     0.37686231036534    -0.33275864505552     1.09165013605873
H   35   1    -3.01671213906703    -1.40297922279997     2.77827895090944
C   36   6    -0.64382707979370    -0.11591880174385    -1.42063131251064
H   37   1     2.35569259782137     0.17174499283897     1.33641070251401
H   38   1    -2.63317482980319    -0.60229203511219    -1.66119700387645
C   39   6     3.74832505967432     0.60333842975764   -11.67668310140841
C   40   6     5.21001738076888    -1.24955999097241   -13.10400422335708
H   41   1     3.76814643119893     2.53960520723023   -12.36823673003836
O   42   8     6.43815552067501    -0.78092818090474   -14.99949494178040
H   43   1     5.13629360998863    -3.20740752771493   -12.32839043702936
[GTO]
1 0
 s    6 1.00
             3047.5249  0.0018347001629433
             457.36951    0.01403730124668
             103.94869   0.068842606114048
             29.210155    0.23218442062076
              9.286663    0.46794134155879
              3.163927    0.36231203217765
 s    3 1.00
             7.8682724   -0.11933240861517
             1.8812885   -0.16085421161283
             0.5442493     1.1434564825515
 s    1 1.00
             0.1687144                   1
 p    3 1.00
             7.8682724   0.068999095584993
             1.8812885    0.31642397975315
             0.5442493    0.74430825237435
 p    1 1.00
             0.1687144                   1
 d    1 1.00
                   0.8                   1

2 0
 s    3 1.00
             18.731137    0.03349459952309
             2.8253937    0.23472694665786
             0.6401217    0.81375731841339
 s    1 1.00
             0.1612778                   1

3 0
 s    6 1.00
             3047.5249  0.0018347001629433
             457.36951    0.01403730124668
             103.94869   0.068842606114048
             29.210155    0.23218442062076
              9.286663    0.46794134155879
              3.163927    0.36231203217765
 s    3 1.00
             7.8682724   -0.11933240861517
             1.8812885   -0.16085421161283
             0.5442493     1.1434564825515
 s    1 1.00
             0.1687144                   1
 p    3 1.00
             7.8682724   0.068999095584993
             1.8812885    0.31642397975315
             0.5442493    0.74430825237435
 p    1 1.00
             0.1687144                   1
 d    1 1.00
                   0.8                   1

4 0
 s    3 1.00
             18.731137    0.03349459952309
             2.8253937    0.23472694665786
             0.6401217    0.81375731841339
 s    1 1.00
             0.1612778                   1

5 0
 s    6 1.00
             3047.5249  0.0018347001629433
             457.36951    0.01403730124668
             103.94869   0.068842606114048
             29.210155    0.23218442062076
              9.286663    0.46794134155879
              3.163927    0.36231203217765
 s    3 1.00
             7.8682724   -0.11933240861517
             1.8812885   -0.16085421161283
             0.5442493     1.1434564825515
 s    1 1.00
             0.1687144                   1
 p    3 1.00
             7.8682724   0.068999095584993
             1.8812885    0.31642397975315
             0.5442493    0.74430825237435
 p    1 1.00
             0.1687144                   1
 d    1 1.00
                   0.8                   1

6 0
 s    3 1.00
             18.731137    0.03349459952309
             2.8253937    0.23472694665786
             0.6401217    0.81375731841339
 s    1 1.00
             0.1612778                   1

7 0
 s    6 1.00
             3047.5249  0.0018347001629433
             457.36951    0.01403730124668
             103.94869   0.068842606114048
             29.210155    0.23218442062076
              9.286663    0.46794134155879
              3.163927    0.36231203217765
 s    3 1.00
             7.8682724   -0.11933240861517
             1.8812885   -0.16085421161283
             0.5442493     1.1434564825515
 s    1 1.00
             0.1687144                   1
 p    3 1.00
             7.8682724   0.068999095584993
             1.8812885    0.31642397975315
             0.5442493    0.74430825237435
 p    1 1.00
             0.1687144                   1
 d    1 1.00
                   0.8                   1

8 0
 s    3 1.00
             18.731137    0.03349459952309
             2.8253937    0.23472694665786
             0.6401217    0.81375731841339
 s    1 1.00
             0.1612778                   1

9 0
 s    3 1.00
             18.731137    0.03349459952309
             2.8253937    0.23472694665786
             0.6401217    0.81375731841339
 s    1 1.00
             0.1612778                   1

10 0
 s    6 1.00
             3047.5249  0.0018347001629433
             457.36951    0.01403730124668
             103.94869   0.068842606114048
             29.210155    0.23218442062076
              9.286663    0.46794134155879
              3.163927    0.36231203217765
 s    3 1.00
             7.8682724   -0.11933240861517
             1.8812885   -0.16085421161283
             0.5442493     1.1434564825515
 s    1 1.00
             0.1687144                   1
 p    3 1.00
             7.8682724   0.068999095584993
             1.8812885    0.31642397975315
             0.5442493    0.74430825237435
 p    1 1.00
             0.1687144                   1
 d    1 1.00
                   0.8                   1

11 0
 s    3 1.00
             18.731137    0.03349459952309
             2.8253937    0.23472694665786
             0.6401217    0.81375731841339
 s    1 1.00
             0.1612778                   1

12 0
 s    6 1.00
             3047.5249  0.0018347001629433
             457.36951    0.01403730124668
             103.94869   0.068842606114048
             29.210155    0.23218442062076
              9.286663    0.46794134155879
              3.163927    0.36231203217765
 s    3 1.00
             7.8682724   -0.11933240861517
             1.8812885   -0.16085421161283
             0.5442493     1.1434564825515
 s    1 1.00
             0.1687144                   1
 p    3 1.00
             7.8682724   0.068999095584993
             1.8812885    0.31642397975315
             0.5442493    0.74430825237435
 p    1 1.00
             0.1687144                   1
 d    1 1.00
                   0.8                   1

13 0
 s    3 1.00
             18.731137    0.03349459952309
             2.8253937    0.23472694665786
             0.6401217    0.81375731841339
 s    1 1.00
             0.1612778                   1

14 0
 s    3 1.00
             18.731137    0.03349459952309
             2.8253937    0.23472694665786
             0.6401217    0.81375731841339
 s    1 1.00
             0.1612778                   1

15 0
 s    6 1.00
             3047.5249  0.0018347001629433
             457.36951    0.01403730124668
             103.94869   0.068842606114048
             29.210155    0.23218442062076
              9.286663    0.46794134155879
              3.163927    0.36231203217765
 s    3 1.00
             7.8682724   -0.11933240861517
             1.8812885   -0.16085421161283
             0.5442493     1.1434564825515
 s    1 1.00
             0.1687144                   1
 p    3 1.00
             7.8682724   0.068999095584993
             1.8812885    0.31642397975315
             0.5442493    0.74430825237435
 p    1 1.00
             0.1687144                   1
 d    1 1.00
                   0.8                   1

16 0
 s    6 1.00
             3047.5249  0.0018347001629433
             457.36951    0.01403730124668
             103.94869   0.068842606114048
             29.210155    0.23218442062076
              9.286663    0.46794134155879
              3.163927    0.36231203217765
 s    3 1.00
             7.8682724   -0.11933240861517
             1.8812885   -0.16085421161283
             0.5442493     1.1434564825515
 s    1 1.00
             0.1687144                   1
 p    3 1.00
             7.8682724   0.068999095584993
             1.8812885    0.31642397975315
             0.5442493    0.74430825237435
 p    1 1.00
             0.1687144                   1
 d    1 1.00
                   0.8                   1

17 0
 s    6 1.00
             3047.5249  0.0018347001629433
             457.36951    0.01403730124668
             103.94869   0.068842606114048
             29.210155    0.23218442062076
              9.286663    0.46794134155879
              3.163927    0.36231203217765
 s    3 1.00
             7.8682724   -0.11933240861517
             1.8812885   -0.16085421161283
             0.5442493     1.1434564825515
 s    1 1.00
             0.1687144                   1
 p    3 1.00
             7.8682724   0.068999095584993
             1.8812885    0.31642397975315
             0.5442493    0.74430825237435
 p    1 1.00
             0.1687144                   1
 d    1 1.00
                   0.8                   1

18 0
 s    6 1.00
             3047.5249  0.0018347001629433
             457.36951    0.01403730124668
             103.94869   0.068842606114048
             29.210155    0.23218442062076
              9.286663    0.46794134155879
              3.163927    0.36231203217765
 s    3 1.00
             7.8682724   -0.11933240861517
             1.8812885   -0.16085421161283
             0.5442493     1.1434564825515
 s    1 1.00
             0.1687144                   1
 p    3 1.00
             7.8682724   0.068999095584993
             1.8812885    0.31642397975315
             0.5442493    0.74430825237435
 p    1 1.00
             0.1687144                   1
 d    1 1.00
                   0.8                   1

19 0
 s    6 1.00
             3047.5249  0.0018347001629433
             457.36951    0.01403730124668
             103.94869   0.068842606114048
             29.210155    0.23218442062076
              9.286663    0.46794134155879
              3.163927    0.36231203217765
 s    3 1.00
             7.8682724   -0.11933240861517
             1.8812885   -0.16085421161283
             0.5442493     1.1434564825515
 s    1 1.00
             0.1687144                   1
 p    3 1.00
             7.8682724   0.068999095584993
             1.8812885    0.31642397975315
             0.5442493    0.74430825237435
 p    1 1.00
             0.1687144                   1
 d    1 1.00
                   0.8                   1

20 0
 s    6 1.00
             3047.5249  0.0018347001629433
             457.36951    0.01403730124668
             103.94869   0.068842606114048
             29.210155    0.23218442062076
              9.286663    0.46794134155879
              3.163927    0.36231203217765
 s    3 1.00
             7.8682724   -0.11933240861517
             1.8812885   -0.16085421161283
             0.5442493     1.1434564825515
 s    1 1.00
             0.1687144                   1
 p    3 1.00
             7.8682724   0.068999095584993
             1.8812885    0.31642397975315
             0.5442493    0.74430825237435
 p    1 1.00
             0.1687144                   1
 d    1 1.00
                   0.8                   1

21 0
 s    6 1.00
             3047.5249  0.0018347001629433
             457.36951    0.01403730124668
             103.94869   0.068842606114048
             29.210155    0.23218442062076
              9.286663    0.46794134155879
              3.163927    0.36231203217765
 s    3 1.00
             7.8682724   -0.11933240861517
             1.8812885   -0.16085421161283
             0.5442493     1.1434564825515
 s    1 1.00
             0.1687144                   1
 p    3 1.00
             7.8682724   0.068999095584993
             1.8812885    0.31642397975315
             0.5442493    0.74430825237435
 p    1 1.00
             0.1687144                   1
 d    1 1.00
                   0.8                   1

22 0
 s    3 1.00
             18.731137    0.03349459952309
             2.8253937    0.23472694665786
             0.6401217    0.81375731841339
 s    1 1.00
             0.1612778                   1

23 0
 s    3 1.00
             18.731137    0.03349459952309
             2.8253937    0.23472694665786
             0.6401217    0.81375731841339
 s    1 1.00
             0.1612778                   1

24 0
 s    3 1.00
             18.731137    0.03349459952309
             2.8253937    0.23472694665786
             0.6401217    0.81375731841339
 s    1 1.00
             0.1612778                   1

25 0
 s    3 1.00
             18.731137    0.03349459952309
             2.8253937    0.23472694665786
             0.6401217    0.81375731841339
 s    1 1.00
             0.1612778                   1

26 0
 s    3 1.00
             18.731137    0.03349459952309
             2.8253937    0.23472694665786
             0.6401217    0.81375731841339
 s    1 1.00
             0.1612778                   1

27 0
 s    3 1.00
             18.731137    0.03349459952309
             2.8253937    0.23472694665786
             0.6401217    0.81375731841339
 s    1 1.00
             0.1612778                   1

28 0
 s    3 1.00
             18.731137    0.03349459952309
             2.8253937    0.23472694665786
             0.6401217    0.81375731841339
 s    1 1.00
             0.1612778                   1

29 0
 s    3 1.00
             18.731137    0.03349459952309
             2.8253937    0.23472694665786
             0.6401217    0.81375731841339
 s    1 1.00
             0.1612778                   1

30 0
 s    3 1.00
             18.731137    0.03349459952309
             2.8253937    0.23472694665786
             0.6401217    0.81375731841339
 s    1 1.00
             0.1612778                   1

31 0
 s    3 1.00
             18.731137    0.03349459952309
             2.8253937    0.23472694665786
             0.6401217    0.81375731841339
 s    1 1.00
             0.1612778                   1

32 0
 s    3 1.00
             18.731137    0.03349459952309
             2.8253937    0.23472694665786
             0.6401217    0.81375731841339
 s    1 1.00
             0.1612778                   1

33 0
 s    6 1.00
             3047.5249  0.0018347001629433
             457.36951    0.01403730124668
             103.94869   0.068842606114048
             29.210155    0.23218442062076
              9.286663    0.46794134155879
              3.163927    0.36231203217765
 s    3 1.00
             7.8682724   -0.11933240861517
             1.8812885   -0.16085421161283
             0.5442493     1.1434564825515
 s    1 1.00
             0.1687144                   1
 p    3 1.00
             7.8682724   0.068999095584993
             1.8812885    0.31642397975315
             0.5442493    0.74430825237435
 p    1 1.00
             0.1687144                   1
 d    1 1.00
                   0.8                   1

34 0
 s    6 1.00
             3047.5249  0.0018347001629433
             457.36951    0.01403730124668
             103.94869   0.068842606114048
             29.210155    0.23218442062076
              9.286663    0.46794134155879
              3.163927    0.36231203217765
 s    3 1.00
             7.8682724   -0.11933240861517
             1.8812885   -0.16085421161283
             0.5442493     1.1434564825515
 s    1 1.00
             0.1687144                   1
 p    3 1.00
             7.8682724   0.068999095584993
             1.8812885    0.31642397975315
             0.5442493    0.74430825237435
 p    1 1.00
             0.1687144                   1
 d    1 1.00
                   0.8                   1

35 0
 s    3 1.00
             18.731137    0.03349459952309
             2.8253937    0.23472694665786
             0.6401217    0.81375731841339
 s    1 1.00
             0.1612778                   1

36 0
 s    6 1.00
             3047.5249  0.0018347001629433
             457.36951    0.01403730124668
             103.94869   0.068842606114048
             29.210155    0.23218442062076
              9.286663    0.46794134155879
              3.163927    0.36231203217765
 s    3 1.00
             7.8682724   -0.11933240861517
             1.8812885   -0.16085421161283
             0.5442493     1.1434564825515
 s    1 1.00
             0.1687144                   1
 p    3 1.00
             7.8682724   0.068999095584993
             1.8812885    0.31642397975315
             0.5442493    0.74430825237435
 p    1 1.00
             0.1687144                   1
 d    1 1.00
                   0.8                   1

37 0
 s    3 1.00
             18.731137    0.03349459952309
             2.8253937    0.23472694665786
             0.6401217    0.81375731841339
 s    1 1.00
             0.1612778                   1

38 0
 s    3 1.00
             18.731137    0.03349459952309
             2.8253937    0.23472694665786
             0.6401217    0.81375731841339
 s    1 1.00
             0.1612778                   1

39 0
 s    6 1.00
             3047.5249  0.0018347001629433
             457.36951    0.01403730124668
             103.94869   0.068842606114048
             29.210155    0.23218442062076
              9.286663    0.46794134155879
              3.163927    0.36231203217765
 s    3 1.00
             7.8682724   -0.11933240861517
             1.8812885   -0.16085421161283
             0.5442493     1.1434564825515
 s    1 1.00
             0.1687144                   1
 p    3 1.00
             7.8682724   0.068999095584993
             1.8812885    0.31642397975315
             0.5442493    0.74430825237435
 p    1 1.00
             0.1687144                   1
 d    1 1.00
                   0.8                   1

40 0
 s    6 1.00
             3047.5249  0.0018347001629433
             457.36951    0.01403730124668
             103.94869   0.068842606114048
             29.210155    0.23218442062076
              9.286663    0.46794134155879
              3.163927    0.36231203217765
 s    3 1.00
             7.8682724   -0.11933240861517
             1.8812885   -0.16085421161283
             0.5442493     1.1434564825515
 s    1 1.00
             0.1687144                   1
 p    3 1.00
             7.8682724   0.068999095584993
             1.8812885    0.31642397975315
             0.5442493    0.74430825237435
 p    1 1.00
             0.1687144                   1
 d    1 1.00
                   0.8                   1

41 0
 s    3 1.00
             18.731137    0.03349459952309
             2.8253937    0.23472694665786
             0.6401217    0.81375731841339
 s    1 1.00
             0.1612778                   1

42 0
 s    6 1.00
             5484.6717   0.001831099805527
             825.23495   0.013950098518422
             188.04696    0.06844509273075
               52.9645    0.23271427528445
              16.89757    0.47019295006289
             5.7996353    0.35852086192309
 s    3 1.00
             15.539616   -0.11077750382508
             3.5999336   -0.14802630511126
             1.0137618     1.1307670390447
 s    1 1.00
             0.2700058                   1
 p    3 1.00
             15.539616   0.070874299543311
             3.5999336    0.33975279781076
             1.0137618    0.72715859531445
 p    1 1.00
             0.2700058                   1
 d    1 1.00
                   0.8                   1

43 0
 s    3 1.00
             18.731137    0.03349459952309
             2.8253937    0.23472694665786
             0.6401217    0.81375731841339
 s    1 1.00
             0.1612778                   1

[5d]
[7f]
[9g]

[MO]
 Sym= A
 Ene=               0
 Spin= Alpha
 Occup=    1.00000
   1    -1.2929859287379e-06
   2    -1.484358177377e-05
   3    -5.6372981064262e-05
   4    -1.9558162938297e-06
   5    -1.4571858685893e-05
   6    1.1954284423895e-05
   7    5.2198190265286e-05
   8    0.00013438140514857
   9    -0.00038527591706881
  10    -1.8146986709052e-07
  11    1.0573549141457e-05
  12    1.1487159210802e-06
  13    1.4671354995595e-05
  14    -8.3200451767647e-06
  15    -1.5050613420005e-05
  16    9.3176859091505e-06
  17    4.7795966100865e-06
  18     0.000170961312432
  19    0.00048210495334644
  20    6.6173158724159e-05
  21    -6.383826210739e-06
  22    -8.15881479782e-05
  23    0.00022505061653867
  24    -0.00012682120866587
  25    -0.00060175048026001
  26    2.3249095170654e-05
  27    -2.5204508392676e-05
  28    1.4336541076202e-05
  29    4.2989152073628e-05
  30    4.065134123833e-06
  31    -1.6167562435981e-05
  32    3.3963025878888e-05
  33    7.0998772821876e-05
  34    0.00036750423573401
  35    -0.0046604462138895
  36    -0.0001267250123968
  37    4.4799081423717e-05
  38    0.00015831038203824
  39    -0.00076787385856081
  40     0.002017338877287
  41    0.00039769572809032
  42    -1.2363343752589e-05
  43    0.00011841275040102
  44    -5.8115059125244e-05
  45    1.6794521270616e-05
  46    7.4234504270117e-05
  47    -6.9313295514334e-06
  48    -0.00028532496617632
  49    -1.9550045214019e-05
  50    0.00018024069154791
  51    0.0037961844918537
  52    0.00027521780133429
  53    -0.00024784640085251
  54    -0.00029079926213623
  55    -0.0021528953467749
  56     0.002669043108795
  57     0.002127572147178
  58    -4.4588071123225e-05
  59    2.798788309617e-05
  60    0.00019852636771932
  61    4.0699433152894e-05
  62    -0.00012417166311036
  63    0.0003265423521181
  64    9.2672532230832e-05
  65    -2.2855061472258e-07
  66    -4.9826781052336e-07
  67    -6.8487067522714e-08
  68    -5.2850917542303e-07
  69    3.0339821554562e-06
  70    3.033494670824e-07
  71    -4.0608090851434e-07
  72    1.2288854168909e-07
  73    3.7444937011385e-07
  74    1.4460952198566e-06
  75    1.6395585260495e-07
  76    -6.2644953592825e-08
  77    -1.4071314536228e-07
  78    4.581906761371e-08
  79    6.2244395526682e-08
  80    -1.2364804137352e-07
  81    9.8737039699714e-08
  82    -2.937547376886e-10
  83    -3.4612359820591e-08
  84    -2.350478166732e-07
  85    -1.4608506651902e-05
  86    6.5573054281181e-07
  87    -3.3263085723547e-09
  88    7.8609062512799e-07
  89    3.4967346619916e-06
  90    -4.6753378096613e-06
  91    3.4871290208812e-06
  92    2.101342801266e-07
  93    -3.4033773734453e-07
  94    3.2414899853544e-07
  95    4.8951797586966e-08
  96    -2.1766689026041e-07
  97    4.2057732987442e-07
  98    5.9687002640766e-08
  99    1.7621879661852e-07
 100    -7.1318737060723e-07
 101    7.9341478161884e-08
 102    -9.6727911318464e-07
 103    1.0681131069653e-05
 104    1.2638628820158e-06
 105    9.9351206352828e-08
 106    -6.3170075536743e-07
 107    -1.9804187728455e-05
 108    2.0578179134823e-05
 109    3.5514844175942e-05
 110    -6.4492632345767e-07
 111    -6.1171496153962e-07
 112    2.8141052522781e-07
 113    3.2405599306967e-07
 114    -5.2589867427499e-07
 115    -5.3071212409167e-07
 116    -4.8238896920273e-06
 117    3.9984175804475e-05
 118    -7.5458599218118e-07
 119    1.0335585936657e-06
 120    8.2491174406436e-07
 121    -9.8665361984445e-06
 122    2.0644349265737e-06
 123    3.6622206701678e-06
 124    -1.0334567069613e-07
 125    -2.4960462477959e-07
 126    -5.6928691578138e-08
 127    1.2575570114407e-07
 128    -4.61093595172e-07
 129    -1.0371017379231e-06
 130    -9.5720994970253e-06
 131    5.9426177242572e-05
 132    -4.1648868814298e-07
 133    -1.009639486611e-06
 134    3.8300737852422e-06
 135    -2.4456052010501e-05
 136    -2.3931023072109e-06
 137    -9.2532973587364e-05
 138    2.8151529233195e-06
 139    1.7528693354635e-06
 140    3.830769134781e-07
 141    5.1892424921158e-07
 142    1.002221917321e-07
 143    -6.4205151450575e-07
 144    -4.4977835925073e-06
 145    2.6234961257061e-05
 146    5.5565054736722e-07
 147    5.0136124794324e-07
 148    -6.0120832459384e-08
 149    1.5178118454317e-05
 150    -6.3331096168826e-06
 151    -4.3315260732421e-06
 152    -1.0837840067873e-06
 153    -4.3138503711204e-07
 154    -9.9185170023966e-08
 155    7.7249146520338e-07
 156    -9.097740196778e-07
 157    1.0710500829046e-08
 158    1.1963446536744e-06
 159    4.7241134557034e-07
 160    7.7562891609801e-07
 161    -2.7873507981746e-07
 162    -3.5449233210049e-07
 163    -7.4744255578961e-06
 164    6.280847281913e-07
 165    8.7791313470177e-07
 166    5.1092996212293e-07
 167    -2.0630578639515e-07
 168    9.4745728057831e-09
 169    -1.2460686104886e-07
 170    3.528090685816e-07
 171    7.1534612546617e-08
 172    -6.0986455894928e-07
 173    -1.2236693338432e-06
 174    -8.9466754504919e-07
 175    -3.1742805182776e-07
 176    8.6381774008286e-07
 177    -5.0302530325092e-07
 178    1.7997592815041e-06
 179    -1.8588590009624e-06
 180    1.3928611233453e-07
 181    1.8435886466494e-07
 182    6.093960383079e-08
 183    -4.113974916108e-07
 184    1.8414034461708e-07
 185    -2.9274023607101e-07
 186    -3.2691984371701e-06
 187    1.4059202696603e-06
 188    -1.6006929350744e-07
 189    1.7541868858644e-07
 190    1.4338971970332e-06
 191    2.6427805561761e-06
 192    6.8162092532942e-07
 193    -5.3926380363804e-06
 194    3.0802406205402e-07
 195    -7.2498382311262e-08
 196    2.2735079066468e-07
 197    1.1625127951097e-07
 198    -1.2259589857035e-07
 199    -8.1471531877668e-07
 200    -1.4022739780282e-06
 201    1.6692450903197e-07
 202    3.9186125694669e-06
 203    -1.6225245814599e-06
 204    -1.3149307158408e-06
 205    -5.9163300016907e-07
 206    -3.0699080892214e-06
 207    1.1280681938014e-06
 208    -1.0957200030532e-05
 209    1.3397430752676e-06
 210    -4.9301531631898e-06
 211    6.0423882258305e-07
 212    3.0256118728203e-06
 213    -4.4599902215699e-07
 214    -2.8667149424938e-06
 215    -5.5954426050623e-07
 216    4.1463977926487e-07
 217    4.1563016238883e-07
 218    1.1802739671981e-06
 219    2.8271131337406e-07
 220    1.1176992326427e-06
 221    -7.4481243242795e-07
 222    -8.2502581067782e-06
 223    -1.6301822554364e-05
 224    1.4370410852584e-06
 225    -4.2402156833836e-06
 226    3.5378410471841e-06
 227    8.9006790129078e-06
 228    2.6544365854582e-05
 229    -0.00010540535304203
 230    -1.3361720679243e-06
 231    -4.5048027296186e-06
 232    -2.1167018168552e-06
 233    1.9298551297889e-06
 234    2.9935863910966e-06
 235    -9.6643625850718e-07
 236    -1.1315748918868e-05
 237    2.4014543734393e-05
 238    -1.5420501096101e-06
 239    6.4772443245262e-06
 240    5.7044287464631e-06
 241    -2.6147071574325e-05
 242    -5.1850798942864e-06
 243    -8.7663078088269e-05
 244    1.1433586871556e-06
 245    7.2199866473127e-06
 246    1.3285221706935e-06
 247    2.8273190640839e-06
 248    1.103550504784e-06
 249    -5.0586423527031e-06
 250    1.1130087669208e-05
 251    -4.6395290541811e-06
 252    -3.5548341823796e-05
 253    0.00029854824699081
 254    4.1712044633316e-07
 255    -4.5041899401895e-06
 256    8.6641439611567e-06
 257    0.00012277516771589
 258    0.00010276139436853
 259    -0.00026990016126865
 260    3.1869735526324e-06
 261    -1.3608498755795e-05
 262    -4.8980538675656e-06
 263    9.0347777438526e-06
 264    4.8851588232438e-06
 265    -4.0233947495996e-06
 266    3.0320406771573e-05
 267    -8.9635678819359e-06
 268    3.8074853396185e-05
 269    -7.2947488177543e-05
 270    -9.9305211287447e-05
 271    0.0033015266205636
 272    1.689117906404e-05
 273    -0.00021452900990844
 274    8.1931149960868e-05
 275    0.0023081682393013
 276    0.00063163233958458
 277    -0.0034518054763823
 278    0.00019478944152501
 279    -0.00024416357701224
 280    0.00017583424610215