[Molden Format]
made by pyscf v[2.0.1]
[Atoms] (AU)
C   1   6     0.69100024066471     0.64692934207205    -3.48223131169301
H   2   1     2.68052439830868     1.13355088658700    -3.25784032593313
C   3   6    -0.36286361513219     0.85440132524594    -5.97030179418974
H   4   1    -2.35448549047279     0.36322488579172    -6.17995817793143
C   5   6     0.93697958957450     1.61209284601821    -8.05828437677121
H   6   1     1.11826626333964     3.62551264984471    -8.45099117670825
C   7   6     2.10097243920823    -0.10888483292738    -9.80174075747215
H   8   1     1.90436861547379    -2.12023320363586    -9.38275759847606
H   9   1     1.55630230933075    -1.92953025305990    12.99630010416247
C   10   6     0.75233899775814    -2.21270439606481    11.10705728102219
H   11   1    -0.43433408177274    -3.90944857546550    11.22216085340412
C   12   6     2.86362581178706    -2.63237380607947     9.17926416456045
H   13   1     4.39038949912609    -1.24955421540245     9.49899813497433
H   14   1     3.74629220191363    -4.48798724300892     9.47414880959024
C   15   6     2.02478325613682    -2.42177285709634     6.44560829588644
C   16   6     3.88048732735477    -3.58795445234514     4.61402886975252
C   17   6    -0.18412382258602    -1.30464291234259     5.76021113872346
C   18   6    -2.10044360464350    -0.26837831858460     7.71610340967100
C   19   6    -3.08956938670431     2.35282328359417     6.88693925039594
C   20   6    -4.37372924086464    -2.09766595989678     7.93610724222001
C   21   6    -0.83850430601230     0.06372213486173    10.33002307638377
H   22   1     0.38411922151109     1.74281358582432    10.27380136542181
H   23   1    -2.30980003007874     0.45460143924521    11.73986301809809
H   24   1     4.58527064644668    -5.38706904487420     5.36778158031719
H   25   1     5.54944938085014    -2.37631462192748     4.35398898413318
H   26   1     3.06633019150423    -3.94118377050688     2.75255466040884
H   27   1    -4.17727778763735     2.26573369139522     5.12914900961283
H   28   1    -1.52662344944051     3.68001877445626     6.59540397144508
H   29   1    -4.32916174397830     3.13643051467482     8.35225460090378
H   30   1    -5.32329548508442    -2.36691813602939     6.11583672749896
H   31   1    -5.77989366602257    -1.33896741843465     9.25748940450990
H   32   1    -3.79310905208926    -3.96389819310853     8.61386170102686
C   33   6    -1.01100794811226    -1.06331657314144     3.11929490449947
C   34   6     0.37686231036534    -0.33275864505552     1.09165013605873
H   35   1    -3.01671213906703    -1.40297922279997     2.77827895090944
C   36   6    -0.64382707979370    -0.11591880174385    -1.42063131251064
H   37   1     2.35569259782137     0.17174499283897     1.33641070251401
H   38   1    -2.63317482980319    -0.60229203511219    -1.66119700387645
C   39   6     3.40965399787931     0.55809653308114   -11.90393532262733
C   40   6     4.52549279160481    -1.34135539088305   -13.56345596406470
H   41   1     3.67536210453709     2.52791097593625   -12.43024189111277
O   42   8     5.72170846290986    -0.87635365493868   -15.48013684009233
H   43   1     4.20717735374393    -3.33265649371778   -12.95224886476863
[GTO]
1 0
 s    6 1.00
             3047.5249  0.0018347001629433
             457.36951    0.01403730124668
             103.94869   0.068842606114048
             29.210155    0.23218442062076
              9.286663    0.46794134155879
              3.163927    0.36231203217765
 s    3 1.00
             7.8682724   -0.11933240861517
             1.8812885   -0.16085421161283
             0.5442493     1.1434564825515
 s    1 1.00
             0.1687144                   1
 p    3 1.00
             7.8682724   0.068999095584993
             1.8812885    0.31642397975315
             0.5442493    0.74430825237435
 p    1 1.00
             0.1687144                   1
 d    1 1.00
                   0.8                   1

2 0
 s    3 1.00
             18.731137    0.03349459952309
             2.8253937    0.23472694665786
             0.6401217    0.81375731841339
 s    1 1.00
             0.1612778                   1

3 0
 s    6 1.00
             3047.5249  0.0018347001629433
             457.36951    0.01403730124668
             103.94869   0.068842606114048
             29.210155    0.23218442062076
              9.286663    0.46794134155879
              3.163927    0.36231203217765
 s    3 1.00
             7.8682724   -0.11933240861517
             1.8812885   -0.16085421161283
             0.5442493     1.1434564825515
 s    1 1.00
             0.1687144                   1
 p    3 1.00
             7.8682724   0.068999095584993
             1.8812885    0.31642397975315
             0.5442493    0.74430825237435
 p    1 1.00
             0.1687144                   1
 d    1 1.00
                   0.8                   1

4 0
 s    3 1.00
             18.731137    0.03349459952309
             2.8253937    0.23472694665786
             0.6401217    0.81375731841339
 s    1 1.00
             0.1612778                   1

5 0
 s    6 1.00
             3047.5249  0.0018347001629433
             457.36951    0.01403730124668
             103.94869   0.068842606114048
             29.210155    0.23218442062076
              9.286663    0.46794134155879
              3.163927    0.36231203217765
 s    3 1.00
             7.8682724   -0.11933240861517
             1.8812885   -0.16085421161283
             0.5442493     1.1434564825515
 s    1 1.00
             0.1687144                   1
 p    3 1.00
             7.8682724   0.068999095584993
             1.8812885    0.31642397975315
             0.5442493    0.74430825237435
 p    1 1.00
             0.1687144                   1
 d    1 1.00
                   0.8                   1

6 0
 s    3 1.00
             18.731137    0.03349459952309
             2.8253937    0.23472694665786
             0.6401217    0.81375731841339
 s    1 1.00
             0.1612778                   1

7 0
 s    6 1.00
             3047.5249  0.0018347001629433
             457.36951    0.01403730124668
             103.94869   0.068842606114048
             29.210155    0.23218442062076
              9.286663    0.46794134155879
              3.163927    0.36231203217765
 s    3 1.00
             7.8682724   -0.11933240861517
             1.8812885   -0.16085421161283
             0.5442493     1.1434564825515
 s    1 1.00
             0.1687144                   1
 p    3 1.00
             7.8682724   0.068999095584993
             1.8812885    0.31642397975315
             0.5442493    0.74430825237435
 p    1 1.00
             0.1687144                   1
 d    1 1.00
                   0.8                   1

8 0
 s    3 1.00
             18.731137    0.03349459952309
             2.8253937    0.23472694665786
             0.6401217    0.81375731841339
 s    1 1.00
             0.1612778                   1

9 0
 s    3 1.00
             18.731137    0.03349459952309
             2.8253937    0.23472694665786
             0.6401217    0.81375731841339
 s    1 1.00
             0.1612778                   1

10 0
 s    6 1.00
             3047.5249  0.0018347001629433
             457.36951    0.01403730124668
             103.94869   0.068842606114048
             29.210155    0.23218442062076
              9.286663    0.46794134155879
              3.163927    0.36231203217765
 s    3 1.00
             7.8682724   -0.11933240861517
             1.8812885   -0.16085421161283
             0.5442493     1.1434564825515
 s    1 1.00
             0.1687144                   1
 p    3 1.00
             7.8682724   0.068999095584993
             1.8812885    0.31642397975315
             0.5442493    0.74430825237435
 p    1 1.00
             0.1687144                   1
 d    1 1.00
                   0.8                   1

11 0
 s    3 1.00
             18.731137    0.03349459952309
             2.8253937    0.23472694665786
             0.6401217    0.81375731841339
 s    1 1.00
             0.1612778                   1

12 0
 s    6 1.00
             3047.5249  0.0018347001629433
             457.36951    0.01403730124668
             103.94869   0.068842606114048
             29.210155    0.23218442062076
              9.286663    0.46794134155879
              3.163927    0.36231203217765
 s    3 1.00
             7.8682724   -0.11933240861517
             1.8812885   -0.16085421161283
             0.5442493     1.1434564825515
 s    1 1.00
             0.1687144                   1
 p    3 1.00
             7.8682724   0.068999095584993
             1.8812885    0.31642397975315
             0.5442493    0.74430825237435
 p    1 1.00
             0.1687144                   1
 d    1 1.00
                   0.8                   1

13 0
 s    3 1.00
             18.731137    0.03349459952309
             2.8253937    0.23472694665786
             0.6401217    0.81375731841339
 s    1 1.00
             0.1612778                   1

14 0
 s    3 1.00
             18.731137    0.03349459952309
             2.8253937    0.23472694665786
             0.6401217    0.81375731841339
 s    1 1.00
             0.1612778                   1

15 0
 s    6 1.00
             3047.5249  0.0018347001629433
             457.36951    0.01403730124668
             103.94869   0.068842606114048
             29.210155    0.23218442062076
              9.286663    0.46794134155879
              3.163927    0.36231203217765
 s    3 1.00
             7.8682724   -0.11933240861517
             1.8812885   -0.16085421161283
             0.5442493     1.1434564825515
 s    1 1.00
             0.1687144                   1
 p    3 1.00
             7.8682724   0.068999095584993
             1.8812885    0.31642397975315
             0.5442493    0.74430825237435
 p    1 1.00
             0.1687144                   1
 d    1 1.00
                   0.8                   1

16 0
 s    6 1.00
             3047.5249  0.0018347001629433
             457.36951    0.01403730124668
             103.94869   0.068842606114048
             29.210155    0.23218442062076
              9.286663    0.46794134155879
              3.163927    0.36231203217765
 s    3 1.00
             7.8682724   -0.11933240861517
             1.8812885   -0.16085421161283
             0.5442493     1.1434564825515
 s    1 1.00
             0.1687144                   1
 p    3 1.00
             7.8682724   0.068999095584993
             1.8812885    0.31642397975315
             0.5442493    0.74430825237435
 p    1 1.00
             0.1687144                   1
 d    1 1.00
                   0.8                   1

17 0
 s    6 1.00
             3047.5249  0.0018347001629433
             457.36951    0.01403730124668
             103.94869   0.068842606114048
             29.210155    0.23218442062076
              9.286663    0.46794134155879
              3.163927    0.36231203217765
 s    3 1.00
             7.8682724   -0.11933240861517
             1.8812885   -0.16085421161283
             0.5442493     1.1434564825515
 s    1 1.00
             0.1687144                   1
 p    3 1.00
             7.8682724   0.068999095584993
             1.8812885    0.31642397975315
             0.5442493    0.74430825237435
 p    1 1.00
             0.1687144                   1
 d    1 1.00
                   0.8                   1

18 0
 s    6 1.00
             3047.5249  0.0018347001629433
             457.36951    0.01403730124668
             103.94869   0.068842606114048
             29.210155    0.23218442062076
              9.286663    0.46794134155879
              3.163927    0.36231203217765
 s    3 1.00
             7.8682724   -0.11933240861517
             1.8812885   -0.16085421161283
             0.5442493     1.1434564825515
 s    1 1.00
             0.1687144                   1
 p    3 1.00
             7.8682724   0.068999095584993
             1.8812885    0.31642397975315
             0.5442493    0.74430825237435
 p    1 1.00
             0.1687144                   1
 d    1 1.00
                   0.8                   1

19 0
 s    6 1.00
             3047.5249  0.0018347001629433
             457.36951    0.01403730124668
             103.94869   0.068842606114048
             29.210155    0.23218442062076
              9.286663    0.46794134155879
              3.163927    0.36231203217765
 s    3 1.00
             7.8682724   -0.11933240861517
             1.8812885   -0.16085421161283
             0.5442493     1.1434564825515
 s    1 1.00
             0.1687144                   1
 p    3 1.00
             7.8682724   0.068999095584993
             1.8812885    0.31642397975315
             0.5442493    0.74430825237435
 p    1 1.00
             0.1687144                   1
 d    1 1.00
                   0.8                   1

20 0
 s    6 1.00
             3047.5249  0.0018347001629433
             457.36951    0.01403730124668
             103.94869   0.068842606114048
             29.210155    0.23218442062076
              9.286663    0.46794134155879
              3.163927    0.36231203217765
 s    3 1.00
             7.8682724   -0.11933240861517
             1.8812885   -0.16085421161283
             0.5442493     1.1434564825515
 s    1 1.00
             0.1687144                   1
 p    3 1.00
             7.8682724   0.068999095584993
             1.8812885    0.31642397975315
             0.5442493    0.74430825237435
 p    1 1.00
             0.1687144                   1
 d    1 1.00
                   0.8                   1

21 0
 s    6 1.00
             3047.5249  0.0018347001629433
             457.36951    0.01403730124668
             103.94869   0.068842606114048
             29.210155    0.23218442062076
              9.286663    0.46794134155879
              3.163927    0.36231203217765
 s    3 1.00
             7.8682724   -0.11933240861517
             1.8812885   -0.16085421161283
             0.5442493     1.1434564825515
 s    1 1.00
             0.1687144                   1
 p    3 1.00
             7.8682724   0.068999095584993
             1.8812885    0.31642397975315
             0.5442493    0.74430825237435
 p    1 1.00
             0.1687144                   1
 d    1 1.00
                   0.8                   1

22 0
 s    3 1.00
             18.731137    0.03349459952309
             2.8253937    0.23472694665786
             0.6401217    0.81375731841339
 s    1 1.00
             0.1612778                   1

23 0
 s    3 1.00
             18.731137    0.03349459952309
             2.8253937    0.23472694665786
             0.6401217    0.81375731841339
 s    1 1.00
             0.1612778                   1

24 0
 s    3 1.00
             18.731137    0.03349459952309
             2.8253937    0.23472694665786
             0.6401217    0.81375731841339
 s    1 1.00
             0.1612778                   1

25 0
 s    3 1.00
             18.731137    0.03349459952309
             2.8253937    0.23472694665786
             0.6401217    0.81375731841339
 s    1 1.00
             0.1612778                   1

26 0
 s    3 1.00
             18.731137    0.03349459952309
             2.8253937    0.23472694665786
             0.6401217    0.81375731841339
 s    1 1.00
             0.1612778                   1

27 0
 s    3 1.00
             18.731137    0.03349459952309
             2.8253937    0.23472694665786
             0.6401217    0.81375731841339
 s    1 1.00
             0.1612778                   1

28 0
 s    3 1.00
             18.731137    0.03349459952309
             2.8253937    0.23472694665786
             0.6401217    0.81375731841339
 s    1 1.00
             0.1612778                   1

29 0
 s    3 1.00
             18.731137    0.03349459952309
             2.8253937    0.23472694665786
             0.6401217    0.81375731841339
 s    1 1.00
             0.1612778                   1

30 0
 s    3 1.00
             18.731137    0.03349459952309
             2.8253937    0.23472694665786
             0.6401217    0.81375731841339
 s    1 1.00
             0.1612778                   1

31 0
 s    3 1.00
             18.731137    0.03349459952309
             2.8253937    0.23472694665786
             0.6401217    0.81375731841339
 s    1 1.00
             0.1612778                   1

32 0
 s    3 1.00
             18.731137    0.03349459952309
             2.8253937    0.23472694665786
             0.6401217    0.81375731841339
 s    1 1.00
             0.1612778                   1

33 0
 s    6 1.00
             3047.5249  0.0018347001629433
             457.36951    0.01403730124668
             103.94869   0.068842606114048
             29.210155    0.23218442062076
              9.286663    0.46794134155879
              3.163927    0.36231203217765
 s    3 1.00
             7.8682724   -0.11933240861517
             1.8812885   -0.16085421161283
             0.5442493     1.1434564825515
 s    1 1.00
             0.1687144                   1
 p    3 1.00
             7.8682724   0.068999095584993
             1.8812885    0.31642397975315
             0.5442493    0.74430825237435
 p    1 1.00
             0.1687144                   1
 d    1 1.00
                   0.8                   1

34 0
 s    6 1.00
             3047.5249  0.0018347001629433
             457.36951    0.01403730124668
             103.94869   0.068842606114048
             29.210155    0.23218442062076
              9.286663    0.46794134155879
              3.163927    0.36231203217765
 s    3 1.00
             7.8682724   -0.11933240861517
             1.8812885   -0.16085421161283
             0.5442493     1.1434564825515
 s    1 1.00
             0.1687144                   1
 p    3 1.00
             7.8682724   0.068999095584993
             1.8812885    0.31642397975315
             0.5442493    0.74430825237435
 p    1 1.00
             0.1687144                   1
 d    1 1.00
                   0.8                   1

35 0
 s    3 1.00
             18.731137    0.03349459952309
             2.8253937    0.23472694665786
             0.6401217    0.81375731841339
 s    1 1.00
             0.1612778                   1

36 0
 s    6 1.00
             3047.5249  0.0018347001629433
             457.36951    0.01403730124668
             103.94869   0.068842606114048
             29.210155    0.23218442062076
              9.286663    0.46794134155879
              3.163927    0.36231203217765
 s    3 1.00
             7.8682724   -0.11933240861517
             1.8812885   -0.16085421161283
             0.5442493     1.1434564825515
 s    1 1.00
             0.1687144                   1
 p    3 1.00
             7.8682724   0.068999095584993
             1.8812885    0.31642397975315
             0.5442493    0.74430825237435
 p    1 1.00
             0.1687144                   1
 d    1 1.00
                   0.8                   1

37 0
 s    3 1.00
             18.731137    0.03349459952309
             2.8253937    0.23472694665786
             0.6401217    0.81375731841339
 s    1 1.00
             0.1612778                   1

38 0
 s    3 1.00
             18.731137    0.03349459952309
             2.8253937    0.23472694665786
             0.6401217    0.81375731841339
 s    1 1.00
             0.1612778                   1

39 0
 s    6 1.00
             3047.5249  0.0018347001629433
             457.36951    0.01403730124668
             103.94869   0.068842606114048
             29.210155    0.23218442062076
              9.286663    0.46794134155879
              3.163927    0.36231203217765
 s    3 1.00
             7.8682724   -0.11933240861517
             1.8812885   -0.16085421161283
             0.5442493     1.1434564825515
 s    1 1.00
             0.1687144                   1
 p    3 1.00
             7.8682724   0.068999095584993
             1.8812885    0.31642397975315
             0.5442493    0.74430825237435
 p    1 1.00
             0.1687144                   1
 d    1 1.00
                   0.8                   1

40 0
 s    6 1.00
             3047.5249  0.0018347001629433
             457.36951    0.01403730124668
             103.94869   0.068842606114048
             29.210155    0.23218442062076
              9.286663    0.46794134155879
              3.163927    0.36231203217765
 s    3 1.00
             7.8682724   -0.11933240861517
             1.8812885   -0.16085421161283
             0.5442493     1.1434564825515
 s    1 1.00
             0.1687144                   1
 p    3 1.00
             7.8682724   0.068999095584993
             1.8812885    0.31642397975315
             0.5442493    0.74430825237435
 p    1 1.00
             0.1687144                   1
 d    1 1.00
                   0.8                   1

41 0
 s    3 1.00
             18.731137    0.03349459952309
             2.8253937    0.23472694665786
             0.6401217    0.81375731841339
 s    1 1.00
             0.1612778                   1

42 0
 s    6 1.00
             5484.6717   0.001831099805527
             825.23495   0.013950098518422
             188.04696    0.06844509273075
               52.9645    0.23271427528445
              16.89757    0.47019295006289
             5.7996353    0.35852086192309
 s    3 1.00
             15.539616   -0.11077750382508
             3.5999336   -0.14802630511126
             1.0137618     1.1307670390447
 s    1 1.00
             0.2700058                   1
 p    3 1.00
             15.539616   0.070874299543311
             3.5999336    0.33975279781076
             1.0137618    0.72715859531445
 p    1 1.00
             0.2700058                   1
 d    1 1.00
                   0.8                   1

43 0
 s    3 1.00
             18.731137    0.03349459952309
             2.8253937    0.23472694665786
             0.6401217    0.81375731841339
 s    1 1.00
             0.1612778                   1

[5d]
[7f]
[9g]

[MO]
 Sym= A
 Ene=               0
 Spin= Alpha
 Occup=    1.00000
   1    9.2149389094145e-07
   2    2.327611305199e-05
   3    -2.8182543212223e-05
   4    2.7428566516081e-06
   5    5.0445607545967e-06
   6    -1.8410812118913e-05
   7    -2.1101765536036e-05
   8    -8.4371349722558e-05
   9    0.00039297134712094
  10    -3.7502195009077e-07
  11    -1.1872528107979e-05
  12    -2.9512771162195e-06
  13    -1.4720696538403e-05
  14    8.0258129291348e-06
  15    1.4887181931632e-05
  16    -2.1040104611538e-05
  17    -5.0659030064568e-06
  18    -0.00017430622397094
  19    -0.00046088528397128
  20    -6.2625197790049e-05
  21    1.0781498976397e-05
  22    8.2788010174172e-05
  23    -0.00017239219121132
  24    9.9687377266783e-05
  25    0.00067366248426506
  26    -2.2572086397686e-05
  27    2.4697073883556e-05
  28    -8.6990647799888e-06
  29    -4.5256709032918e-05
  30    4.9598373515475e-06
  31    1.1251481009817e-05
  32    -3.0370119839465e-05
  33    -7.0841484947279e-05
  34    -0.00036545313556044
  35    0.0046717335330422
  36    9.6318298462339e-05
  37    -4.9646688899807e-05
  38    -0.00017799864614715
  39    0.00041878365541503
  40    -0.0020491692570998
  41    -0.00061091475702781
  42    3.1480342024356e-05
  43    -0.00011173234945175
  44    7.7215673769454e-05
  45    -3.4186955854477e-05
  46    -5.1211535171511e-05
  47    5.2907013360366e-06
  48    0.00028157974218416
  49    1.9403077292007e-05
  50    -0.00018048447813006
  51    -0.0037819557471948
  52    -0.00021166463483594
  53    0.00025629642167203
  54    0.00033420201966196
  55    0.0016531828965926
  56    -0.0027296897062641
  57    -0.0024567562903297
  58    1.6043615776003e-05
  59    -4.2291241827312e-05
  60    -0.00020173341273292
  61    -2.3780400749906e-05
  62    0.00012637150877409
  63    -0.00032632239270894
  64    -9.1917064737462e-05
  65    2.5007476884909e-07
  66    4.677735523137e-07
  67    6.1795668612176e-08
  68    5.469423860425e-07
  69    -3.1611923587474e-06
  70    -3.0263077823867e-07
  71    4.0518611443493e-07
  72    -9.9770366201091e-08
  73    -3.2205741824116e-07
  74    -1.4989340861326e-06
  75    -2.5313982012338e-07
  76    5.2903795783062e-08
  77    1.3519951221054e-07
  78    -5.2257293372342e-08
  79    -7.4687284199871e-08
  80    1.1168013318256e-07
  81    -8.9226330695963e-08
  82    -3.4422798108301e-08
  83    1.5856699337569e-08
  84    1.0641000841838e-07
  85    1.3195154052721e-05
  86    -5.8989302009092e-07
  87    -8.6150889402803e-08
  88    -7.5089687557312e-07
  89    -3.5446754233167e-06
  90    4.8955124869035e-06
  91    -2.881136017837e-06
  92    -1.9376867955384e-07
  93    3.2698792766998e-07
  94    -3.1840615953385e-07
  95    -2.2751829840951e-08
  96    1.9270398817809e-07
  97    -4.6349323852364e-07
  98    -2.7194632950807e-07
  99    -7.7788388654846e-08
 100    8.7166538524509e-07
 101    -1.2288772461906e-08
 102    1.2774009332056e-06
 103    -1.5115449692713e-05
 104    -9.2560895479827e-07
 105    5.6100400809227e-08
 106    5.2954298020807e-07
 107    1.9847155923334e-05
 108    -1.961843372197e-05
 109    -3.0549404107066e-05
 110    6.0139399737648e-07
 111    5.290273917083e-07
 112    -2.5573388010125e-07
 113    -4.527819920547e-07
 114    5.1549440295955e-07
 115    5.349215162429e-07
 116    4.7568778847078e-06
 117    -3.8286422051135e-05
 118    7.1299418626557e-07
 119    -1.1393706729153e-06
 120    -7.1215376682433e-07
 121    8.5509896695754e-06
 122    -6.601933819144e-07
 123    -2.385129216253e-06
 124    5.7009838104555e-08
 125    1.6896419516641e-07
 126    1.2476647876909e-07
 127    -4.2612488270071e-08
 128    3.8042137486142e-07
 129    9.3005367568398e-07
 130    9.2979251722374e-06
 131    -5.0953577034358e-05
 132    2.2543234241194e-07
 133    1.3784519700699e-06
 134    -3.8733296791931e-06
 135    2.6669188521743e-05
 136    -1.1802673814951e-06
 137    8.2368532353379e-05
 138    -2.5942780479218e-06
 139    -1.5230645983074e-06
 140    -4.0936671289395e-07
 141    -4.595889002712e-07
 142    -1.8551985652581e-07
 143    5.0805588547572e-07
 144    3.4573547569154e-06
 145    -1.9210110566913e-05
 146    -6.1829849664452e-07
 147    -6.8350131017027e-07
 148    -1.4726075876197e-08
 149    -1.1913450406024e-05
 150    7.0285691251487e-06
 151    2.6057575505199e-06
 152    1.0990937580186e-06
 153    3.5480228027192e-07
 154    9.2686151775434e-08
 155    -7.2094542551115e-07
 156    7.6420641867388e-07
 157    -3.2019448261762e-09
 158    -1.1059767711548e-06
 159    -1.6369899136272e-06
 160    -8.2386091743789e-07
 161    3.594154235961e-07
 162    2.0907946566928e-07
 163    6.5559768319746e-06
 164    -6.3860084565576e-08
 165    -8.3530040028643e-07
 166    -4.1944086869005e-07
 167    1.0489104732914e-07
 168    1.0376642540158e-08
 169    1.1945850945148e-07
 170    -2.7969045226998e-07
 171    -7.2566501021585e-08
 172    5.4114196235064e-07
 173    1.9703050877208e-06
 174    9.0683444592291e-07
 175    2.710935787989e-07
 176    -8.5820490228851e-07
 177    4.0914479525237e-07
 178    -1.3613563352445e-06
 179    2.1145031617689e-06
 180    -1.5458962109123e-07
 181    -1.9014837599707e-07
 182    -5.2995277087673e-09
 183    3.8556575215131e-07
 184    -1.7925363376255e-07
 185    2.8946668778783e-07
 186    3.1906809319251e-06
 187    -2.3244032320338e-06
 188     1.85229434426e-07
 189    -1.5538450774526e-07
 190    -1.267604041874e-06
 191    -2.7195934908186e-06
 192    -9.8539038257669e-07
 193    5.8329534821283e-06
 194    -3.7421649100772e-07
 195    5.5841390375093e-08
 196    -1.6323992047345e-07
 197    -7.2602612849287e-08
 198    1.0202606495493e-07
 199    8.5136321810947e-07
 200    1.5600550863387e-06
 201    -1.6320388266827e-07
 202    -3.7515653588202e-06
 203    1.7227090826715e-06
 204    1.8786503424239e-06
 205    4.9813233079888e-07
 206    2.8813925436482e-06
 207    -1.6021528302194e-06
 208    1.3137095077802e-05
 209    -1.1919104974144e-06
 210    4.5084349348542e-06
 211    -4.7308528601446e-07
 212    -2.8586741181573e-06
 213    3.8332511400611e-07
 214    2.732601887932e-06
 215    5.9906323507699e-07
 216    -5.0582295851359e-07
 217    -4.5930903909525e-07
 218    -1.3092747661628e-06
 219    -2.2967185191299e-07
 220    -1.0680121377503e-06
 221    9.0670787713899e-07
 222    8.489233790102e-06
 223    2.8016638486249e-06
 224    -1.0616654045868e-06
 225    2.9455559627506e-06
 226    -2.9749407449719e-06
 227    -1.5783885360979e-05
 228    -2.5125948540177e-05
 229    9.7797863567573e-05
 230    1.2112216886344e-06
 231    4.1606502537351e-06
 232    2.2569798286616e-06
 233    -1.8350045130176e-06
 234    -3.0234545533287e-06
 235    1.0930252906722e-06
 236    1.2899421119303e-05
 237    -2.8217280286542e-05
 238    1.8095660000879e-06
 239    -6.1775098843568e-06
 240    -5.7701579173369e-06
 241    2.226819318854e-05
 242    6.5767711508112e-06
 243    9.810423549533e-05
 244    -2.0609316969308e-06
 245    -7.1991171432734e-06
 246    -2.0374815437991e-06
 247    -2.6381675288161e-06
 248    -1.8206319368975e-06
 249    4.0952951227451e-06
 250    -1.1562921210193e-05
 251    4.4909195565173e-06
 252    3.0980341190887e-05
 253    -0.00024793136965382
 254    -3.7820804295819e-06
 255    7.1446265454691e-06
 256    -7.2849248139424e-06
 257    -0.00010835063450899
 258    -0.00011502111549749
 259    0.00024773327116682
 260    -1.6666153337735e-06
 261    1.2657609925189e-05
 262    5.8296381997099e-06
 263    -7.721205018314e-06
 264    -6.7745335268439e-06
 265    5.2250813315085e-06
 266    -2.8854887330325e-05
 267    8.9061076143427e-06
 268    -4.1801279014814e-05
 269    7.2979355272032e-05
 270    9.9320386462855e-05
 271     -0.00330431146053
 272    4.0073771551123e-05
 273    0.00022240364189541
 274    -4.3984281846756e-05
 275    -0.0021914730045366
 276    -0.00061776073478396
 277    0.0035295418099973
 278    -0.00024086753275514
 279    0.00021949255945509