[Molden Format]
made by pyscf v[2.0.1]
[Atoms] (AU)
C   1   6     0.69100024066471     0.64692934207205    -3.48223131169301
H   2   1     2.68052439830868     1.13355088658700    -3.25784032593313
C   3   6    -0.36286361513219     0.85440132524594    -5.97030179418974
H   4   1    -2.35448549047279     0.36322488579172    -6.17995817793143
C   5   6     0.93697958957450     1.61209284601821    -8.05828437677121
H   6   1     1.79023114573091     3.48620134168797    -8.08322278856913
C   7   6     1.25568723688000     0.06665493916240   -10.26426053014808
H   8   1     0.39118722523993    -1.80671768770582   -10.21099750517578
H   9   1     1.55630230933075    -1.92953025305990    12.99630010416247
C   10   6     0.75233899775814    -2.21270439606481    11.10705728102219
H   11   1    -0.43433408177274    -3.90944857546550    11.22216085340412
C   12   6     2.86362581178706    -2.63237380607947     9.17926416456045
H   13   1     4.39038949912609    -1.24955421540245     9.49899813497433
H   14   1     3.74629220191363    -4.48798724300892     9.47414880959024
C   15   6     2.02478325613682    -2.42177285709634     6.44560829588644
C   16   6     3.88048732735477    -3.58795445234514     4.61402886975252
C   17   6    -0.18412382258602    -1.30464291234259     5.76021113872346
C   18   6    -2.10044360464350    -0.26837831858460     7.71610340967100
C   19   6    -3.08956938670431     2.35282328359417     6.88693925039594
C   20   6    -4.37372924086464    -2.09766595989678     7.93610724222001
C   21   6    -0.83850430601230     0.06372213486173    10.33002307638377
H   22   1     0.38411922151109     1.74281358582432    10.27380136542181
H   23   1    -2.30980003007874     0.45460143924521    11.73986301809809
H   24   1     4.58527064644668    -5.38706904487420     5.36778158031719
H   25   1     5.54944938085014    -2.37631462192748     4.35398898413318
H   26   1     3.06633019150423    -3.94118377050688     2.75255466040884
H   27   1    -4.17727778763735     2.26573369139522     5.12914900961283
H   28   1    -1.52662344944051     3.68001877445626     6.59540397144508
H   29   1    -4.32916174397830     3.13643051467482     8.35225460090378
H   30   1    -5.32329548508442    -2.36691813602939     6.11583672749896
H   31   1    -5.77989366602257    -1.33896741843465     9.25748940450990
H   32   1    -3.79310905208926    -3.96389819310853     8.61386170102686
C   33   6    -1.01100794811226    -1.06331657314144     3.11929490449947
C   34   6     0.37686231036534    -0.33275864505552     1.09165013605873
H   35   1    -3.01671213906703    -1.40297922279997     2.77827895090944
C   36   6    -0.64382707979370    -0.11591880174385    -1.42063131251064
H   37   1     2.35569259782137     0.17174499283897     1.33641070251401
H   38   1    -2.63317482980319    -0.60229203511219    -1.66119700387645
C   39   6     2.53016326718275     0.74184279311179   -12.38477126217512
C   40   6     2.74761784180424    -0.97075180884473   -14.53576076061004
H   41   1     3.43489191747297     2.57981441042514   -12.56110828288274
O   42   8     3.86136937293188    -0.48701494751058   -16.49697984673750
H   43   1     1.79359090776017    -2.83108880557309   -14.27278208139205
[GTO]
1 0
 s    6 1.00
             3047.5249  0.0018347001629433
             457.36951    0.01403730124668
             103.94869   0.068842606114048
             29.210155    0.23218442062076
              9.286663    0.46794134155879
              3.163927    0.36231203217765
 s    3 1.00
             7.8682724   -0.11933240861517
             1.8812885   -0.16085421161283
             0.5442493     1.1434564825515
 s    1 1.00
             0.1687144                   1
 p    3 1.00
             7.8682724   0.068999095584993
             1.8812885    0.31642397975315
             0.5442493    0.74430825237435
 p    1 1.00
             0.1687144                   1
 d    1 1.00
                   0.8                   1

2 0
 s    3 1.00
             18.731137    0.03349459952309
             2.8253937    0.23472694665786
             0.6401217    0.81375731841339
 s    1 1.00
             0.1612778                   1

3 0
 s    6 1.00
             3047.5249  0.0018347001629433
             457.36951    0.01403730124668
             103.94869   0.068842606114048
             29.210155    0.23218442062076
              9.286663    0.46794134155879
              3.163927    0.36231203217765
 s    3 1.00
             7.8682724   -0.11933240861517
             1.8812885   -0.16085421161283
             0.5442493     1.1434564825515
 s    1 1.00
             0.1687144                   1
 p    3 1.00
             7.8682724   0.068999095584993
             1.8812885    0.31642397975315
             0.5442493    0.74430825237435
 p    1 1.00
             0.1687144                   1
 d    1 1.00
                   0.8                   1

4 0
 s    3 1.00
             18.731137    0.03349459952309
             2.8253937    0.23472694665786
             0.6401217    0.81375731841339
 s    1 1.00
             0.1612778                   1

5 0
 s    6 1.00
             3047.5249  0.0018347001629433
             457.36951    0.01403730124668
             103.94869   0.068842606114048
             29.210155    0.23218442062076
              9.286663    0.46794134155879
              3.163927    0.36231203217765
 s    3 1.00
             7.8682724   -0.11933240861517
             1.8812885   -0.16085421161283
             0.5442493     1.1434564825515
 s    1 1.00
             0.1687144                   1
 p    3 1.00
             7.8682724   0.068999095584993
             1.8812885    0.31642397975315
             0.5442493    0.74430825237435
 p    1 1.00
             0.1687144                   1
 d    1 1.00
                   0.8                   1

6 0
 s    3 1.00
             18.731137    0.03349459952309
             2.8253937    0.23472694665786
             0.6401217    0.81375731841339
 s    1 1.00
             0.1612778                   1

7 0
 s    6 1.00
             3047.5249  0.0018347001629433
             457.36951    0.01403730124668
             103.94869   0.068842606114048
             29.210155    0.23218442062076
              9.286663    0.46794134155879
              3.163927    0.36231203217765
 s    3 1.00
             7.8682724   -0.11933240861517
             1.8812885   -0.16085421161283
             0.5442493     1.1434564825515
 s    1 1.00
             0.1687144                   1
 p    3 1.00
             7.8682724   0.068999095584993
             1.8812885    0.31642397975315
             0.5442493    0.74430825237435
 p    1 1.00
             0.1687144                   1
 d    1 1.00
                   0.8                   1

8 0
 s    3 1.00
             18.731137    0.03349459952309
             2.8253937    0.23472694665786
             0.6401217    0.81375731841339
 s    1 1.00
             0.1612778                   1

9 0
 s    3 1.00
             18.731137    0.03349459952309
             2.8253937    0.23472694665786
             0.6401217    0.81375731841339
 s    1 1.00
             0.1612778                   1

10 0
 s    6 1.00
             3047.5249  0.0018347001629433
             457.36951    0.01403730124668
             103.94869   0.068842606114048
             29.210155    0.23218442062076
              9.286663    0.46794134155879
              3.163927    0.36231203217765
 s    3 1.00
             7.8682724   -0.11933240861517
             1.8812885   -0.16085421161283
             0.5442493     1.1434564825515
 s    1 1.00
             0.1687144                   1
 p    3 1.00
             7.8682724   0.068999095584993
             1.8812885    0.31642397975315
             0.5442493    0.74430825237435
 p    1 1.00
             0.1687144                   1
 d    1 1.00
                   0.8                   1

11 0
 s    3 1.00
             18.731137    0.03349459952309
             2.8253937    0.23472694665786
             0.6401217    0.81375731841339
 s    1 1.00
             0.1612778                   1

12 0
 s    6 1.00
             3047.5249  0.0018347001629433
             457.36951    0.01403730124668
             103.94869   0.068842606114048
             29.210155    0.23218442062076
              9.286663    0.46794134155879
              3.163927    0.36231203217765
 s    3 1.00
             7.8682724   -0.11933240861517
             1.8812885   -0.16085421161283
             0.5442493     1.1434564825515
 s    1 1.00
             0.1687144                   1
 p    3 1.00
             7.8682724   0.068999095584993
             1.8812885    0.31642397975315
             0.5442493    0.74430825237435
 p    1 1.00
             0.1687144                   1
 d    1 1.00
                   0.8                   1

13 0
 s    3 1.00
             18.731137    0.03349459952309
             2.8253937    0.23472694665786
             0.6401217    0.81375731841339
 s    1 1.00
             0.1612778                   1

14 0
 s    3 1.00
             18.731137    0.03349459952309
             2.8253937    0.23472694665786
             0.6401217    0.81375731841339
 s    1 1.00
             0.1612778                   1

15 0
 s    6 1.00
             3047.5249  0.0018347001629433
             457.36951    0.01403730124668
             103.94869   0.068842606114048
             29.210155    0.23218442062076
              9.286663    0.46794134155879
              3.163927    0.36231203217765
 s    3 1.00
             7.8682724   -0.11933240861517
             1.8812885   -0.16085421161283
             0.5442493     1.1434564825515
 s    1 1.00
             0.1687144                   1
 p    3 1.00
             7.8682724   0.068999095584993
             1.8812885    0.31642397975315
             0.5442493    0.74430825237435
 p    1 1.00
             0.1687144                   1
 d    1 1.00
                   0.8                   1

16 0
 s    6 1.00
             3047.5249  0.0018347001629433
             457.36951    0.01403730124668
             103.94869   0.068842606114048
             29.210155    0.23218442062076
              9.286663    0.46794134155879
              3.163927    0.36231203217765
 s    3 1.00
             7.8682724   -0.11933240861517
             1.8812885   -0.16085421161283
             0.5442493     1.1434564825515
 s    1 1.00
             0.1687144                   1
 p    3 1.00
             7.8682724   0.068999095584993
             1.8812885    0.31642397975315
             0.5442493    0.74430825237435
 p    1 1.00
             0.1687144                   1
 d    1 1.00
                   0.8                   1

17 0
 s    6 1.00
             3047.5249  0.0018347001629433
             457.36951    0.01403730124668
             103.94869   0.068842606114048
             29.210155    0.23218442062076
              9.286663    0.46794134155879
              3.163927    0.36231203217765
 s    3 1.00
             7.8682724   -0.11933240861517
             1.8812885   -0.16085421161283
             0.5442493     1.1434564825515
 s    1 1.00
             0.1687144                   1
 p    3 1.00
             7.8682724   0.068999095584993
             1.8812885    0.31642397975315
             0.5442493    0.74430825237435
 p    1 1.00
             0.1687144                   1
 d    1 1.00
                   0.8                   1

18 0
 s    6 1.00
             3047.5249  0.0018347001629433
             457.36951    0.01403730124668
             103.94869   0.068842606114048
             29.210155    0.23218442062076
              9.286663    0.46794134155879
              3.163927    0.36231203217765
 s    3 1.00
             7.8682724   -0.11933240861517
             1.8812885   -0.16085421161283
             0.5442493     1.1434564825515
 s    1 1.00
             0.1687144                   1
 p    3 1.00
             7.8682724   0.068999095584993
             1.8812885    0.31642397975315
             0.5442493    0.74430825237435
 p    1 1.00
             0.1687144                   1
 d    1 1.00
                   0.8                   1

19 0
 s    6 1.00
             3047.5249  0.0018347001629433
             457.36951    0.01403730124668
             103.94869   0.068842606114048
             29.210155    0.23218442062076
              9.286663    0.46794134155879
              3.163927    0.36231203217765
 s    3 1.00
             7.8682724   -0.11933240861517
             1.8812885   -0.16085421161283
             0.5442493     1.1434564825515
 s    1 1.00
             0.1687144                   1
 p    3 1.00
             7.8682724   0.068999095584993
             1.8812885    0.31642397975315
             0.5442493    0.74430825237435
 p    1 1.00
             0.1687144                   1
 d    1 1.00
                   0.8                   1

20 0
 s    6 1.00
             3047.5249  0.0018347001629433
             457.36951    0.01403730124668
             103.94869   0.068842606114048
             29.210155    0.23218442062076
              9.286663    0.46794134155879
              3.163927    0.36231203217765
 s    3 1.00
             7.8682724   -0.11933240861517
             1.8812885   -0.16085421161283
             0.5442493     1.1434564825515
 s    1 1.00
             0.1687144                   1
 p    3 1.00
             7.8682724   0.068999095584993
             1.8812885    0.31642397975315
             0.5442493    0.74430825237435
 p    1 1.00
             0.1687144                   1
 d    1 1.00
                   0.8                   1

21 0
 s    6 1.00
             3047.5249  0.0018347001629433
             457.36951    0.01403730124668
             103.94869   0.068842606114048
             29.210155    0.23218442062076
              9.286663    0.46794134155879
              3.163927    0.36231203217765
 s    3 1.00
             7.8682724   -0.11933240861517
             1.8812885   -0.16085421161283
             0.5442493     1.1434564825515
 s    1 1.00
             0.1687144                   1
 p    3 1.00
             7.8682724   0.068999095584993
             1.8812885    0.31642397975315
             0.5442493    0.74430825237435
 p    1 1.00
             0.1687144                   1
 d    1 1.00
                   0.8                   1

22 0
 s    3 1.00
             18.731137    0.03349459952309
             2.8253937    0.23472694665786
             0.6401217    0.81375731841339
 s    1 1.00
             0.1612778                   1

23 0
 s    3 1.00
             18.731137    0.03349459952309
             2.8253937    0.23472694665786
             0.6401217    0.81375731841339
 s    1 1.00
             0.1612778                   1

24 0
 s    3 1.00
             18.731137    0.03349459952309
             2.8253937    0.23472694665786
             0.6401217    0.81375731841339
 s    1 1.00
             0.1612778                   1

25 0
 s    3 1.00
             18.731137    0.03349459952309
             2.8253937    0.23472694665786
             0.6401217    0.81375731841339
 s    1 1.00
             0.1612778                   1

26 0
 s    3 1.00
             18.731137    0.03349459952309
             2.8253937    0.23472694665786
             0.6401217    0.81375731841339
 s    1 1.00
             0.1612778                   1

27 0
 s    3 1.00
             18.731137    0.03349459952309
             2.8253937    0.23472694665786
             0.6401217    0.81375731841339
 s    1 1.00
             0.1612778                   1

28 0
 s    3 1.00
             18.731137    0.03349459952309
             2.8253937    0.23472694665786
             0.6401217    0.81375731841339
 s    1 1.00
             0.1612778                   1

29 0
 s    3 1.00
             18.731137    0.03349459952309
             2.8253937    0.23472694665786
             0.6401217    0.81375731841339
 s    1 1.00
             0.1612778                   1

30 0
 s    3 1.00
             18.731137    0.03349459952309
             2.8253937    0.23472694665786
             0.6401217    0.81375731841339
 s    1 1.00
             0.1612778                   1

31 0
 s    3 1.00
             18.731137    0.03349459952309
             2.8253937    0.23472694665786
             0.6401217    0.81375731841339
 s    1 1.00
             0.1612778                   1

32 0
 s    3 1.00
             18.731137    0.03349459952309
             2.8253937    0.23472694665786
             0.6401217    0.81375731841339
 s    1 1.00
             0.1612778                   1

33 0
 s    6 1.00
             3047.5249  0.0018347001629433
             457.36951    0.01403730124668
             103.94869   0.068842606114048
             29.210155    0.23218442062076
              9.286663    0.46794134155879
              3.163927    0.36231203217765
 s    3 1.00
             7.8682724   -0.11933240861517
             1.8812885   -0.16085421161283
             0.5442493     1.1434564825515
 s    1 1.00
             0.1687144                   1
 p    3 1.00
             7.8682724   0.068999095584993
             1.8812885    0.31642397975315
             0.5442493    0.74430825237435
 p    1 1.00
             0.1687144                   1
 d    1 1.00
                   0.8                   1

34 0
 s    6 1.00
             3047.5249  0.0018347001629433
             457.36951    0.01403730124668
             103.94869   0.068842606114048
             29.210155    0.23218442062076
              9.286663    0.46794134155879
              3.163927    0.36231203217765
 s    3 1.00
             7.8682724   -0.11933240861517
             1.8812885   -0.16085421161283
             0.5442493     1.1434564825515
 s    1 1.00
             0.1687144                   1
 p    3 1.00
             7.8682724   0.068999095584993
             1.8812885    0.31642397975315
             0.5442493    0.74430825237435
 p    1 1.00
             0.1687144                   1
 d    1 1.00
                   0.8                   1

35 0
 s    3 1.00
             18.731137    0.03349459952309
             2.8253937    0.23472694665786
             0.6401217    0.81375731841339
 s    1 1.00
             0.1612778                   1

36 0
 s    6 1.00
             3047.5249  0.0018347001629433
             457.36951    0.01403730124668
             103.94869   0.068842606114048
             29.210155    0.23218442062076
              9.286663    0.46794134155879
              3.163927    0.36231203217765
 s    3 1.00
             7.8682724   -0.11933240861517
             1.8812885   -0.16085421161283
             0.5442493     1.1434564825515
 s    1 1.00
             0.1687144                   1
 p    3 1.00
             7.8682724   0.068999095584993
             1.8812885    0.31642397975315
             0.5442493    0.74430825237435
 p    1 1.00
             0.1687144                   1
 d    1 1.00
                   0.8                   1

37 0
 s    3 1.00
             18.731137    0.03349459952309
             2.8253937    0.23472694665786
             0.6401217    0.81375731841339
 s    1 1.00
             0.1612778                   1

38 0
 s    3 1.00
             18.731137    0.03349459952309
             2.8253937    0.23472694665786
             0.6401217    0.81375731841339
 s    1 1.00
             0.1612778                   1

39 0
 s    6 1.00
             3047.5249  0.0018347001629433
             457.36951    0.01403730124668
             103.94869   0.068842606114048
             29.210155    0.23218442062076
              9.286663    0.46794134155879
              3.163927    0.36231203217765
 s    3 1.00
             7.8682724   -0.11933240861517
             1.8812885   -0.16085421161283
             0.5442493     1.1434564825515
 s    1 1.00
             0.1687144                   1
 p    3 1.00
             7.8682724   0.068999095584993
             1.8812885    0.31642397975315
             0.5442493    0.74430825237435
 p    1 1.00
             0.1687144                   1
 d    1 1.00
                   0.8                   1

40 0
 s    6 1.00
             3047.5249  0.0018347001629433
             457.36951    0.01403730124668
             103.94869   0.068842606114048
             29.210155    0.23218442062076
              9.286663    0.46794134155879
              3.163927    0.36231203217765
 s    3 1.00
             7.8682724   -0.11933240861517
             1.8812885   -0.16085421161283
             0.5442493     1.1434564825515
 s    1 1.00
             0.1687144                   1
 p    3 1.00
             7.8682724   0.068999095584993
             1.8812885    0.31642397975315
             0.5442493    0.74430825237435
 p    1 1.00
             0.1687144                   1
 d    1 1.00
                   0.8                   1

41 0
 s    3 1.00
             18.731137    0.03349459952309
             2.8253937    0.23472694665786
             0.6401217    0.81375731841339
 s    1 1.00
             0.1612778                   1

42 0
 s    6 1.00
             5484.6717   0.001831099805527
             825.23495   0.013950098518422
             188.04696    0.06844509273075
               52.9645    0.23271427528445
              16.89757    0.47019295006289
             5.7996353    0.35852086192309
 s    3 1.00
             15.539616   -0.11077750382508
             3.5999336   -0.14802630511126
             1.0137618     1.1307670390447
 s    1 1.00
             0.2700058                   1
 p    3 1.00
             15.539616   0.070874299543311
             3.5999336    0.33975279781076
             1.0137618    0.72715859531445
 p    1 1.00
             0.2700058                   1
 d    1 1.00
                   0.8                   1

43 0
 s    3 1.00
             18.731137    0.03349459952309
             2.8253937    0.23472694665786
             0.6401217    0.81375731841339
 s    1 1.00
             0.1612778                   1

[5d]
[7f]
[9g]

[MO]
 Sym= A
 Ene=               0
 Spin= Alpha
 Occup=    1.00000
   1    -6.8484171922299e-07
   2    1.7269348628147e-05
   3    -0.00014138999816764
   4    1.079590221397e-06
   5    -2.0594475657682e-05
   6    -1.295024228339e-05
   7    8.5293059511844e-05
   8    8.2450782064785e-05
   9    7.4063490476216e-05
  10    4.9509002068745e-06
  11    -3.7105484124242e-06
  12    -3.6115456619281e-06
  13    -9.7866462425352e-06
  14    5.4326244412848e-06
  15    -5.5731763062679e-07
  16    -3.3951242115792e-05
  17    1.2049857689566e-06
  18    -0.00011015028943318
  19    -0.00083343531161804
  20    -4.4749164405863e-05
  21    1.5628960363856e-05
  22    8.0766253107062e-05
  23    -0.00020808555876148
  24    1.0167771750611e-06
  25    0.00075052214301366
  26    -3.0421908553904e-05
  27    2.2859350816922e-05
  28    7.8149975823591e-06
  29    -4.1453210684555e-05
  30    2.5744294819939e-05
  31    4.5056314969175e-06
  32    -1.5712392623245e-06
  33    -6.9812511044568e-05
  34    -0.00034171461974403
  35    0.0047801805267644
  36    6.0869864642593e-05
  37    -4.1385968154214e-05
  38    -0.00018076451766459
  39    -0.00044170439161604
  40    -0.0018847214012303
  41    -0.0010135966561006
  42    8.8908078420705e-05
  43    -6.7057058666743e-05
  44    0.00010112786645279
  45    -4.1232227525068e-05
  46     1.21469549207e-05
  47    6.7250854242636e-06
  48    0.00029264178144554
  49    1.964708226779e-05
  50    -0.00018058928462613
  51    -0.0038279111559465
  52    -7.7288538270789e-05
  53    0.0002265449748575
  54    0.00040278663992941
  55    0.00033648474860029
  56    -0.0024765106762221
  57    -0.0031241757532235
  58    -4.5239058048704e-05
  59    -8.5313629802479e-05
  60    -0.00018784966373607
  61    1.1241908487366e-05
  62    0.00012071846325788
  63    -0.00032892266108954
  64    -9.3899977099467e-05
  65    1.8812820605706e-07
  66    7.272286501716e-07
  67    1.3791456101989e-08
  68    1.4086083365381e-07
  69    -2.7171998149113e-06
  70    -5.5177151797479e-08
  71    8.4245699335256e-08
  72    5.7592620293141e-08
  73    3.623583368704e-07
  74    -1.0393442517793e-06
  75    -8.5436856016931e-07
  76    8.3161093664258e-08
  77    1.1512601302103e-07
  78    -1.5686286287055e-08
  79    -4.8430518815006e-08
  80    8.7767433610745e-08
  81    -8.0588813953053e-09
  82    1.0763567659055e-07
  83    4.2564112034999e-08
  84    3.1267958760451e-07
  85    5.6606493542995e-06
  86    -2.3889131700101e-07
  87    -1.593008352155e-07
  88    -3.616096928438e-07
  89    -1.5611100228675e-06
  90    2.0107530572474e-06
  91    -1.2552568241993e-06
  92    -1.4004809083412e-07
  93    1.1434575705096e-07
  94    -2.6382678363951e-08
  95    -5.4154955545504e-08
  96    1.0533706501427e-07
  97    -9.9925254822173e-08
  98    -3.7379231048683e-07
  99    1.004417679517e-08
 100    4.9727883787458e-07
 101    -4.2598879841651e-08
 102    8.6428341477927e-07
 103    6.3015384216317e-08
 104    -4.0568343131271e-07
 105    3.224819522986e-07
 106    -2.4626571788012e-07
 107    7.2079442390443e-06
 108    -5.4700170737165e-06
 109    -1.6565284485402e-05
 110    5.1914362632225e-07
 111    5.4425190238293e-07
 112    -2.6357602827403e-07
 113    -6.5137360432187e-07
 114     7.93465316818e-09
 115    4.5732600431575e-07
 116    4.3410981203262e-06
 117    -2.7343209036102e-05
 118    3.8705144383418e-07
 119    -6.6745087030916e-07
 120    -7.1947369318439e-07
 121    5.1318473018201e-06
 122    -5.0867684698884e-07
 123    3.7792222801182e-06
 124    9.9176457887577e-08
 125    -1.36795404383e-07
 126    6.331856386235e-08
 127    8.0518536665769e-08
 128    1.300220731024e-07
 129    6.4405225849484e-07
 130    7.1864228468643e-06
 131    -1.6313710799768e-05
 132    1.1324198081965e-06
 133    1.7758161608977e-06
 134    -3.7513901685726e-06
 135    -1.4510176595525e-06
 136    -4.1972800491209e-06
 137    3.9672716762086e-05
 138    -1.3977569670782e-06
 139    -5.8304273875099e-07
 140    2.2543584953544e-07
 141    -3.336441502458e-07
 142    1.5007522277923e-07
 143    1.640309983418e-07
 144    5.3634665629785e-07
 145    -1.1519809177643e-05
 146    -5.8061618912475e-07
 147    -1.0366672252598e-06
 148    1.0671742899916e-06
 149    -6.7107679339019e-06
 150    1.4226077232584e-05
 151    -4.9556710760598e-06
 152    6.2521273906324e-07
 153    1.729004822387e-07
 154    -3.8831096320067e-07
 155    -4.9538016693106e-07
 156    1.2705016037454e-07
 157    1.4222235484719e-07
 158    4.9187701612281e-07
 159    -9.8942638101122e-06
 160    -5.8228053276909e-07
 161    5.4991517363966e-07
 162    -2.8859685123839e-07
 163    1.2564395343894e-06
 164    3.4911547056009e-06
 165    -6.957119258082e-09
 166    6.7942543552168e-08
 167    -1.4321623760327e-07
 168    7.103889958345e-08
 169    1.9385386850455e-07
 170    6.988704309026e-08
 171    -4.0219977459378e-08
 172    3.4364089806326e-07
 173    3.1546583618383e-06
 174    6.0905542075963e-07
 175    6.8528762565578e-08
 176    -2.8779229379702e-07
 177    2.9370881406864e-06
 178    4.547781196817e-07
 179    3.164040193622e-06
 180    -2.1322048341696e-07
 181    1.6975084748538e-07
 182    9.1933139630958e-08
 183    4.1521313706685e-07
 184    1.0648273630335e-07
 185    5.6190293042067e-08
 186    9.3700632088985e-07
 187    3.3816412009521e-06
 188    -5.818545026606e-08
 189    -1.1297015680552e-07
 190    -7.615982111033e-07
 191    -2.3142543280376e-06
 192    -3.3530693708151e-06
 193    1.9597312396417e-06
 194    -2.4243894751177e-07
 195    2.0075752632968e-07
 196    3.0828812202392e-07
 197    -9.2190116477132e-08
 198    1.2498337581969e-07
 199    2.9070074235865e-07
 200    1.7075225492728e-06
 201    -2.2605819115949e-07
 202    -2.1971142708668e-06
 203    1.2109226019302e-06
 204    8.6196907624406e-07
 205    8.640281078666e-07
 206    1.8835198785071e-06
 207    -1.9927041059486e-06
 208    1.6811923353946e-05
 209    -1.5158948643263e-07
 210    2.883983874563e-06
 211    2.7889657209447e-07
 212    -1.1832564083753e-06
 213    2.959939443359e-07
 214    1.0208494515633e-06
 215    -1.2697471116662e-07
 216    3.4819732677046e-06
 217    -2.1978634774827e-07
 218    -1.00722972357e-06
 219    6.7905676606151e-08
 220    -1.2565399660855e-06
 221    1.5753739776514e-08
 222    1.8054958801293e-06
 223    4.0897540623108e-05
 224    1.3191195099902e-06
 225    3.4250571228234e-07
 226    -1.384766150238e-06
 227    -1.1320922673208e-05
 228    -5.1899840882967e-06
 229    1.6941019464416e-06
 230    2.0223865942159e-06
 231    5.573279070118e-07
 232    4.9624303009146e-07
 233    -4.5522360184201e-07
 234    -1.783569498543e-06
 235    2.5709286631612e-06
 236    2.0727935019325e-05
 237    -0.00018901201206446
 238    6.1738691076888e-07
 239    -5.4124154652253e-06
 240    -3.5931635588175e-07
 241    6.133783907393e-05
 242    2.1982900877928e-05
 243    0.00010867400773121
 244    -7.0860381107778e-06
 245    -4.5054312104166e-06
 246    -1.436723149805e-06
 247    -1.9365619605843e-06
 248    -3.3029192539555e-06
 249    -6.2708286892577e-07
 250    -1.3954851586524e-05
 251    1.166091947378e-06
 252    6.1329307890555e-06
 253    0.00012644788768832
 254    -8.306262982299e-06
 255    1.2891341484883e-05
 256    -1.1273103638013e-05
 257    5.2116890197104e-05
 258    -9.0354492045821e-05
 259    0.00017159988809719
 260    4.9950705961681e-06
 261    6.6884679132211e-06
 262    4.6745228033963e-06
 263    -2.0176580747413e-06
 264    -7.5672487045599e-06
 265    3.2271787342679e-06
 266    -2.1690420580033e-05
 267    1.2051466270053e-05
 268    -1.6525075539746e-05
 269    7.2276784369545e-05
 270    9.3730215629183e-05
 271    -0.0032498909006267
 272    0.00010786207041348
 273    0.00020218840070605
 274    -8.9194842016501e-06
 275    -0.0019806134524369
 276    -0.00068088637961025
 277    0.0036891151794862
 278    -0.00033113394788537
 279    0.00015960480024981
 280    -9.2654370939777e-05