[Molden Format]
made by pyscf v[2.0.1]
[Atoms] (AU)
O   1   8     0.00000000000000     0.00000000000000     6.78435311142442
H   2   1     0.00000000000000     0.00000000000000     4.96095128952346
H   3   1    -0.05031916615174     1.78353065140343     7.16022480789109
O   4   8     0.00000000000000     0.00000000000000     2.31533471513237
C   5   6     0.00000000000000     0.00000000000000     0.00000000000000
C   6   6     2.01118073026938    -1.40227222164369    -1.50774939176400
C   7   6    -2.01249334291722     1.41331050329955    -1.50315905028694
H   8   1     3.32037363730244    -2.26721897153159    -0.13599698591495
C   9   6     3.45899267434009     0.28739631745591    -3.37437943254505
H   10   1     1.07662969841332    -2.94725144642667    -2.56541439481080
H   11   1    -2.67503415753480     0.18421555839588    -3.06194479365997
H   12   1    -1.07974048864772     3.03851734677796    -2.43674295017013
C   13   6    -4.21607110578555     2.32938802552922     0.11994162256091
H   14   1     4.24440173074564     1.93368664142019    -2.34976285512790
H   15   1     2.15020713235517     1.04714335134846    -4.81494497423699
C   16   6     5.60746363007797    -1.12419643481196    -4.70268606082550
H   17   1    -3.46838323670267     3.50951302338067     1.66946842715333
H   18   1    -5.11873485366228     0.68575958301209     1.04047743976495
C   19   6    -6.18314754751344     3.80909592987882    -1.39656589068747
H   20   1     6.93011263717176    -1.87550812453645    -3.26656317360070
C   21   6     7.06356622236532     0.52877932406334    -6.57829775293605
H   22   1     4.82318879258361    -2.78573437948532    -5.70504560381835
H   23   1    -6.91582688743803     2.61304780074712    -2.95074552451969
H   24   1    -5.26532430573853     5.45420349051338    -2.31005832200284
C   25   6    -8.39941882261433     4.73263980500213     0.21800571437956
H   26   1     7.83338371486801     2.19084139882824    -5.57093109900697
H   27   1     5.73544244039420     1.27376866537418    -8.01071492370229
C   28   6     9.21124858443101    -0.89699110072176    -7.88926949186242
H   29   1    -7.66272760055236     5.92277078003992     1.77035591474408
H   30   1    -9.31497248082589     3.08753015622020     1.12614408368786
C   31   6   -10.35481709231879     6.21833079391143    -1.30905206253246
H   32   1    10.58815905329501    -1.61074586756696    -6.49512691622620
H   33   1    10.23506248045667     0.32468009384095    -9.23072870921204
H   34   1     8.47665842847139    -2.53598436989925    -8.94921964622535
H   35   1    -9.48948872868064     7.90013588951020    -2.18823918416067
H   36   1   -11.93332513000955     6.86460487874102    -0.11255798845995
H   37   1   -11.15126291841033     5.04495968327630    -2.83849898862534
[GTO]
1 0
 s    8 1.00
                 11720  0.00070964594651845
                  1759  0.0054672722921914
                 400.8   0.027823118610189
                 113.7    0.10474773971146
                 37.03    0.28292084635691
                 13.27    0.44849523869833
                 5.025    0.27081688521277
                 1.013    0.01545029160744
 s    8 1.00
                 11720  -0.00031444341168873
                  1759  -0.0024821376810179
                 400.8  -0.012316355381583
                 113.7  -0.050538917343672
                 37.03   -0.13938490331632
                 13.27   -0.32507749481778
                 5.025   -0.22984830758785
                 1.013     1.0953793467883
 s    1 1.00
                0.3023                   1
 p    3 1.00
                  17.7   0.062679166281506
                 3.854    0.33353656587936
                 1.046    0.74123964163973
 p    1 1.00
                0.2753                   1
 d    1 1.00
                 1.185                   1

2 0
 s    3 1.00
                 13.01   0.033498726389998
                 1.962    0.23480080117413
                0.4446     0.8136829578829
 s    1 1.00
                 0.122                   1
 p    1 1.00
                 0.727                   1

3 0
 s    3 1.00
                 13.01   0.033498726389998
                 1.962    0.23480080117413
                0.4446     0.8136829578829
 s    1 1.00
                 0.122                   1
 p    1 1.00
                 0.727                   1

4 0
 s    8 1.00
                 11720  0.00070964594651845
                  1759  0.0054672722921914
                 400.8   0.027823118610189
                 113.7    0.10474773971146
                 37.03    0.28292084635691
                 13.27    0.44849523869833
                 5.025    0.27081688521277
                 1.013    0.01545029160744
 s    8 1.00
                 11720  -0.00031444341168873
                  1759  -0.0024821376810179
                 400.8  -0.012316355381583
                 113.7  -0.050538917343672
                 37.03   -0.13938490331632
                 13.27   -0.32507749481778
                 5.025   -0.22984830758785
                 1.013     1.0953793467883
 s    1 1.00
                0.3023                   1
 p    3 1.00
                  17.7   0.062679166281506
                 3.854    0.33353656587936
                 1.046    0.74123964163973
 p    1 1.00
                0.2753                   1
 d    1 1.00
                 1.185                   1

5 0
 s    8 1.00
                  6665  0.00069158396281299
                  1000  0.0053257961529341
                   228   0.027060721042034
                 64.71    0.10165684614077
                 21.06     0.2745748236174
                 7.495    0.44829431892377
                 2.797    0.28490261071525
                0.5215   0.015194859206082
 s    8 1.00
                  6665  -0.00029326965268655
                  1000  -0.0023180354739745
                   228  -0.011499786038565
                 64.71  -0.046826727009787
                 21.06   -0.12846616875047
                 7.495   -0.30126627246289
                 2.797   -0.25563070233011
                0.5215      1.093793361012
 s    1 1.00
                0.1596                   1
 p    3 1.00
                 9.439   0.056979251590039
                 2.002    0.31320721150073
                0.5456    0.76037674173753
 p    1 1.00
                0.1517                   1
 d    1 1.00
                  0.55                   1

6 0
 s    8 1.00
                  6665  0.00069158396281299
                  1000  0.0053257961529341
                   228   0.027060721042034
                 64.71    0.10165684614077
                 21.06     0.2745748236174
                 7.495    0.44829431892377
                 2.797    0.28490261071525
                0.5215   0.015194859206082
 s    8 1.00
                  6665  -0.00029326965268655
                  1000  -0.0023180354739745
                   228  -0.011499786038565
                 64.71  -0.046826727009787
                 21.06   -0.12846616875047
                 7.495   -0.30126627246289
                 2.797   -0.25563070233011
                0.5215      1.093793361012
 s    1 1.00
                0.1596                   1
 p    3 1.00
                 9.439   0.056979251590039
                 2.002    0.31320721150073
                0.5456    0.76037674173753
 p    1 1.00
                0.1517                   1
 d    1 1.00
                  0.55                   1

7 0
 s    8 1.00
                  6665  0.00069158396281299
                  1000  0.0053257961529341
                   228   0.027060721042034
                 64.71    0.10165684614077
                 21.06     0.2745748236174
                 7.495    0.44829431892377
                 2.797    0.28490261071525
                0.5215   0.015194859206082
 s    8 1.00
                  6665  -0.00029326965268655
                  1000  -0.0023180354739745
                   228  -0.011499786038565
                 64.71  -0.046826727009787
                 21.06   -0.12846616875047
                 7.495   -0.30126627246289
                 2.797   -0.25563070233011
                0.5215      1.093793361012
 s    1 1.00
                0.1596                   1
 p    3 1.00
                 9.439   0.056979251590039
                 2.002    0.31320721150073
                0.5456    0.76037674173753
 p    1 1.00
                0.1517                   1
 d    1 1.00
                  0.55                   1

8 0
 s    3 1.00
                 13.01   0.033498726389998
                 1.962    0.23480080117413
                0.4446     0.8136829578829
 s    1 1.00
                 0.122                   1
 p    1 1.00
                 0.727                   1

9 0
 s    8 1.00
                  6665  0.00069158396281299
                  1000  0.0053257961529341
                   228   0.027060721042034
                 64.71    0.10165684614077
                 21.06     0.2745748236174
                 7.495    0.44829431892377
                 2.797    0.28490261071525
                0.5215   0.015194859206082
 s    8 1.00
                  6665  -0.00029326965268655
                  1000  -0.0023180354739745
                   228  -0.011499786038565
                 64.71  -0.046826727009787
                 21.06   -0.12846616875047
                 7.495   -0.30126627246289
                 2.797   -0.25563070233011
                0.5215      1.093793361012
 s    1 1.00
                0.1596                   1
 p    3 1.00
                 9.439   0.056979251590039
                 2.002    0.31320721150073
                0.5456    0.76037674173753
 p    1 1.00
                0.1517                   1
 d    1 1.00
                  0.55                   1

10 0
 s    3 1.00
                 13.01   0.033498726389998
                 1.962    0.23480080117413
                0.4446     0.8136829578829
 s    1 1.00
                 0.122                   1
 p    1 1.00
                 0.727                   1

11 0
 s    3 1.00
                 13.01   0.033498726389998
                 1.962    0.23480080117413
                0.4446     0.8136829578829
 s    1 1.00
                 0.122                   1
 p    1 1.00
                 0.727                   1

12 0
 s    3 1.00
                 13.01   0.033498726389998
                 1.962    0.23480080117413
                0.4446     0.8136829578829
 s    1 1.00
                 0.122                   1
 p    1 1.00
                 0.727                   1

13 0
 s    8 1.00
                  6665  0.00069158396281299
                  1000  0.0053257961529341
                   228   0.027060721042034
                 64.71    0.10165684614077
                 21.06     0.2745748236174
                 7.495    0.44829431892377
                 2.797    0.28490261071525
                0.5215   0.015194859206082
 s    8 1.00
                  6665  -0.00029326965268655
                  1000  -0.0023180354739745
                   228  -0.011499786038565
                 64.71  -0.046826727009787
                 21.06   -0.12846616875047
                 7.495   -0.30126627246289
                 2.797   -0.25563070233011
                0.5215      1.093793361012
 s    1 1.00
                0.1596                   1
 p    3 1.00
                 9.439   0.056979251590039
                 2.002    0.31320721150073
                0.5456    0.76037674173753
 p    1 1.00
                0.1517                   1
 d    1 1.00
                  0.55                   1

14 0
 s    3 1.00
                 13.01   0.033498726389998
                 1.962    0.23480080117413
                0.4446     0.8136829578829
 s    1 1.00
                 0.122                   1
 p    1 1.00
                 0.727                   1

15 0
 s    3 1.00
                 13.01   0.033498726389998
                 1.962    0.23480080117413
                0.4446     0.8136829578829
 s    1 1.00
                 0.122                   1
 p    1 1.00
                 0.727                   1

16 0
 s    8 1.00
                  6665  0.00069158396281299
                  1000  0.0053257961529341
                   228   0.027060721042034
                 64.71    0.10165684614077
                 21.06     0.2745748236174
                 7.495    0.44829431892377
                 2.797    0.28490261071525
                0.5215   0.015194859206082
 s    8 1.00
                  6665  -0.00029326965268655
                  1000  -0.0023180354739745
                   228  -0.011499786038565
                 64.71  -0.046826727009787
                 21.06   -0.12846616875047
                 7.495   -0.30126627246289
                 2.797   -0.25563070233011
                0.5215      1.093793361012
 s    1 1.00
                0.1596                   1
 p    3 1.00
                 9.439   0.056979251590039
                 2.002    0.31320721150073
                0.5456    0.76037674173753
 p    1 1.00
                0.1517                   1
 d    1 1.00
                  0.55                   1

17 0
 s    3 1.00
                 13.01   0.033498726389998
                 1.962    0.23480080117413
                0.4446     0.8136829578829
 s    1 1.00
                 0.122                   1
 p    1 1.00
                 0.727                   1

18 0
 s    3 1.00
                 13.01   0.033498726389998
                 1.962    0.23480080117413
                0.4446     0.8136829578829
 s    1 1.00
                 0.122                   1
 p    1 1.00
                 0.727                   1

19 0
 s    8 1.00
                  6665  0.00069158396281299
                  1000  0.0053257961529341
                   228   0.027060721042034
                 64.71    0.10165684614077
                 21.06     0.2745748236174
                 7.495    0.44829431892377
                 2.797    0.28490261071525
                0.5215   0.015194859206082
 s    8 1.00
                  6665  -0.00029326965268655
                  1000  -0.0023180354739745
                   228  -0.011499786038565
                 64.71  -0.046826727009787
                 21.06   -0.12846616875047
                 7.495   -0.30126627246289
                 2.797   -0.25563070233011
                0.5215      1.093793361012
 s    1 1.00
                0.1596                   1
 p    3 1.00
                 9.439   0.056979251590039
                 2.002    0.31320721150073
                0.5456    0.76037674173753
 p    1 1.00
                0.1517                   1
 d    1 1.00
                  0.55                   1

20 0
 s    3 1.00
                 13.01   0.033498726389998
                 1.962    0.23480080117413
                0.4446     0.8136829578829
 s    1 1.00
                 0.122                   1
 p    1 1.00
                 0.727                   1

21 0
 s    8 1.00
                  6665  0.00069158396281299
                  1000  0.0053257961529341
                   228   0.027060721042034
                 64.71    0.10165684614077
                 21.06     0.2745748236174
                 7.495    0.44829431892377
                 2.797    0.28490261071525
                0.5215   0.015194859206082
 s    8 1.00
                  6665  -0.00029326965268655
                  1000  -0.0023180354739745
                   228  -0.011499786038565
                 64.71  -0.046826727009787
                 21.06   -0.12846616875047
                 7.495   -0.30126627246289
                 2.797   -0.25563070233011
                0.5215      1.093793361012
 s    1 1.00
                0.1596                   1
 p    3 1.00
                 9.439   0.056979251590039
                 2.002    0.31320721150073
                0.5456    0.76037674173753
 p    1 1.00
                0.1517                   1
 d    1 1.00
                  0.55                   1

22 0
 s    3 1.00
                 13.01   0.033498726389998
                 1.962    0.23480080117413
                0.4446     0.8136829578829
 s    1 1.00
                 0.122                   1
 p    1 1.00
                 0.727                   1

23 0
 s    3 1.00
                 13.01   0.033498726389998
                 1.962    0.23480080117413
                0.4446     0.8136829578829
 s    1 1.00
                 0.122                   1
 p    1 1.00
                 0.727                   1

24 0
 s    3 1.00
                 13.01   0.033498726389998
                 1.962    0.23480080117413
                0.4446     0.8136829578829
 s    1 1.00
                 0.122                   1
 p    1 1.00
                 0.727                   1

25 0
 s    8 1.00
                  6665  0.00069158396281299
                  1000  0.0053257961529341
                   228   0.027060721042034
                 64.71    0.10165684614077
                 21.06     0.2745748236174
                 7.495    0.44829431892377
                 2.797    0.28490261071525
                0.5215   0.015194859206082
 s    8 1.00
                  6665  -0.00029326965268655
                  1000  -0.0023180354739745
                   228  -0.011499786038565
                 64.71  -0.046826727009787
                 21.06   -0.12846616875047
                 7.495   -0.30126627246289
                 2.797   -0.25563070233011
                0.5215      1.093793361012
 s    1 1.00
                0.1596                   1
 p    3 1.00
                 9.439   0.056979251590039
                 2.002    0.31320721150073
                0.5456    0.76037674173753
 p    1 1.00
                0.1517                   1
 d    1 1.00
                  0.55                   1

26 0
 s    3 1.00
                 13.01   0.033498726389998
                 1.962    0.23480080117413
                0.4446     0.8136829578829
 s    1 1.00
                 0.122                   1
 p    1 1.00
                 0.727                   1

27 0
 s    3 1.00
                 13.01   0.033498726389998
                 1.962    0.23480080117413
                0.4446     0.8136829578829
 s    1 1.00
                 0.122                   1
 p    1 1.00
                 0.727                   1

28 0
 s    8 1.00
                  6665  0.00069158396281299
                  1000  0.0053257961529341
                   228   0.027060721042034
                 64.71    0.10165684614077
                 21.06     0.2745748236174
                 7.495    0.44829431892377
                 2.797    0.28490261071525
                0.5215   0.015194859206082
 s    8 1.00
                  6665  -0.00029326965268655
                  1000  -0.0023180354739745
                   228  -0.011499786038565
                 64.71  -0.046826727009787
                 21.06   -0.12846616875047
                 7.495   -0.30126627246289
                 2.797   -0.25563070233011
                0.5215      1.093793361012
 s    1 1.00
                0.1596                   1
 p    3 1.00
                 9.439   0.056979251590039
                 2.002    0.31320721150073
                0.5456    0.76037674173753
 p    1 1.00
                0.1517                   1
 d    1 1.00
                  0.55                   1

29 0
 s    3 1.00
                 13.01   0.033498726389998
                 1.962    0.23480080117413
                0.4446     0.8136829578829
 s    1 1.00
                 0.122                   1
 p    1 1.00
                 0.727                   1

30 0
 s    3 1.00
                 13.01   0.033498726389998
                 1.962    0.23480080117413
                0.4446     0.8136829578829
 s    1 1.00
                 0.122                   1
 p    1 1.00
                 0.727                   1

31 0
 s    8 1.00
                  6665  0.00069158396281299
                  1000  0.0053257961529341
                   228   0.027060721042034
                 64.71    0.10165684614077
                 21.06     0.2745748236174
                 7.495    0.44829431892377
                 2.797    0.28490261071525
                0.5215   0.015194859206082
 s    8 1.00
                  6665  -0.00029326965268655
                  1000  -0.0023180354739745
                   228  -0.011499786038565
                 64.71  -0.046826727009787
                 21.06   -0.12846616875047
                 7.495   -0.30126627246289
                 2.797   -0.25563070233011
                0.5215      1.093793361012
 s    1 1.00
                0.1596                   1
 p    3 1.00
                 9.439   0.056979251590039
                 2.002    0.31320721150073
                0.5456    0.76037674173753
 p    1 1.00
                0.1517                   1
 d    1 1.00
                  0.55                   1

32 0
 s    3 1.00
                 13.01   0.033498726389998
                 1.962    0.23480080117413
                0.4446     0.8136829578829
 s    1 1.00
                 0.122                   1
 p    1 1.00
                 0.727                   1

33 0
 s    3 1.00
                 13.01   0.033498726389998
                 1.962    0.23480080117413
                0.4446     0.8136829578829
 s    1 1.00
                 0.122                   1
 p    1 1.00
                 0.727                   1

34 0
 s    3 1.00
                 13.01   0.033498726389998
                 1.962    0.23480080117413
                0.4446     0.8136829578829
 s    1 1.00
                 0.122                   1
 p    1 1.00
                 0.727                   1

35 0
 s    3 1.00
                 13.01   0.033498726389998
                 1.962    0.23480080117413
                0.4446     0.8136829578829
 s    1 1.00
                 0.122                   1
 p    1 1.00
                 0.727                   1

36 0
 s    3 1.00
                 13.01   0.033498726389998
                 1.962    0.23480080117413
                0.4446     0.8136829578829
 s    1 1.00
                 0.122                   1
 p    1 1.00
                 0.727                   1

37 0
 s    3 1.00
                 13.01   0.033498726389998
                 1.962    0.23480080117413
                0.4446     0.8136829578829
 s    1 1.00
                 0.122                   1
 p    1 1.00
                 0.727                   1

[5d]
[7f]
[9g]

[MO]
 Sym= A
 Ene=               0
 Spin= Alpha
 Occup=    1.00000
   1    8.0979294463669e-05
   2    2.3300174892929e-06
   3    0.00012887330562579
   4    -1.1682890153904e-06
   5    -4.4163377046827e-07
   6    -5.2760449975383e-05
   7    2.1289496328828e-06
   8    1.4730717784928e-05
   9    -0.00013677683274994
  10    6.1322345435869e-05
  11    2.8166864740829e-07
  12    -2.8224258732714e-06
  13    -4.6511890065539e-06
  14    -2.0464604672728e-07
  15    -4.7145859952975e-05
  16    0.00012443412006721
  17    1.4772877269818e-06
  18    -5.0900803679601e-06
  19    -0.00016177238138201
  20    -2.8338565987166e-05
  21    8.8903146596164e-06
  22    -2.3800404798984e-07
  23    -6.0541312564081e-06
  24    1.0098370833354e-05
  25      -1.0014126568389
  26    -0.0021236515354149
  27    0.0070296934544673
  28    5.3075467398896e-06
  29    -1.6927578404606e-05
  30    0.0015700447728528
  31    -5.7004521903705e-07
  32    4.0490435804584e-06
  33    -0.0021222058110853
  34    -0.00013960874455398
  35    2.6605029171164e-06
  36    -1.0900770409786e-06
  37    -6.2011951483931e-05
  38    0.00016255005096142
  39    -0.00030059004972892
  40    -0.00042742232111751
  41    -0.0017200555463903
  42    -1.6608690004241e-05
  43    1.0683228321408e-05
  44    -5.2732030195475e-05
  45    -7.7409253279666e-05
  46    6.317880549928e-05
  47    -0.0037353027192371
  48    0.0004911974523587
  49    8.0892365280375e-06
  50    -2.0828108670017e-06
  51    -3.3166285140247e-05
  52    0.00011860807351386
  53    8.3911697492546e-05
  54    0.00016455815094131
  55    -0.001375522148083
  56    -8.037108921112e-05
  57    8.2375535015126e-06
  58    3.5446563820766e-05
  59    0.00040722506738745
  60    -0.00047428829165206
  61    0.00099549446074505
  62    0.0001135016776748
  63    -0.00015305771809834
  64    0.00014621155961316
  65    -5.3775646583395e-05
  66    0.00012506263554694
  67    3.7131271419108e-05
  68    9.0885310018118e-05
  69    -0.00048618201339968
  70    6.663404662005e-05
  71    -4.3604148114676e-05
  72    6.1362040365654e-05
  73    -0.001008586209463
  74    0.00077339043124024
  75    0.00068564885242042
  76    0.00013701112081257
  77    0.0001242647310598
  78    -9.1459953249136e-05
  79    -5.7547978568424e-05
  80    0.00014754519040311
  81    6.0234042886158e-05
  82    -0.00021188343995625
  83    -6.8194093759175e-05
  84    5.0207848309168e-05
  85    -4.8293961940308e-05
  86    -2.4762628177438e-05
  87    -4.8278854491174e-05
  88    0.00062029527899901
  89    1.5671181903021e-05
  90    1.6849812319082e-05
  91    -1.2090467550517e-05
  92    -0.00026476999779711
  93    -0.0006519236492943
  94    1.9535642770558e-05
  95    -1.939079152494e-05
  96    -1.1258348103905e-05
  97    -8.2743885251188e-06
  98    1.8462177617193e-05
  99    5.0472410033806e-05
 100    3.9762995146197e-05
 101    0.00016781969593287
 102    -4.666292918577e-06
 103    1.0541752173222e-05
 104    -7.8123630238554e-05
 105    1.966484712386e-05
 106    0.00020852498137521
 107     6.29914865237e-05
 108    -6.1594444649271e-06
 109    -7.7930133102341e-05
 110    -7.8970454443136e-05
 111    7.3099744149663e-05
 112    4.3253783039747e-05
 113    -2.0779252462903e-05
 114    -7.2308111531553e-05
 115    5.4143858461034e-05
 116    0.00010221542433397
 117    -0.00089723424865975
 118    2.6821434290034e-05
 119    8.0756919477582e-06
 120    -3.4936603617093e-05
 121    -0.00027648119040408
 122    -4.5867621584839e-05
 123    0.00017032092129372
 124    8.3326189251139e-06
 125    -7.3979619834175e-06
 126    -1.7013622063756e-05
 127    3.1974581938291e-05
 128    -5.0831079528307e-05
 129    1.7704656950156e-05
 130    0.00034075962973659
 131    -8.1583800673034e-06
 132    -5.8257178111463e-06
 133    -3.0057219622927e-05
 134    -2.3795439479302e-05
 135    0.00011527723839226
 136    1.4799457743569e-05
 137    2.5346026081565e-05
 138    2.6287157411121e-05
 139    2.0957054186199e-05
 140    3.8228224271139e-05
 141    -0.00030018425507591
 142    -7.0953210927684e-06
 143    3.2943509299655e-06
 144    5.985717688564e-06
 145    0.00021793527459657
 146    -6.3645429440506e-05
 147    -5.4828801274209e-05
 148    2.188677963955e-06
 149    -4.3361114545386e-06
 150    5.4935090685149e-06
 151    -1.1990985382305e-05
 152    4.4152731569129e-06
 153    0.00010170829470135
 154    0.00010567957962928
 155    2.6305940266287e-05
 156    -2.8007085077502e-05
 157    -1.9904308795662e-05
 158    3.051230232818e-05
 159    9.7506815689296e-05
 160    5.9589459631615e-05
 161    8.5533347177603e-06
 162    -7.6324843092861e-06
 163    7.6499749369031e-05
 164    9.5826326110453e-05
 165    0.00033729530832232
 166    3.8466940531119e-05
 167    -1.8779663252821e-05
 168    -0.0001254095429375
 169    -0.00020569139477552
 170    0.00019800900599915
 171    8.470200656947e-05
 172    2.3511725566215e-06
 173    -6.8187702617071e-06
 174    1.4106114074872e-05
 175    -6.2241456779838e-06
 176    2.2441424896294e-05
 177    1.5808874878362e-05
 178    -8.8238831403674e-05
 179    1.8788932299498e-06
 180    -1.232197527844e-06
 181    4.3493848160476e-06
 182    -1.9697456827488e-05
 183    -2.5235460791606e-05
 184    8.8832585761595e-05
 185    1.989545547381e-05
 186    -1.1527121757656e-05
 187    -3.8028176596873e-06
 188    -0.00012508420470025
 189    9.8063739839272e-05
 190    9.9259634296103e-05
 191    -1.1754084346041e-06
 192    -3.5406860827971e-06
 193    8.1265368543482e-06
 194    2.8000177770453e-06
 195    5.5566825324854e-06
 196    1.1154388975407e-05
 197    1.8276069136764e-05
 198    -5.3025507940669e-06
 199    -1.9288899979871e-06
 200    2.9455310218098e-06
 201    0.00013523326206651
 202    3.8394185494396e-05
 203    1.8228559797991e-05
 204    -1.7958601823565e-06
 205    -4.995621208391e-06
 206    8.9127041579401e-05
 207    -4.0930857543705e-05
 208    1.0928502985805e-05
 209    -1.2433682437982e-05
 210    -1.4499316367131e-05
 211    9.2769562977183e-06
 212    2.7993918765755e-05
 213    -0.00026804036493393
 214    -3.7839581042295e-05
 215    1.3579811880194e-05
 216    2.3246206125649e-05
 217    -0.00021018578554635
 218    5.746459911351e-05
 219    8.961721028898e-05
 220    4.2521080613946e-06
 221    1.4169564133933e-05
 222    -4.3807092642514e-06
 223    -1.0298738189528e-05
 224    2.9075729722202e-06
 225    -2.4504143451876e-05
 226    -5.7797780101817e-05
 227    1.3061237085155e-05
 228    1.9020591082471e-06
 229    7.6531326500615e-07
 230    -2.0983312462928e-05
 231    -5.7706874637195e-05
 232    4.1348041593401e-06
 233    -6.5186367321337e-06
 234    -1.2775739134862e-05
 235    -5.6576154232818e-06
 236    3.2542078121691e-06
 237    8.6528566413914e-05
 238    -1.4545397302597e-05
 239    3.9005685593938e-06
 240    8.1280887902548e-06
 241    -4.5368298370664e-05
 242    6.6260504431495e-05
 243    -1.5335279983144e-05
 244    -2.1055212819134e-06
 245    -2.9791047648803e-06
 246    2.5495928283506e-06
 247    1.0865713190587e-07
 248    -1.4898845332904e-06
 249    2.7481166677878e-05
 250    -1.2658682299346e-06
 251    3.3406673736356e-06
 252    6.9993851959282e-07
 253    2.5977475047088e-07
 254    2.9295693507135e-05
 255    -4.8479384855902e-05
 256    -7.9299257204376e-07
 257    -3.1879305497887e-06
 258    1.2197370340756e-06
 259    2.758971717246e-06
 260    1.4915169377581e-05
 261    -7.7906612224577e-05
 262    5.7886802680682e-06
 263    -2.1366848476793e-06