[Molden Format]
made by pyscf v[2.0.1]
[Atoms] (AU)
O   1   8     0.00000000000000     0.00000000000000     8.67407923598948
H   2   1     0.00000000000000     0.00000000000000     6.85067741408852
H   3   1    -0.05031916615174     1.78353065140343     9.04995093245615
O   4   8     0.00000000000000     0.00000000000000     2.31533471513237
C   5   6     0.00000000000000     0.00000000000000     0.00000000000000
C   6   6     2.01118073026938    -1.40227222164369    -1.50774939176400
C   7   6    -2.01249334291722     1.41331050329955    -1.50315905028694
H   8   1     3.32037363730244    -2.26721897153159    -0.13599698591495
C   9   6     3.45899267434009     0.28739631745591    -3.37437943254505
H   10   1     1.07662969841332    -2.94725144642667    -2.56541439481080
H   11   1    -2.67503415753480     0.18421555839588    -3.06194479365997
H   12   1    -1.07974048864772     3.03851734677796    -2.43674295017013
C   13   6    -4.21607110578555     2.32938802552922     0.11994162256091
H   14   1     4.24440173074564     1.93368664142019    -2.34976285512790
H   15   1     2.15020713235517     1.04714335134846    -4.81494497423699
C   16   6     5.60746363007797    -1.12419643481196    -4.70268606082550
H   17   1    -3.46838323670267     3.50951302338067     1.66946842715333
H   18   1    -5.11873485366228     0.68575958301209     1.04047743976495
C   19   6    -6.18314754751344     3.80909592987882    -1.39656589068747
H   20   1     6.93011263717176    -1.87550812453645    -3.26656317360070
C   21   6     7.06356622236532     0.52877932406334    -6.57829775293605
H   22   1     4.82318879258361    -2.78573437948532    -5.70504560381835
H   23   1    -6.91582688743803     2.61304780074712    -2.95074552451969
H   24   1    -5.26532430573853     5.45420349051338    -2.31005832200284
C   25   6    -8.39941882261433     4.73263980500213     0.21800571437956
H   26   1     7.83338371486801     2.19084139882824    -5.57093109900697
H   27   1     5.73544244039420     1.27376866537418    -8.01071492370229
C   28   6     9.21124858443101    -0.89699110072176    -7.88926949186242
H   29   1    -7.66272760055236     5.92277078003992     1.77035591474408
H   30   1    -9.31497248082589     3.08753015622020     1.12614408368786
C   31   6   -10.35481709231879     6.21833079391143    -1.30905206253246
H   32   1    10.58815905329501    -1.61074586756696    -6.49512691622620
H   33   1    10.23506248045667     0.32468009384095    -9.23072870921204
H   34   1     8.47665842847139    -2.53598436989925    -8.94921964622535
H   35   1    -9.48948872868064     7.90013588951020    -2.18823918416067
H   36   1   -11.93332513000955     6.86460487874102    -0.11255798845995
H   37   1   -11.15126291841033     5.04495968327630    -2.83849898862534
[GTO]
1 0
 s    8 1.00
                 11720  0.00070964594651845
                  1759  0.0054672722921914
                 400.8   0.027823118610189
                 113.7    0.10474773971146
                 37.03    0.28292084635691
                 13.27    0.44849523869833
                 5.025    0.27081688521277
                 1.013    0.01545029160744
 s    8 1.00
                 11720  -0.00031444341168873
                  1759  -0.0024821376810179
                 400.8  -0.012316355381583
                 113.7  -0.050538917343672
                 37.03   -0.13938490331632
                 13.27   -0.32507749481778
                 5.025   -0.22984830758785
                 1.013     1.0953793467883
 s    1 1.00
                0.3023                   1
 p    3 1.00
                  17.7   0.062679166281506
                 3.854    0.33353656587936
                 1.046    0.74123964163973
 p    1 1.00
                0.2753                   1
 d    1 1.00
                 1.185                   1

2 0
 s    3 1.00
                 13.01   0.033498726389998
                 1.962    0.23480080117413
                0.4446     0.8136829578829
 s    1 1.00
                 0.122                   1
 p    1 1.00
                 0.727                   1

3 0
 s    3 1.00
                 13.01   0.033498726389998
                 1.962    0.23480080117413
                0.4446     0.8136829578829
 s    1 1.00
                 0.122                   1
 p    1 1.00
                 0.727                   1

4 0
 s    8 1.00
                 11720  0.00070964594651845
                  1759  0.0054672722921914
                 400.8   0.027823118610189
                 113.7    0.10474773971146
                 37.03    0.28292084635691
                 13.27    0.44849523869833
                 5.025    0.27081688521277
                 1.013    0.01545029160744
 s    8 1.00
                 11720  -0.00031444341168873
                  1759  -0.0024821376810179
                 400.8  -0.012316355381583
                 113.7  -0.050538917343672
                 37.03   -0.13938490331632
                 13.27   -0.32507749481778
                 5.025   -0.22984830758785
                 1.013     1.0953793467883
 s    1 1.00
                0.3023                   1
 p    3 1.00
                  17.7   0.062679166281506
                 3.854    0.33353656587936
                 1.046    0.74123964163973
 p    1 1.00
                0.2753                   1
 d    1 1.00
                 1.185                   1

5 0
 s    8 1.00
                  6665  0.00069158396281299
                  1000  0.0053257961529341
                   228   0.027060721042034
                 64.71    0.10165684614077
                 21.06     0.2745748236174
                 7.495    0.44829431892377
                 2.797    0.28490261071525
                0.5215   0.015194859206082
 s    8 1.00
                  6665  -0.00029326965268655
                  1000  -0.0023180354739745
                   228  -0.011499786038565
                 64.71  -0.046826727009787
                 21.06   -0.12846616875047
                 7.495   -0.30126627246289
                 2.797   -0.25563070233011
                0.5215      1.093793361012
 s    1 1.00
                0.1596                   1
 p    3 1.00
                 9.439   0.056979251590039
                 2.002    0.31320721150073
                0.5456    0.76037674173753
 p    1 1.00
                0.1517                   1
 d    1 1.00
                  0.55                   1

6 0
 s    8 1.00
                  6665  0.00069158396281299
                  1000  0.0053257961529341
                   228   0.027060721042034
                 64.71    0.10165684614077
                 21.06     0.2745748236174
                 7.495    0.44829431892377
                 2.797    0.28490261071525
                0.5215   0.015194859206082
 s    8 1.00
                  6665  -0.00029326965268655
                  1000  -0.0023180354739745
                   228  -0.011499786038565
                 64.71  -0.046826727009787
                 21.06   -0.12846616875047
                 7.495   -0.30126627246289
                 2.797   -0.25563070233011
                0.5215      1.093793361012
 s    1 1.00
                0.1596                   1
 p    3 1.00
                 9.439   0.056979251590039
                 2.002    0.31320721150073
                0.5456    0.76037674173753
 p    1 1.00
                0.1517                   1
 d    1 1.00
                  0.55                   1

7 0
 s    8 1.00
                  6665  0.00069158396281299
                  1000  0.0053257961529341
                   228   0.027060721042034
                 64.71    0.10165684614077
                 21.06     0.2745748236174
                 7.495    0.44829431892377
                 2.797    0.28490261071525
                0.5215   0.015194859206082
 s    8 1.00
                  6665  -0.00029326965268655
                  1000  -0.0023180354739745
                   228  -0.011499786038565
                 64.71  -0.046826727009787
                 21.06   -0.12846616875047
                 7.495   -0.30126627246289
                 2.797   -0.25563070233011
                0.5215      1.093793361012
 s    1 1.00
                0.1596                   1
 p    3 1.00
                 9.439   0.056979251590039
                 2.002    0.31320721150073
                0.5456    0.76037674173753
 p    1 1.00
                0.1517                   1
 d    1 1.00
                  0.55                   1

8 0
 s    3 1.00
                 13.01   0.033498726389998
                 1.962    0.23480080117413
                0.4446     0.8136829578829
 s    1 1.00
                 0.122                   1
 p    1 1.00
                 0.727                   1

9 0
 s    8 1.00
                  6665  0.00069158396281299
                  1000  0.0053257961529341
                   228   0.027060721042034
                 64.71    0.10165684614077
                 21.06     0.2745748236174
                 7.495    0.44829431892377
                 2.797    0.28490261071525
                0.5215   0.015194859206082
 s    8 1.00
                  6665  -0.00029326965268655
                  1000  -0.0023180354739745
                   228  -0.011499786038565
                 64.71  -0.046826727009787
                 21.06   -0.12846616875047
                 7.495   -0.30126627246289
                 2.797   -0.25563070233011
                0.5215      1.093793361012
 s    1 1.00
                0.1596                   1
 p    3 1.00
                 9.439   0.056979251590039
                 2.002    0.31320721150073
                0.5456    0.76037674173753
 p    1 1.00
                0.1517                   1
 d    1 1.00
                  0.55                   1

10 0
 s    3 1.00
                 13.01   0.033498726389998
                 1.962    0.23480080117413
                0.4446     0.8136829578829
 s    1 1.00
                 0.122                   1
 p    1 1.00
                 0.727                   1

11 0
 s    3 1.00
                 13.01   0.033498726389998
                 1.962    0.23480080117413
                0.4446     0.8136829578829
 s    1 1.00
                 0.122                   1
 p    1 1.00
                 0.727                   1

12 0
 s    3 1.00
                 13.01   0.033498726389998
                 1.962    0.23480080117413
                0.4446     0.8136829578829
 s    1 1.00
                 0.122                   1
 p    1 1.00
                 0.727                   1

13 0
 s    8 1.00
                  6665  0.00069158396281299
                  1000  0.0053257961529341
                   228   0.027060721042034
                 64.71    0.10165684614077
                 21.06     0.2745748236174
                 7.495    0.44829431892377
                 2.797    0.28490261071525
                0.5215   0.015194859206082
 s    8 1.00
                  6665  -0.00029326965268655
                  1000  -0.0023180354739745
                   228  -0.011499786038565
                 64.71  -0.046826727009787
                 21.06   -0.12846616875047
                 7.495   -0.30126627246289
                 2.797   -0.25563070233011
                0.5215      1.093793361012
 s    1 1.00
                0.1596                   1
 p    3 1.00
                 9.439   0.056979251590039
                 2.002    0.31320721150073
                0.5456    0.76037674173753
 p    1 1.00
                0.1517                   1
 d    1 1.00
                  0.55                   1

14 0
 s    3 1.00
                 13.01   0.033498726389998
                 1.962    0.23480080117413
                0.4446     0.8136829578829
 s    1 1.00
                 0.122                   1
 p    1 1.00
                 0.727                   1

15 0
 s    3 1.00
                 13.01   0.033498726389998
                 1.962    0.23480080117413
                0.4446     0.8136829578829
 s    1 1.00
                 0.122                   1
 p    1 1.00
                 0.727                   1

16 0
 s    8 1.00
                  6665  0.00069158396281299
                  1000  0.0053257961529341
                   228   0.027060721042034
                 64.71    0.10165684614077
                 21.06     0.2745748236174
                 7.495    0.44829431892377
                 2.797    0.28490261071525
                0.5215   0.015194859206082
 s    8 1.00
                  6665  -0.00029326965268655
                  1000  -0.0023180354739745
                   228  -0.011499786038565
                 64.71  -0.046826727009787
                 21.06   -0.12846616875047
                 7.495   -0.30126627246289
                 2.797   -0.25563070233011
                0.5215      1.093793361012
 s    1 1.00
                0.1596                   1
 p    3 1.00
                 9.439   0.056979251590039
                 2.002    0.31320721150073
                0.5456    0.76037674173753
 p    1 1.00
                0.1517                   1
 d    1 1.00
                  0.55                   1

17 0
 s    3 1.00
                 13.01   0.033498726389998
                 1.962    0.23480080117413
                0.4446     0.8136829578829
 s    1 1.00
                 0.122                   1
 p    1 1.00
                 0.727                   1

18 0
 s    3 1.00
                 13.01   0.033498726389998
                 1.962    0.23480080117413
                0.4446     0.8136829578829
 s    1 1.00
                 0.122                   1
 p    1 1.00
                 0.727                   1

19 0
 s    8 1.00
                  6665  0.00069158396281299
                  1000  0.0053257961529341
                   228   0.027060721042034
                 64.71    0.10165684614077
                 21.06     0.2745748236174
                 7.495    0.44829431892377
                 2.797    0.28490261071525
                0.5215   0.015194859206082
 s    8 1.00
                  6665  -0.00029326965268655
                  1000  -0.0023180354739745
                   228  -0.011499786038565
                 64.71  -0.046826727009787
                 21.06   -0.12846616875047
                 7.495   -0.30126627246289
                 2.797   -0.25563070233011
                0.5215      1.093793361012
 s    1 1.00
                0.1596                   1
 p    3 1.00
                 9.439   0.056979251590039
                 2.002    0.31320721150073
                0.5456    0.76037674173753
 p    1 1.00
                0.1517                   1
 d    1 1.00
                  0.55                   1

20 0
 s    3 1.00
                 13.01   0.033498726389998
                 1.962    0.23480080117413
                0.4446     0.8136829578829
 s    1 1.00
                 0.122                   1
 p    1 1.00
                 0.727                   1

21 0
 s    8 1.00
                  6665  0.00069158396281299
                  1000  0.0053257961529341
                   228   0.027060721042034
                 64.71    0.10165684614077
                 21.06     0.2745748236174
                 7.495    0.44829431892377
                 2.797    0.28490261071525
                0.5215   0.015194859206082
 s    8 1.00
                  6665  -0.00029326965268655
                  1000  -0.0023180354739745
                   228  -0.011499786038565
                 64.71  -0.046826727009787
                 21.06   -0.12846616875047
                 7.495   -0.30126627246289
                 2.797   -0.25563070233011
                0.5215      1.093793361012
 s    1 1.00
                0.1596                   1
 p    3 1.00
                 9.439   0.056979251590039
                 2.002    0.31320721150073
                0.5456    0.76037674173753
 p    1 1.00
                0.1517                   1
 d    1 1.00
                  0.55                   1

22 0
 s    3 1.00
                 13.01   0.033498726389998
                 1.962    0.23480080117413
                0.4446     0.8136829578829
 s    1 1.00
                 0.122                   1
 p    1 1.00
                 0.727                   1

23 0
 s    3 1.00
                 13.01   0.033498726389998
                 1.962    0.23480080117413
                0.4446     0.8136829578829
 s    1 1.00
                 0.122                   1
 p    1 1.00
                 0.727                   1

24 0
 s    3 1.00
                 13.01   0.033498726389998
                 1.962    0.23480080117413
                0.4446     0.8136829578829
 s    1 1.00
                 0.122                   1
 p    1 1.00
                 0.727                   1

25 0
 s    8 1.00
                  6665  0.00069158396281299
                  1000  0.0053257961529341
                   228   0.027060721042034
                 64.71    0.10165684614077
                 21.06     0.2745748236174
                 7.495    0.44829431892377
                 2.797    0.28490261071525
                0.5215   0.015194859206082
 s    8 1.00
                  6665  -0.00029326965268655
                  1000  -0.0023180354739745
                   228  -0.011499786038565
                 64.71  -0.046826727009787
                 21.06   -0.12846616875047
                 7.495   -0.30126627246289
                 2.797   -0.25563070233011
                0.5215      1.093793361012
 s    1 1.00
                0.1596                   1
 p    3 1.00
                 9.439   0.056979251590039
                 2.002    0.31320721150073
                0.5456    0.76037674173753
 p    1 1.00
                0.1517                   1
 d    1 1.00
                  0.55                   1

26 0
 s    3 1.00
                 13.01   0.033498726389998
                 1.962    0.23480080117413
                0.4446     0.8136829578829
 s    1 1.00
                 0.122                   1
 p    1 1.00
                 0.727                   1

27 0
 s    3 1.00
                 13.01   0.033498726389998
                 1.962    0.23480080117413
                0.4446     0.8136829578829
 s    1 1.00
                 0.122                   1
 p    1 1.00
                 0.727                   1

28 0
 s    8 1.00
                  6665  0.00069158396281299
                  1000  0.0053257961529341
                   228   0.027060721042034
                 64.71    0.10165684614077
                 21.06     0.2745748236174
                 7.495    0.44829431892377
                 2.797    0.28490261071525
                0.5215   0.015194859206082
 s    8 1.00
                  6665  -0.00029326965268655
                  1000  -0.0023180354739745
                   228  -0.011499786038565
                 64.71  -0.046826727009787
                 21.06   -0.12846616875047
                 7.495   -0.30126627246289
                 2.797   -0.25563070233011
                0.5215      1.093793361012
 s    1 1.00
                0.1596                   1
 p    3 1.00
                 9.439   0.056979251590039
                 2.002    0.31320721150073
                0.5456    0.76037674173753
 p    1 1.00
                0.1517                   1
 d    1 1.00
                  0.55                   1

29 0
 s    3 1.00
                 13.01   0.033498726389998
                 1.962    0.23480080117413
                0.4446     0.8136829578829
 s    1 1.00
                 0.122                   1
 p    1 1.00
                 0.727                   1

30 0
 s    3 1.00
                 13.01   0.033498726389998
                 1.962    0.23480080117413
                0.4446     0.8136829578829
 s    1 1.00
                 0.122                   1
 p    1 1.00
                 0.727                   1

31 0
 s    8 1.00
                  6665  0.00069158396281299
                  1000  0.0053257961529341
                   228   0.027060721042034
                 64.71    0.10165684614077
                 21.06     0.2745748236174
                 7.495    0.44829431892377
                 2.797    0.28490261071525
                0.5215   0.015194859206082
 s    8 1.00
                  6665  -0.00029326965268655
                  1000  -0.0023180354739745
                   228  -0.011499786038565
                 64.71  -0.046826727009787
                 21.06   -0.12846616875047
                 7.495   -0.30126627246289
                 2.797   -0.25563070233011
                0.5215      1.093793361012
 s    1 1.00
                0.1596                   1
 p    3 1.00
                 9.439   0.056979251590039
                 2.002    0.31320721150073
                0.5456    0.76037674173753
 p    1 1.00
                0.1517                   1
 d    1 1.00
                  0.55                   1

32 0
 s    3 1.00
                 13.01   0.033498726389998
                 1.962    0.23480080117413
                0.4446     0.8136829578829
 s    1 1.00
                 0.122                   1
 p    1 1.00
                 0.727                   1

33 0
 s    3 1.00
                 13.01   0.033498726389998
                 1.962    0.23480080117413
                0.4446     0.8136829578829
 s    1 1.00
                 0.122                   1
 p    1 1.00
                 0.727                   1

34 0
 s    3 1.00
                 13.01   0.033498726389998
                 1.962    0.23480080117413
                0.4446     0.8136829578829
 s    1 1.00
                 0.122                   1
 p    1 1.00
                 0.727                   1

35 0
 s    3 1.00
                 13.01   0.033498726389998
                 1.962    0.23480080117413
                0.4446     0.8136829578829
 s    1 1.00
                 0.122                   1
 p    1 1.00
                 0.727                   1

36 0
 s    3 1.00
                 13.01   0.033498726389998
                 1.962    0.23480080117413
                0.4446     0.8136829578829
 s    1 1.00
                 0.122                   1
 p    1 1.00
                 0.727                   1

37 0
 s    3 1.00
                 13.01   0.033498726389998
                 1.962    0.23480080117413
                0.4446     0.8136829578829
 s    1 1.00
                 0.122                   1
 p    1 1.00
                 0.727                   1

[5d]
[7f]
[9g]

[MO]
 Sym= A
 Ene=               0
 Spin= Alpha
 Occup=    1.00000
   1    -7.0478426001375e-05
   2    -5.2570307020385e-05
   3    0.00013265875176464
   4    2.048326771211e-08
   5    5.947046036847e-06
   6    1.5764512166005e-05
   7    4.1719741081108e-07
   8    -2.5936638704291e-05
   9    -7.3494166393964e-05
  10    4.241636792898e-06
  11    -9.840473982887e-08
  12    3.6594505060797e-07
  13    5.7599340076634e-07
  14    9.9992269352731e-09
  15    -2.1717111691217e-05
  16    -0.00021615064496569
  17    -4.1504866215971e-07
  18    2.2446702936859e-06
  19    1.4900610632693e-05
  20    -5.6377375496008e-06
  21    6.6860801140889e-05
  22    1.5090197952564e-07
  23    -2.563478139113e-06
  24    -2.9776844328674e-07
  25       1.0013774605952
  26    0.0019865770773753
  27    -0.0069251297802855
  28    -5.1092021605127e-06
  29    1.0484920603344e-05
  30    -0.001641153722216
  31    -3.2820885777787e-07
  32    -2.6739758972561e-06
  33    0.0019358161990742
  34    0.00011218457915893
  35    -2.8349001447036e-06
  36    1.4851528395868e-06
  37    6.6642824554513e-05
  38    -0.00017346057243526
  39    0.00028720934596616
  40    0.00040125916186551
  41     0.001518646325857
  42    1.5881410420352e-05
  43    -9.9941704552534e-06
  44    1.9397510446351e-05
  45    8.284848605567e-05
  46    -6.5717304362255e-05
  47     0.003658088133641
  48    -0.0005094584776802
  49    -8.2372868987995e-06
  50    2.6105180662737e-06
  51    2.9875449143573e-05
  52    -0.00011028993271449
  53    -8.4472374574729e-05
  54    -0.00016529629742487
  55    0.0013852848216929
  56    7.8551502703873e-05
  57    -7.2643224733401e-06
  58    -3.4523165401982e-05
  59    -0.00042719910402467
  60    0.00048171093211153
  61    -0.00096750055279144
  62    -0.00011622752594719
  63    0.00014979220954262
  64    -0.00014324951971096
  65    5.4328187211584e-05
  66    -0.0001274059551272
  67    -3.875669370038e-05
  68    -9.5709916460618e-05
  69    0.00051887264000035
  70    -6.1867895133195e-05
  71    4.0986878435286e-05
  72    -6.1908762477103e-05
  73    0.0010151240326215
  74    -0.00078029380448897
  75    -0.00065847550464368
  76    -0.00013960660454439
  77    -0.00012125776632769
  78    8.9771221902556e-05
  79    5.8391811932703e-05
  80    -0.00015004270819908
  81    -6.0028793751096e-05
  82    0.00021542092126834
  83    6.6847487213942e-05
  84    -4.9107339896926e-05
  85    4.7485978284713e-05
  86    2.5059881721869e-05
  87    4.9030358897242e-05
  88    -0.00062049084444442
  89    -1.5662834953094e-05
  90    -1.7237550158656e-05
  91    1.135325450618e-05
  92    0.00026144293572825
  93    0.00064568111852221
  94    -1.269051865995e-05
  95    1.883423823303e-05
  96     1.14952715072e-05
  97    7.9360166565688e-06
  98    -1.9637261828788e-05
  99    -4.7965899168349e-05
 100    -4.0389218088795e-05
 101    -0.00016412887433557
 102    6.9834368064499e-06
 103    -1.0565395979565e-05
 104    7.677095459669e-05
 105    -1.9348548611581e-05
 106    -0.00020598780257529
 107    -6.3969553583051e-05
 108    8.6900536038712e-06
 109    7.6053744524016e-05
 110    7.7944702963567e-05
 111    -6.4978102915224e-05
 112    -4.4377411744374e-05
 113    1.9829907471799e-05
 114    7.1110335566754e-05
 115    -4.839641015026e-05
 116    -9.8632502954377e-05
 117    0.00085087961393392
 118    -2.4676529812617e-05
 119    -1.1068311366462e-05
 120    3.2184768317375e-05
 121    0.00028570924017535
 122    3.6228784182154e-05
 123    -0.00015288300545607
 124    -6.1295187815232e-06
 125    1.1158423876634e-05
 126    1.4973480231898e-05
 127    -3.2206261528819e-05
 128    5.0753906979708e-05
 129    -1.9864633984161e-05
 130    -0.00033422387177245
 131    7.9878866901461e-06
 132    5.982409131482e-06
 133    2.9569689849059e-05
 134    2.5784757560841e-05
 135    -0.00011728344419579
 136    -1.3731154522227e-05
 137    -2.5059684634862e-05
 138    -2.7310763233363e-05
 139    -2.1837312476939e-05
 140    -3.979510008803e-05
 141    0.00030164868955984
 142    7.7747368192678e-06
 143    -2.8623497891187e-06
 144    -6.0473534787395e-06
 145    -0.0002316333182384
 146    5.784270686732e-05
 147    6.0581437280209e-05
 148    -2.5481625722175e-06
 149    3.2325348606272e-06
 150    -4.3171240620717e-06
 151    1.2547135805247e-05
 152    -4.8344504315423e-06
 153    -9.7355547610529e-05
 154    -9.9003063871994e-05
 155    -2.6617737569349e-05
 156    2.8251399497243e-05
 157    1.9278162071987e-05
 158    -2.5913033203357e-05
 159    -8.6932518115473e-05
 160    -5.9126679833807e-05
 161    -7.2933616240283e-06
 162    6.679220607758e-06
 163    8.1727113576152e-07
 164    -5.2170609942236e-06
 165    -0.00025852946607569
 166    -1.7354690761734e-05
 167    1.3439867945182e-05
 168    7.0709332026688e-06
 169    0.00023438895751875
 170    -0.00021022482886587
 171    -0.00013848494412151
 172    -2.4791922683706e-06
 173    1.013689421992e-05
 174    -1.3603487076873e-05
 175    3.1235824870478e-06
 176    -1.7846681495287e-05
 177    -1.6374820941619e-05
 178    8.5958158422549e-05
 179    -1.1031356264251e-06
 180    1.7144222180991e-06
 181    -4.7560087137786e-06
 182    2.1828287775176e-05
 183    2.8714621366414e-05
 184    -7.5292888826469e-05
 185    -4.4476199148698e-06
 186    3.8440778292619e-06
 187    5.2201057271591e-06
 188    0.00013033509037395
 189    -0.00010202832916808
 190    -8.9706823608148e-05
 191    1.2419865316715e-06
 192    2.2172171163991e-06
 193    -7.6044243982626e-06
 194    -3.0160106159411e-06
 195    -5.5325792343559e-06
 196    -1.3378891702798e-05
 197    -1.9299217520169e-05
 198    5.6662055906758e-06
 199    1.930514177292e-06
 200    -3.2857690103497e-06
 201    -1.3476052842087e-05
 202    2.2668582672982e-06
 203    -1.3351453203356e-05
 204    9.8133157092115e-06
 205    1.1740673197105e-05
 206    7.8463924651732e-06
 207    6.818642318825e-05
 208    -1.600077024219e-05
 209    3.9808226878907e-06
 210    1.5809452961455e-05
 211    4.122881272545e-06
 212    -3.5935757623564e-05
 213    0.00026129355567037
 214    6.1862398965742e-06
 215    -5.0115985847447e-06
 216    -4.8431225865377e-06
 217    0.00019493186440821
 218    -5.3731757534472e-05
 219    -7.8011802497278e-05
 220    -2.0837057206447e-06
 221    -1.6620318832088e-05
 222    5.8324847990243e-06
 223    9.4699159116352e-06
 224    -1.4863897724136e-06
 225    2.6486434570232e-05
 226    5.6058074046875e-05
 227    -1.2525704077178e-05
 228    -2.1050646474013e-06
 229    -9.8872490099013e-07
 230    1.0305090245638e-05
 231    5.4431677193208e-05
 232    -4.0518585067754e-06
 233    6.4419690665924e-06
 234    1.2147606515736e-05
 235    2.8443752971154e-06
 236    2.0643282633827e-06
 237    -7.8450527482456e-05
 238    2.5401423393439e-06
 239    2.587165896672e-06
 240    -4.3501697880396e-06
 241    3.6360428237557e-05
 242    -6.3327711457684e-05
 243    1.7883593794036e-05
 244    1.9622245597448e-06
 245    1.8455443056705e-06
 246    -1.9172085943122e-06
 247    1.4927706318883e-07
 248    9.4486782315801e-07
 249    -1.9967682378217e-05
 250    1.0629103335035e-05
 251    -4.3283282903817e-06
 252    -6.7403739622128e-07
 253     3.06042749132e-07
 254    -1.6722845245139e-05
 255    5.5647988455894e-05
 256    1.3030986502658e-07
 257    4.1558582399086e-06
 258    -7.7120792955493e-07
 259    -1.847299270316e-05
 260    -2.7462724040921e-05
 261    6.9465863993898e-05
 262    -8.7353360639906e-06