[Molden Format]
made by pyscf v[2.0.1]
[Atoms] (AU)
O   1   8     0.00000000000000     0.00000000000000     7.91818878616346
H   2   1     0.00000000000000     0.00000000000000     6.09478696426249
H   3   1    -0.05031916615174     1.78353065140343     8.29406048263013
O   4   8     0.00000000000000     0.00000000000000     2.31533471513237
C   5   6     0.00000000000000     0.00000000000000     0.00000000000000
C   6   6     2.01118073026938    -1.40227222164369    -1.50774939176400
C   7   6    -2.01249334291722     1.41331050329955    -1.50315905028694
H   8   1     3.32037363730244    -2.26721897153159    -0.13599698591495
C   9   6     3.45899267434009     0.28739631745591    -3.37437943254505
H   10   1     1.07662969841332    -2.94725144642667    -2.56541439481080
H   11   1    -2.67503415753480     0.18421555839588    -3.06194479365997
H   12   1    -1.07974048864772     3.03851734677796    -2.43674295017013
C   13   6    -4.21607110578555     2.32938802552922     0.11994162256091
H   14   1     4.24440173074564     1.93368664142019    -2.34976285512790
H   15   1     2.15020713235517     1.04714335134846    -4.81494497423699
C   16   6     5.60746363007797    -1.12419643481196    -4.70268606082550
H   17   1    -3.46838323670267     3.50951302338067     1.66946842715333
H   18   1    -5.11873485366228     0.68575958301209     1.04047743976495
C   19   6    -6.18314754751344     3.80909592987882    -1.39656589068747
H   20   1     6.93011263717176    -1.87550812453645    -3.26656317360070
C   21   6     7.06356622236532     0.52877932406334    -6.57829775293605
H   22   1     4.82318879258361    -2.78573437948532    -5.70504560381835
H   23   1    -6.91582688743803     2.61304780074712    -2.95074552451969
H   24   1    -5.26532430573853     5.45420349051338    -2.31005832200284
C   25   6    -8.39941882261433     4.73263980500213     0.21800571437956
H   26   1     7.83338371486801     2.19084139882824    -5.57093109900697
H   27   1     5.73544244039420     1.27376866537418    -8.01071492370229
C   28   6     9.21124858443101    -0.89699110072176    -7.88926949186242
H   29   1    -7.66272760055236     5.92277078003992     1.77035591474408
H   30   1    -9.31497248082589     3.08753015622020     1.12614408368786
C   31   6   -10.35481709231879     6.21833079391143    -1.30905206253246
H   32   1    10.58815905329501    -1.61074586756696    -6.49512691622620
H   33   1    10.23506248045667     0.32468009384095    -9.23072870921204
H   34   1     8.47665842847139    -2.53598436989925    -8.94921964622535
H   35   1    -9.48948872868064     7.90013588951020    -2.18823918416067
H   36   1   -11.93332513000955     6.86460487874102    -0.11255798845995
H   37   1   -11.15126291841033     5.04495968327630    -2.83849898862534
[GTO]
1 0
 s    8 1.00
                 11720  0.00070964594651845
                  1759  0.0054672722921914
                 400.8   0.027823118610189
                 113.7    0.10474773971146
                 37.03    0.28292084635691
                 13.27    0.44849523869833
                 5.025    0.27081688521277
                 1.013    0.01545029160744
 s    8 1.00
                 11720  -0.00031444341168873
                  1759  -0.0024821376810179
                 400.8  -0.012316355381583
                 113.7  -0.050538917343672
                 37.03   -0.13938490331632
                 13.27   -0.32507749481778
                 5.025   -0.22984830758785
                 1.013     1.0953793467883
 s    1 1.00
                0.3023                   1
 p    3 1.00
                  17.7   0.062679166281506
                 3.854    0.33353656587936
                 1.046    0.74123964163973
 p    1 1.00
                0.2753                   1
 d    1 1.00
                 1.185                   1

2 0
 s    3 1.00
                 13.01   0.033498726389998
                 1.962    0.23480080117413
                0.4446     0.8136829578829
 s    1 1.00
                 0.122                   1
 p    1 1.00
                 0.727                   1

3 0
 s    3 1.00
                 13.01   0.033498726389998
                 1.962    0.23480080117413
                0.4446     0.8136829578829
 s    1 1.00
                 0.122                   1
 p    1 1.00
                 0.727                   1

4 0
 s    8 1.00
                 11720  0.00070964594651845
                  1759  0.0054672722921914
                 400.8   0.027823118610189
                 113.7    0.10474773971146
                 37.03    0.28292084635691
                 13.27    0.44849523869833
                 5.025    0.27081688521277
                 1.013    0.01545029160744
 s    8 1.00
                 11720  -0.00031444341168873
                  1759  -0.0024821376810179
                 400.8  -0.012316355381583
                 113.7  -0.050538917343672
                 37.03   -0.13938490331632
                 13.27   -0.32507749481778
                 5.025   -0.22984830758785
                 1.013     1.0953793467883
 s    1 1.00
                0.3023                   1
 p    3 1.00
                  17.7   0.062679166281506
                 3.854    0.33353656587936
                 1.046    0.74123964163973
 p    1 1.00
                0.2753                   1
 d    1 1.00
                 1.185                   1

5 0
 s    8 1.00
                  6665  0.00069158396281299
                  1000  0.0053257961529341
                   228   0.027060721042034
                 64.71    0.10165684614077
                 21.06     0.2745748236174
                 7.495    0.44829431892377
                 2.797    0.28490261071525
                0.5215   0.015194859206082
 s    8 1.00
                  6665  -0.00029326965268655
                  1000  -0.0023180354739745
                   228  -0.011499786038565
                 64.71  -0.046826727009787
                 21.06   -0.12846616875047
                 7.495   -0.30126627246289
                 2.797   -0.25563070233011
                0.5215      1.093793361012
 s    1 1.00
                0.1596                   1
 p    3 1.00
                 9.439   0.056979251590039
                 2.002    0.31320721150073
                0.5456    0.76037674173753
 p    1 1.00
                0.1517                   1
 d    1 1.00
                  0.55                   1

6 0
 s    8 1.00
                  6665  0.00069158396281299
                  1000  0.0053257961529341
                   228   0.027060721042034
                 64.71    0.10165684614077
                 21.06     0.2745748236174
                 7.495    0.44829431892377
                 2.797    0.28490261071525
                0.5215   0.015194859206082
 s    8 1.00
                  6665  -0.00029326965268655
                  1000  -0.0023180354739745
                   228  -0.011499786038565
                 64.71  -0.046826727009787
                 21.06   -0.12846616875047
                 7.495   -0.30126627246289
                 2.797   -0.25563070233011
                0.5215      1.093793361012
 s    1 1.00
                0.1596                   1
 p    3 1.00
                 9.439   0.056979251590039
                 2.002    0.31320721150073
                0.5456    0.76037674173753
 p    1 1.00
                0.1517                   1
 d    1 1.00
                  0.55                   1

7 0
 s    8 1.00
                  6665  0.00069158396281299
                  1000  0.0053257961529341
                   228   0.027060721042034
                 64.71    0.10165684614077
                 21.06     0.2745748236174
                 7.495    0.44829431892377
                 2.797    0.28490261071525
                0.5215   0.015194859206082
 s    8 1.00
                  6665  -0.00029326965268655
                  1000  -0.0023180354739745
                   228  -0.011499786038565
                 64.71  -0.046826727009787
                 21.06   -0.12846616875047
                 7.495   -0.30126627246289
                 2.797   -0.25563070233011
                0.5215      1.093793361012
 s    1 1.00
                0.1596                   1
 p    3 1.00
                 9.439   0.056979251590039
                 2.002    0.31320721150073
                0.5456    0.76037674173753
 p    1 1.00
                0.1517                   1
 d    1 1.00
                  0.55                   1

8 0
 s    3 1.00
                 13.01   0.033498726389998
                 1.962    0.23480080117413
                0.4446     0.8136829578829
 s    1 1.00
                 0.122                   1
 p    1 1.00
                 0.727                   1

9 0
 s    8 1.00
                  6665  0.00069158396281299
                  1000  0.0053257961529341
                   228   0.027060721042034
                 64.71    0.10165684614077
                 21.06     0.2745748236174
                 7.495    0.44829431892377
                 2.797    0.28490261071525
                0.5215   0.015194859206082
 s    8 1.00
                  6665  -0.00029326965268655
                  1000  -0.0023180354739745
                   228  -0.011499786038565
                 64.71  -0.046826727009787
                 21.06   -0.12846616875047
                 7.495   -0.30126627246289
                 2.797   -0.25563070233011
                0.5215      1.093793361012
 s    1 1.00
                0.1596                   1
 p    3 1.00
                 9.439   0.056979251590039
                 2.002    0.31320721150073
                0.5456    0.76037674173753
 p    1 1.00
                0.1517                   1
 d    1 1.00
                  0.55                   1

10 0
 s    3 1.00
                 13.01   0.033498726389998
                 1.962    0.23480080117413
                0.4446     0.8136829578829
 s    1 1.00
                 0.122                   1
 p    1 1.00
                 0.727                   1

11 0
 s    3 1.00
                 13.01   0.033498726389998
                 1.962    0.23480080117413
                0.4446     0.8136829578829
 s    1 1.00
                 0.122                   1
 p    1 1.00
                 0.727                   1

12 0
 s    3 1.00
                 13.01   0.033498726389998
                 1.962    0.23480080117413
                0.4446     0.8136829578829
 s    1 1.00
                 0.122                   1
 p    1 1.00
                 0.727                   1

13 0
 s    8 1.00
                  6665  0.00069158396281299
                  1000  0.0053257961529341
                   228   0.027060721042034
                 64.71    0.10165684614077
                 21.06     0.2745748236174
                 7.495    0.44829431892377
                 2.797    0.28490261071525
                0.5215   0.015194859206082
 s    8 1.00
                  6665  -0.00029326965268655
                  1000  -0.0023180354739745
                   228  -0.011499786038565
                 64.71  -0.046826727009787
                 21.06   -0.12846616875047
                 7.495   -0.30126627246289
                 2.797   -0.25563070233011
                0.5215      1.093793361012
 s    1 1.00
                0.1596                   1
 p    3 1.00
                 9.439   0.056979251590039
                 2.002    0.31320721150073
                0.5456    0.76037674173753
 p    1 1.00
                0.1517                   1
 d    1 1.00
                  0.55                   1

14 0
 s    3 1.00
                 13.01   0.033498726389998
                 1.962    0.23480080117413
                0.4446     0.8136829578829
 s    1 1.00
                 0.122                   1
 p    1 1.00
                 0.727                   1

15 0
 s    3 1.00
                 13.01   0.033498726389998
                 1.962    0.23480080117413
                0.4446     0.8136829578829
 s    1 1.00
                 0.122                   1
 p    1 1.00
                 0.727                   1

16 0
 s    8 1.00
                  6665  0.00069158396281299
                  1000  0.0053257961529341
                   228   0.027060721042034
                 64.71    0.10165684614077
                 21.06     0.2745748236174
                 7.495    0.44829431892377
                 2.797    0.28490261071525
                0.5215   0.015194859206082
 s    8 1.00
                  6665  -0.00029326965268655
                  1000  -0.0023180354739745
                   228  -0.011499786038565
                 64.71  -0.046826727009787
                 21.06   -0.12846616875047
                 7.495   -0.30126627246289
                 2.797   -0.25563070233011
                0.5215      1.093793361012
 s    1 1.00
                0.1596                   1
 p    3 1.00
                 9.439   0.056979251590039
                 2.002    0.31320721150073
                0.5456    0.76037674173753
 p    1 1.00
                0.1517                   1
 d    1 1.00
                  0.55                   1

17 0
 s    3 1.00
                 13.01   0.033498726389998
                 1.962    0.23480080117413
                0.4446     0.8136829578829
 s    1 1.00
                 0.122                   1
 p    1 1.00
                 0.727                   1

18 0
 s    3 1.00
                 13.01   0.033498726389998
                 1.962    0.23480080117413
                0.4446     0.8136829578829
 s    1 1.00
                 0.122                   1
 p    1 1.00
                 0.727                   1

19 0
 s    8 1.00
                  6665  0.00069158396281299
                  1000  0.0053257961529341
                   228   0.027060721042034
                 64.71    0.10165684614077
                 21.06     0.2745748236174
                 7.495    0.44829431892377
                 2.797    0.28490261071525
                0.5215   0.015194859206082
 s    8 1.00
                  6665  -0.00029326965268655
                  1000  -0.0023180354739745
                   228  -0.011499786038565
                 64.71  -0.046826727009787
                 21.06   -0.12846616875047
                 7.495   -0.30126627246289
                 2.797   -0.25563070233011
                0.5215      1.093793361012
 s    1 1.00
                0.1596                   1
 p    3 1.00
                 9.439   0.056979251590039
                 2.002    0.31320721150073
                0.5456    0.76037674173753
 p    1 1.00
                0.1517                   1
 d    1 1.00
                  0.55                   1

20 0
 s    3 1.00
                 13.01   0.033498726389998
                 1.962    0.23480080117413
                0.4446     0.8136829578829
 s    1 1.00
                 0.122                   1
 p    1 1.00
                 0.727                   1

21 0
 s    8 1.00
                  6665  0.00069158396281299
                  1000  0.0053257961529341
                   228   0.027060721042034
                 64.71    0.10165684614077
                 21.06     0.2745748236174
                 7.495    0.44829431892377
                 2.797    0.28490261071525
                0.5215   0.015194859206082
 s    8 1.00
                  6665  -0.00029326965268655
                  1000  -0.0023180354739745
                   228  -0.011499786038565
                 64.71  -0.046826727009787
                 21.06   -0.12846616875047
                 7.495   -0.30126627246289
                 2.797   -0.25563070233011
                0.5215      1.093793361012
 s    1 1.00
                0.1596                   1
 p    3 1.00
                 9.439   0.056979251590039
                 2.002    0.31320721150073
                0.5456    0.76037674173753
 p    1 1.00
                0.1517                   1
 d    1 1.00
                  0.55                   1

22 0
 s    3 1.00
                 13.01   0.033498726389998
                 1.962    0.23480080117413
                0.4446     0.8136829578829
 s    1 1.00
                 0.122                   1
 p    1 1.00
                 0.727                   1

23 0
 s    3 1.00
                 13.01   0.033498726389998
                 1.962    0.23480080117413
                0.4446     0.8136829578829
 s    1 1.00
                 0.122                   1
 p    1 1.00
                 0.727                   1

24 0
 s    3 1.00
                 13.01   0.033498726389998
                 1.962    0.23480080117413
                0.4446     0.8136829578829
 s    1 1.00
                 0.122                   1
 p    1 1.00
                 0.727                   1

25 0
 s    8 1.00
                  6665  0.00069158396281299
                  1000  0.0053257961529341
                   228   0.027060721042034
                 64.71    0.10165684614077
                 21.06     0.2745748236174
                 7.495    0.44829431892377
                 2.797    0.28490261071525
                0.5215   0.015194859206082
 s    8 1.00
                  6665  -0.00029326965268655
                  1000  -0.0023180354739745
                   228  -0.011499786038565
                 64.71  -0.046826727009787
                 21.06   -0.12846616875047
                 7.495   -0.30126627246289
                 2.797   -0.25563070233011
                0.5215      1.093793361012
 s    1 1.00
                0.1596                   1
 p    3 1.00
                 9.439   0.056979251590039
                 2.002    0.31320721150073
                0.5456    0.76037674173753
 p    1 1.00
                0.1517                   1
 d    1 1.00
                  0.55                   1

26 0
 s    3 1.00
                 13.01   0.033498726389998
                 1.962    0.23480080117413
                0.4446     0.8136829578829
 s    1 1.00
                 0.122                   1
 p    1 1.00
                 0.727                   1

27 0
 s    3 1.00
                 13.01   0.033498726389998
                 1.962    0.23480080117413
                0.4446     0.8136829578829
 s    1 1.00
                 0.122                   1
 p    1 1.00
                 0.727                   1

28 0
 s    8 1.00
                  6665  0.00069158396281299
                  1000  0.0053257961529341
                   228   0.027060721042034
                 64.71    0.10165684614077
                 21.06     0.2745748236174
                 7.495    0.44829431892377
                 2.797    0.28490261071525
                0.5215   0.015194859206082
 s    8 1.00
                  6665  -0.00029326965268655
                  1000  -0.0023180354739745
                   228  -0.011499786038565
                 64.71  -0.046826727009787
                 21.06   -0.12846616875047
                 7.495   -0.30126627246289
                 2.797   -0.25563070233011
                0.5215      1.093793361012
 s    1 1.00
                0.1596                   1
 p    3 1.00
                 9.439   0.056979251590039
                 2.002    0.31320721150073
                0.5456    0.76037674173753
 p    1 1.00
                0.1517                   1
 d    1 1.00
                  0.55                   1

29 0
 s    3 1.00
                 13.01   0.033498726389998
                 1.962    0.23480080117413
                0.4446     0.8136829578829
 s    1 1.00
                 0.122                   1
 p    1 1.00
                 0.727                   1

30 0
 s    3 1.00
                 13.01   0.033498726389998
                 1.962    0.23480080117413
                0.4446     0.8136829578829
 s    1 1.00
                 0.122                   1
 p    1 1.00
                 0.727                   1

31 0
 s    8 1.00
                  6665  0.00069158396281299
                  1000  0.0053257961529341
                   228   0.027060721042034
                 64.71    0.10165684614077
                 21.06     0.2745748236174
                 7.495    0.44829431892377
                 2.797    0.28490261071525
                0.5215   0.015194859206082
 s    8 1.00
                  6665  -0.00029326965268655
                  1000  -0.0023180354739745
                   228  -0.011499786038565
                 64.71  -0.046826727009787
                 21.06   -0.12846616875047
                 7.495   -0.30126627246289
                 2.797   -0.25563070233011
                0.5215      1.093793361012
 s    1 1.00
                0.1596                   1
 p    3 1.00
                 9.439   0.056979251590039
                 2.002    0.31320721150073
                0.5456    0.76037674173753
 p    1 1.00
                0.1517                   1
 d    1 1.00
                  0.55                   1

32 0
 s    3 1.00
                 13.01   0.033498726389998
                 1.962    0.23480080117413
                0.4446     0.8136829578829
 s    1 1.00
                 0.122                   1
 p    1 1.00
                 0.727                   1

33 0
 s    3 1.00
                 13.01   0.033498726389998
                 1.962    0.23480080117413
                0.4446     0.8136829578829
 s    1 1.00
                 0.122                   1
 p    1 1.00
                 0.727                   1

34 0
 s    3 1.00
                 13.01   0.033498726389998
                 1.962    0.23480080117413
                0.4446     0.8136829578829
 s    1 1.00
                 0.122                   1
 p    1 1.00
                 0.727                   1

35 0
 s    3 1.00
                 13.01   0.033498726389998
                 1.962    0.23480080117413
                0.4446     0.8136829578829
 s    1 1.00
                 0.122                   1
 p    1 1.00
                 0.727                   1

36 0
 s    3 1.00
                 13.01   0.033498726389998
                 1.962    0.23480080117413
                0.4446     0.8136829578829
 s    1 1.00
                 0.122                   1
 p    1 1.00
                 0.727                   1

37 0
 s    3 1.00
                 13.01   0.033498726389998
                 1.962    0.23480080117413
                0.4446     0.8136829578829
 s    1 1.00
                 0.122                   1
 p    1 1.00
                 0.727                   1

[5d]
[7f]
[9g]

[MO]
 Sym= A
 Ene=               0
 Spin= Alpha
 Occup=    1.00000
   1    7.0566867277695e-05
   2    4.4058856588062e-05
   3    -0.0001388817730879
   4    -2.7429257803406e-07
   5    -5.2498896118942e-06
   6    -5.4101576745775e-06
   7    7.1185031776044e-08
   8    2.3749588734755e-05
   9    5.504745361324e-05
  10    -6.0954379102951e-06
  11    2.2150905583032e-07
  12    -1.8504548653154e-06
  13    -1.202572369439e-06
  14    -2.5308912639906e-08
  15    5.8733046328799e-05
  16    0.00023124097792662
  17    8.0383883389894e-07
  18    -2.823442375343e-06
  19    -1.3475525933186e-05
  20    4.8459531456292e-07
  21    -5.3546834891942e-05
  22    -1.497117556743e-07
  23    -5.5573326760488e-07
  24    5.0953396483286e-06
  25      -1.0013868217253
  26    -0.0020124884755346
  27    0.0069956979684774
  28    5.3640796477462e-06
  29    -1.256789969771e-05
  30    0.0016270854213636
  31    8.4471571398836e-07
  32    3.1921621024394e-06
  33    -0.0020069279189035
  34    -0.00010538284684796
  35    2.7731791582167e-06
  36    -1.5383054152542e-06
  37    -6.5645468379306e-05
  38    0.00017091302603843
  39    -0.00029568383950627
  40    -0.00041864870139133
  41    -0.0015783043863367
  42    -1.6369262320739e-05
  43    1.0153355532476e-05
  44    -3.6154512935391e-05
  45    -9.0614853789561e-05
  46    7.122157413396e-05
  47    -0.0037265808235976
  48    0.00049455738904552
  49    8.5503484451691e-06
  50    -3.0180590655788e-06
  51    -3.0454365983691e-05
  52    0.00011183370685251
  53    8.3788843574407e-05
  54    0.00016383863150759
  55    -0.0013903966657476
  56    -7.8654787932216e-05
  57    6.7632563675322e-06
  58    3.3575469235155e-05
  59    0.00042992705029697
  60    -0.00048413779115492
  61    0.00099410720186043
  62    0.00011559536495406
  63    -0.00014976447480224
  64    0.0001435511051267
  65    -5.3897654988686e-05
  66    0.00012593584903725
  67    3.8994002301572e-05
  68    9.3590680038687e-05
  69    -0.00053850198824356
  70    6.4301974289034e-05
  71    -4.2121864231724e-05
  72    5.9218796312017e-05
  73    -0.0010233203261767
  74    0.00078792659470376
  75    0.00066711471250383
  76    0.00013941868293876
  77    0.00012100739266273
  78    -8.9672608097509e-05
  79    -5.812522867257e-05
  80    0.00014943296588184
  81    5.7334905280096e-05
  82    -0.00022159931108328
  83    -6.7376473985476e-05
  84    4.9421281078241e-05
  85    -4.6524091611262e-05
  86    -2.5072886915922e-05
  87    -4.8636754671705e-05
  88    0.00062909377774351
  89    1.5996354267213e-05
  90    1.6880221057323e-05
  91    -1.1165852433155e-05
  92    -0.00026365053462779
  93    -0.00065792568479951
  94    7.9913310624972e-06
  95    -1.9349502239497e-05
  96    -1.1586712537833e-05
  97    -8.2074707898579e-06
  98    1.9012143498741e-05
  99    4.944686573347e-05
 100    4.2115053792494e-05
 101    0.00016826631595261
 102    -5.6316300722675e-06
 103    1.0973396610362e-05
 104    -7.8249888218102e-05
 105    2.1393786642714e-05
 106    0.00021027503009393
 107    6.3828082503258e-05
 108    -7.4141185333815e-06
 109    -7.7143945904033e-05
 110    -7.7165780940395e-05
 111    6.9018719281247e-05
 112    4.3952659494101e-05
 113    -2.0576755444144e-05
 114    -7.2165513386864e-05
 115    5.0731100166757e-05
 116    9.6576669774385e-05
 117    -0.00085393796699776
 118    2.654816939545e-05
 119    8.1819548420693e-06
 120    -3.4121486805126e-05
 121    -0.00028430742099696
 122    -3.9711217136059e-05
 123    0.00015822569370638
 124    8.6863872621945e-06
 125    -6.4360950895044e-06
 126    -1.769134980528e-05
 127    3.1870639625026e-05
 128    -5.138941839006e-05
 129    2.037049560013e-05
 130    0.00034187696643534
 131    -8.2427176536943e-06
 132    -6.0491591996485e-06
 133    -2.9768063431272e-05
 134    -2.5842212189205e-05
 135    0.00011700486582909
 136    1.3882782580701e-05
 137    2.5557987333673e-05
 138    2.7845379709129e-05
 139    2.2175606007822e-05
 140    4.0208547112228e-05
 141    -0.0003115710692748
 142    -7.3648212042597e-06
 143    2.7839180909926e-06
 144    5.702235202312e-06
 145    0.00023147113879256
 146    -6.1470090009842e-05
 147    -5.7343021033096e-05
 148    2.4415243656872e-06
 149    -3.9584687729002e-06
 150    5.2063959539507e-06
 151    -1.239675294091e-05
 152    5.004102477014e-06
 153    0.0001013078365293
 154    0.00010123543830142
 155    2.6924098733637e-05
 156    -2.7906327821646e-05
 157    -1.8887943050218e-05
 158    3.0450225780718e-05
 159    9.1094566869658e-05
 160    5.9595722783356e-05
 161    7.539553752464e-06
 162    -6.618902381246e-06
 163    7.5457861295507e-05
 164    9.565601691854e-05
 165    0.00030737216815041
 166    3.7038329266598e-05
 167    -1.7858907895902e-05
 168    -0.00012042470637211
 169    -0.0002241057605812
 170    0.0002094937417263
 171    8.2993641316697e-05
 172    2.9833396527686e-06
 173    -7.9203947938302e-06
 174    1.4734180017934e-05
 175    -6.45160113298e-06
 176    2.3418585001115e-05
 177    1.5212405658266e-05
 178    -8.9210565349594e-05
 179    1.2238210413645e-06
 180    -1.6011305384439e-06
 181    4.6443884746602e-06
 182    -1.8552950701115e-05
 183    -2.2493819825687e-05
 184    8.8580613668625e-05
 185    2.2734308776593e-05
 186    -1.3126587455207e-05
 187    -4.7332474872643e-06
 188    -0.00012316392553731
 189    9.6459273661544e-05
 190    9.2672941757732e-05
 191    -1.5956220271445e-06
 192    -3.6337918927052e-06
 193    8.5397372410566e-06
 194    2.9773352726359e-06
 195    5.2565564299719e-06
 196    1.3212351721243e-05
 197    2.0088882295177e-05
 198    -5.6936019159073e-06
 199    -1.9271700859052e-06
 200    3.1022925697343e-06
 201    0.00013112545872248
 202    3.5834879803048e-05
 203    1.855902624818e-05
 204    -2.5706015087186e-06
 205    -5.434331363065e-06
 206    8.6407050763482e-05
 207    -4.1342258696482e-05
 208    1.181857042866e-05
 209    -1.2520079017991e-05
 210    -1.4545952436608e-05
 211    9.8776756750904e-06
 212    3.0408002785666e-05
 213    -0.00027101780307394
 214    -3.660656281846e-05
 215    1.3572469969759e-05
 216    2.2346920748836e-05
 217    -0.00020883253279774
 218    5.6552551686189e-05
 219    8.9362338238782e-05
 220    4.1667657543285e-06
 221    1.4174996046481e-05
 222    -4.4179818871295e-06
 223    -1.017433806222e-05
 224    2.8133305149766e-06
 225    -2.3404126361146e-05
 226    -5.6165726717403e-05
 227    1.2973286865824e-05
 228    1.6839025854561e-06
 229    8.5487162204075e-07
 230    -2.1480060388191e-05
 231    -6.0798115301888e-05
 232    4.0496624673503e-06
 233    -6.3857068169924e-06
 234    -1.275982488012e-05
 235    -5.4510090958283e-06
 236    5.2221069976092e-06
 237    8.3651319212114e-05
 238    -1.7962920016358e-05
 239    4.709458082103e-06
 240    1.0507442132092e-05
 241    -4.3870320894361e-05
 242    6.6960133075376e-05
 243    -1.5635481899471e-05
 244    -2.0719969689796e-06
 245    -2.9808941442158e-06
 246    2.8522579233492e-06
 247    -4.1510945343975e-08
 248    -1.5384371849747e-06
 249    2.8121548690221e-05
 250    -3.6001339919412e-08
 251    3.2741439250862e-06
 252    5.6249806177272e-07
 253    -7.661211663168e-08
 254    2.9218660447619e-05
 255    -4.7213674891869e-05
 256    -6.1603821608325e-07
 257    -2.9879487822041e-06
 258    1.0201553949141e-06
 259    3.125029948018e-06
 260    1.6448732712501e-05
 261    -7.8287261698364e-05
 262    6.6638569408485e-06
 263    -2.7762975021599e-06