[Molden Format]
made by pyscf v[2.0.1]
[Atoms] (AU)
O   1   8     0.00000000000000     0.00000000000000     6.40640788651141
H   2   1     0.00000000000000     0.00000000000000     4.58300606461044
H   3   1    -0.05031916615174     1.78353439551780     6.78227958297808
O   4   8     0.00000000000000     0.00000000000000     2.31533471513237
C   5   6     0.00000000000000     0.00000000000000     0.00000000000000
C   6   6     2.01118073026938    -1.40227222164369    -1.50774939176400
C   7   6    -2.01249334291722     1.41331050329955    -1.50319235519811
H   8   1     3.32037363730244    -2.26721897153159    -0.13599698591495
C   9   6     3.45899267434009     0.28739631745591    -3.37437943254505
H   10   1     1.07662969841332    -2.94725144642667    -2.56541439481080
H   11   1    -2.67503415753480     0.18421555839588    -3.06194479365997
H   12   1    -1.08005520873877     3.03851734677796    -2.43674295017013
C   13   6    -4.21607110578555     2.32938802552922     0.11994192435017
H   14   1     4.24440173074564     1.93368664387684    -2.34976285512790
H   15   1     2.18907033049676     1.04714335134846    -4.81494497423699
C   16   6     5.60746363007797    -1.12419643481196    -4.70268606082550
H   17   1    -3.46838323670267     3.50951302338067     1.66946842715333
H   18   1    -5.11873485366228     0.68575958301209     1.04047743976495
C   19   6    -6.18314754751344     3.80909592987882    -1.39656589068747
H   20   1     6.93011263717176    -1.87550812453645    -3.26656317360070
C   21   6     7.10306991577580     0.52877932406334    -6.57829775293605
H   22   1     4.82318879258361    -2.78573437948532    -5.70504560381835
H   23   1    -6.91582688743803     2.61304780074712    -2.95074552451969
H   24   1    -5.26532430573853     5.45420349051338    -2.31005832200284
C   25   6    -8.39941882261433     4.73263980500213     0.21800571437956
H   26   1     7.83338371486801     2.19084139882824    -5.57093109900697
H   27   1     5.73544244039420     1.27376866537418    -8.01071492370229
C   28   6     9.21124858443101    -0.89699110072176    -7.88926949186242
H   29   1    -7.66272760055236     5.92277078003992     1.77035591474408
H   30   1    -9.31497248082589     3.08753015622020     1.12614408368786
C   31   6   -10.35481709231879     6.21833079391143    -1.30905206253246
H   32   1    10.58815905329501    -1.61099162890610    -6.52093739071026
H   33   1    10.23506248045667     0.32468009384095    -9.23072870921204
H   34   1     8.47665842847139    -2.53598436989925    -8.94921964622535
H   35   1    -9.48948872868064     7.90013588951020    -2.18823918416067
H   36   1   -11.93332774482359     6.86460487874102    -0.11255798845995
H   37   1   -11.15126291841033     5.04495968327630    -2.83849898862534
[GTO]
1 0
 s    8 1.00
                 11720  0.00070964594651845
                  1759  0.0054672722921914
                 400.8   0.027823118610189
                 113.7    0.10474773971146
                 37.03    0.28292084635691
                 13.27    0.44849523869833
                 5.025    0.27081688521277
                 1.013    0.01545029160744
 s    8 1.00
                 11720  -0.00031444341168873
                  1759  -0.0024821376810179
                 400.8  -0.012316355381583
                 113.7  -0.050538917343672
                 37.03   -0.13938490331632
                 13.27   -0.32507749481778
                 5.025   -0.22984830758785
                 1.013     1.0953793467883
 s    1 1.00
                0.3023                   1
 p    3 1.00
                  17.7   0.062679166281506
                 3.854    0.33353656587936
                 1.046    0.74123964163973
 p    1 1.00
                0.2753                   1
 d    1 1.00
                 1.185                   1

2 0
 s    3 1.00
                 13.01   0.033498726389998
                 1.962    0.23480080117413
                0.4446     0.8136829578829
 s    1 1.00
                 0.122                   1
 p    1 1.00
                 0.727                   1

3 0
 s    3 1.00
                 13.01   0.033498726389998
                 1.962    0.23480080117413
                0.4446     0.8136829578829
 s    1 1.00
                 0.122                   1
 p    1 1.00
                 0.727                   1

4 0
 s    8 1.00
                 11720  0.00070964594651845
                  1759  0.0054672722921914
                 400.8   0.027823118610189
                 113.7    0.10474773971146
                 37.03    0.28292084635691
                 13.27    0.44849523869833
                 5.025    0.27081688521277
                 1.013    0.01545029160744
 s    8 1.00
                 11720  -0.00031444341168873
                  1759  -0.0024821376810179
                 400.8  -0.012316355381583
                 113.7  -0.050538917343672
                 37.03   -0.13938490331632
                 13.27   -0.32507749481778
                 5.025   -0.22984830758785
                 1.013     1.0953793467883
 s    1 1.00
                0.3023                   1
 p    3 1.00
                  17.7   0.062679166281506
                 3.854    0.33353656587936
                 1.046    0.74123964163973
 p    1 1.00
                0.2753                   1
 d    1 1.00
                 1.185                   1

5 0
 s    8 1.00
                  6665  0.00069158396281299
                  1000  0.0053257961529341
                   228   0.027060721042034
                 64.71    0.10165684614077
                 21.06     0.2745748236174
                 7.495    0.44829431892377
                 2.797    0.28490261071525
                0.5215   0.015194859206082
 s    8 1.00
                  6665  -0.00029326965268655
                  1000  -0.0023180354739745
                   228  -0.011499786038565
                 64.71  -0.046826727009787
                 21.06   -0.12846616875047
                 7.495   -0.30126627246289
                 2.797   -0.25563070233011
                0.5215      1.093793361012
 s    1 1.00
                0.1596                   1
 p    3 1.00
                 9.439   0.056979251590039
                 2.002    0.31320721150073
                0.5456    0.76037674173753
 p    1 1.00
                0.1517                   1
 d    1 1.00
                  0.55                   1

6 0
 s    8 1.00
                  6665  0.00069158396281299
                  1000  0.0053257961529341
                   228   0.027060721042034
                 64.71    0.10165684614077
                 21.06     0.2745748236174
                 7.495    0.44829431892377
                 2.797    0.28490261071525
                0.5215   0.015194859206082
 s    8 1.00
                  6665  -0.00029326965268655
                  1000  -0.0023180354739745
                   228  -0.011499786038565
                 64.71  -0.046826727009787
                 21.06   -0.12846616875047
                 7.495   -0.30126627246289
                 2.797   -0.25563070233011
                0.5215      1.093793361012
 s    1 1.00
                0.1596                   1
 p    3 1.00
                 9.439   0.056979251590039
                 2.002    0.31320721150073
                0.5456    0.76037674173753
 p    1 1.00
                0.1517                   1
 d    1 1.00
                  0.55                   1

7 0
 s    8 1.00
                  6665  0.00069158396281299
                  1000  0.0053257961529341
                   228   0.027060721042034
                 64.71    0.10165684614077
                 21.06     0.2745748236174
                 7.495    0.44829431892377
                 2.797    0.28490261071525
                0.5215   0.015194859206082
 s    8 1.00
                  6665  -0.00029326965268655
                  1000  -0.0023180354739745
                   228  -0.011499786038565
                 64.71  -0.046826727009787
                 21.06   -0.12846616875047
                 7.495   -0.30126627246289
                 2.797   -0.25563070233011
                0.5215      1.093793361012
 s    1 1.00
                0.1596                   1
 p    3 1.00
                 9.439   0.056979251590039
                 2.002    0.31320721150073
                0.5456    0.76037674173753
 p    1 1.00
                0.1517                   1
 d    1 1.00
                  0.55                   1

8 0
 s    3 1.00
                 13.01   0.033498726389998
                 1.962    0.23480080117413
                0.4446     0.8136829578829
 s    1 1.00
                 0.122                   1
 p    1 1.00
                 0.727                   1

9 0
 s    8 1.00
                  6665  0.00069158396281299
                  1000  0.0053257961529341
                   228   0.027060721042034
                 64.71    0.10165684614077
                 21.06     0.2745748236174
                 7.495    0.44829431892377
                 2.797    0.28490261071525
                0.5215   0.015194859206082
 s    8 1.00
                  6665  -0.00029326965268655
                  1000  -0.0023180354739745
                   228  -0.011499786038565
                 64.71  -0.046826727009787
                 21.06   -0.12846616875047
                 7.495   -0.30126627246289
                 2.797   -0.25563070233011
                0.5215      1.093793361012
 s    1 1.00
                0.1596                   1
 p    3 1.00
                 9.439   0.056979251590039
                 2.002    0.31320721150073
                0.5456    0.76037674173753
 p    1 1.00
                0.1517                   1
 d    1 1.00
                  0.55                   1

10 0
 s    3 1.00
                 13.01   0.033498726389998
                 1.962    0.23480080117413
                0.4446     0.8136829578829
 s    1 1.00
                 0.122                   1
 p    1 1.00
                 0.727                   1

11 0
 s    3 1.00
                 13.01   0.033498726389998
                 1.962    0.23480080117413
                0.4446     0.8136829578829
 s    1 1.00
                 0.122                   1
 p    1 1.00
                 0.727                   1

12 0
 s    3 1.00
                 13.01   0.033498726389998
                 1.962    0.23480080117413
                0.4446     0.8136829578829
 s    1 1.00
                 0.122                   1
 p    1 1.00
                 0.727                   1

13 0
 s    8 1.00
                  6665  0.00069158396281299
                  1000  0.0053257961529341
                   228   0.027060721042034
                 64.71    0.10165684614077
                 21.06     0.2745748236174
                 7.495    0.44829431892377
                 2.797    0.28490261071525
                0.5215   0.015194859206082
 s    8 1.00
                  6665  -0.00029326965268655
                  1000  -0.0023180354739745
                   228  -0.011499786038565
                 64.71  -0.046826727009787
                 21.06   -0.12846616875047
                 7.495   -0.30126627246289
                 2.797   -0.25563070233011
                0.5215      1.093793361012
 s    1 1.00
                0.1596                   1
 p    3 1.00
                 9.439   0.056979251590039
                 2.002    0.31320721150073
                0.5456    0.76037674173753
 p    1 1.00
                0.1517                   1
 d    1 1.00
                  0.55                   1

14 0
 s    3 1.00
                 13.01   0.033498726389998
                 1.962    0.23480080117413
                0.4446     0.8136829578829
 s    1 1.00
                 0.122                   1
 p    1 1.00
                 0.727                   1

15 0
 s    3 1.00
                 13.01   0.033498726389998
                 1.962    0.23480080117413
                0.4446     0.8136829578829
 s    1 1.00
                 0.122                   1
 p    1 1.00
                 0.727                   1

16 0
 s    8 1.00
                  6665  0.00069158396281299
                  1000  0.0053257961529341
                   228   0.027060721042034
                 64.71    0.10165684614077
                 21.06     0.2745748236174
                 7.495    0.44829431892377
                 2.797    0.28490261071525
                0.5215   0.015194859206082
 s    8 1.00
                  6665  -0.00029326965268655
                  1000  -0.0023180354739745
                   228  -0.011499786038565
                 64.71  -0.046826727009787
                 21.06   -0.12846616875047
                 7.495   -0.30126627246289
                 2.797   -0.25563070233011
                0.5215      1.093793361012
 s    1 1.00
                0.1596                   1
 p    3 1.00
                 9.439   0.056979251590039
                 2.002    0.31320721150073
                0.5456    0.76037674173753
 p    1 1.00
                0.1517                   1
 d    1 1.00
                  0.55                   1

17 0
 s    3 1.00
                 13.01   0.033498726389998
                 1.962    0.23480080117413
                0.4446     0.8136829578829
 s    1 1.00
                 0.122                   1
 p    1 1.00
                 0.727                   1

18 0
 s    3 1.00
                 13.01   0.033498726389998
                 1.962    0.23480080117413
                0.4446     0.8136829578829
 s    1 1.00
                 0.122                   1
 p    1 1.00
                 0.727                   1

19 0
 s    8 1.00
                  6665  0.00069158396281299
                  1000  0.0053257961529341
                   228   0.027060721042034
                 64.71    0.10165684614077
                 21.06     0.2745748236174
                 7.495    0.44829431892377
                 2.797    0.28490261071525
                0.5215   0.015194859206082
 s    8 1.00
                  6665  -0.00029326965268655
                  1000  -0.0023180354739745
                   228  -0.011499786038565
                 64.71  -0.046826727009787
                 21.06   -0.12846616875047
                 7.495   -0.30126627246289
                 2.797   -0.25563070233011
                0.5215      1.093793361012
 s    1 1.00
                0.1596                   1
 p    3 1.00
                 9.439   0.056979251590039
                 2.002    0.31320721150073
                0.5456    0.76037674173753
 p    1 1.00
                0.1517                   1
 d    1 1.00
                  0.55                   1

20 0
 s    3 1.00
                 13.01   0.033498726389998
                 1.962    0.23480080117413
                0.4446     0.8136829578829
 s    1 1.00
                 0.122                   1
 p    1 1.00
                 0.727                   1

21 0
 s    8 1.00
                  6665  0.00069158396281299
                  1000  0.0053257961529341
                   228   0.027060721042034
                 64.71    0.10165684614077
                 21.06     0.2745748236174
                 7.495    0.44829431892377
                 2.797    0.28490261071525
                0.5215   0.015194859206082
 s    8 1.00
                  6665  -0.00029326965268655
                  1000  -0.0023180354739745
                   228  -0.011499786038565
                 64.71  -0.046826727009787
                 21.06   -0.12846616875047
                 7.495   -0.30126627246289
                 2.797   -0.25563070233011
                0.5215      1.093793361012
 s    1 1.00
                0.1596                   1
 p    3 1.00
                 9.439   0.056979251590039
                 2.002    0.31320721150073
                0.5456    0.76037674173753
 p    1 1.00
                0.1517                   1
 d    1 1.00
                  0.55                   1

22 0
 s    3 1.00
                 13.01   0.033498726389998
                 1.962    0.23480080117413
                0.4446     0.8136829578829
 s    1 1.00
                 0.122                   1
 p    1 1.00
                 0.727                   1

23 0
 s    3 1.00
                 13.01   0.033498726389998
                 1.962    0.23480080117413
                0.4446     0.8136829578829
 s    1 1.00
                 0.122                   1
 p    1 1.00
                 0.727                   1

24 0
 s    3 1.00
                 13.01   0.033498726389998
                 1.962    0.23480080117413
                0.4446     0.8136829578829
 s    1 1.00
                 0.122                   1
 p    1 1.00
                 0.727                   1

25 0
 s    8 1.00
                  6665  0.00069158396281299
                  1000  0.0053257961529341
                   228   0.027060721042034
                 64.71    0.10165684614077
                 21.06     0.2745748236174
                 7.495    0.44829431892377
                 2.797    0.28490261071525
                0.5215   0.015194859206082
 s    8 1.00
                  6665  -0.00029326965268655
                  1000  -0.0023180354739745
                   228  -0.011499786038565
                 64.71  -0.046826727009787
                 21.06   -0.12846616875047
                 7.495   -0.30126627246289
                 2.797   -0.25563070233011
                0.5215      1.093793361012
 s    1 1.00
                0.1596                   1
 p    3 1.00
                 9.439   0.056979251590039
                 2.002    0.31320721150073
                0.5456    0.76037674173753
 p    1 1.00
                0.1517                   1
 d    1 1.00
                  0.55                   1

26 0
 s    3 1.00
                 13.01   0.033498726389998
                 1.962    0.23480080117413
                0.4446     0.8136829578829
 s    1 1.00
                 0.122                   1
 p    1 1.00
                 0.727                   1

27 0
 s    3 1.00
                 13.01   0.033498726389998
                 1.962    0.23480080117413
                0.4446     0.8136829578829
 s    1 1.00
                 0.122                   1
 p    1 1.00
                 0.727                   1

28 0
 s    8 1.00
                  6665  0.00069158396281299
                  1000  0.0053257961529341
                   228   0.027060721042034
                 64.71    0.10165684614077
                 21.06     0.2745748236174
                 7.495    0.44829431892377
                 2.797    0.28490261071525
                0.5215   0.015194859206082
 s    8 1.00
                  6665  -0.00029326965268655
                  1000  -0.0023180354739745
                   228  -0.011499786038565
                 64.71  -0.046826727009787
                 21.06   -0.12846616875047
                 7.495   -0.30126627246289
                 2.797   -0.25563070233011
                0.5215      1.093793361012
 s    1 1.00
                0.1596                   1
 p    3 1.00
                 9.439   0.056979251590039
                 2.002    0.31320721150073
                0.5456    0.76037674173753
 p    1 1.00
                0.1517                   1
 d    1 1.00
                  0.55                   1

29 0
 s    3 1.00
                 13.01   0.033498726389998
                 1.962    0.23480080117413
                0.4446     0.8136829578829
 s    1 1.00
                 0.122                   1
 p    1 1.00
                 0.727                   1

30 0
 s    3 1.00
                 13.01   0.033498726389998
                 1.962    0.23480080117413
                0.4446     0.8136829578829
 s    1 1.00
                 0.122                   1
 p    1 1.00
                 0.727                   1

31 0
 s    8 1.00
                  6665  0.00069158396281299
                  1000  0.0053257961529341
                   228   0.027060721042034
                 64.71    0.10165684614077
                 21.06     0.2745748236174
                 7.495    0.44829431892377
                 2.797    0.28490261071525
                0.5215   0.015194859206082
 s    8 1.00
                  6665  -0.00029326965268655
                  1000  -0.0023180354739745
                   228  -0.011499786038565
                 64.71  -0.046826727009787
                 21.06   -0.12846616875047
                 7.495   -0.30126627246289
                 2.797   -0.25563070233011
                0.5215      1.093793361012
 s    1 1.00
                0.1596                   1
 p    3 1.00
                 9.439   0.056979251590039
                 2.002    0.31320721150073
                0.5456    0.76037674173753
 p    1 1.00
                0.1517                   1
 d    1 1.00
                  0.55                   1

32 0
 s    3 1.00
                 13.01   0.033498726389998
                 1.962    0.23480080117413
                0.4446     0.8136829578829
 s    1 1.00
                 0.122                   1
 p    1 1.00
                 0.727                   1

33 0
 s    3 1.00
                 13.01   0.033498726389998
                 1.962    0.23480080117413
                0.4446     0.8136829578829
 s    1 1.00
                 0.122                   1
 p    1 1.00
                 0.727                   1

34 0
 s    3 1.00
                 13.01   0.033498726389998
                 1.962    0.23480080117413
                0.4446     0.8136829578829
 s    1 1.00
                 0.122                   1
 p    1 1.00
                 0.727                   1

35 0
 s    3 1.00
                 13.01   0.033498726389998
                 1.962    0.23480080117413
                0.4446     0.8136829578829
 s    1 1.00
                 0.122                   1
 p    1 1.00
                 0.727                   1

36 0
 s    3 1.00
                 13.01   0.033498726389998
                 1.962    0.23480080117413
                0.4446     0.8136829578829
 s    1 1.00
                 0.122                   1
 p    1 1.00
                 0.727                   1

37 0
 s    3 1.00
                 13.01   0.033498726389998
                 1.962    0.23480080117413
                0.4446     0.8136829578829
 s    1 1.00
                 0.122                   1
 p    1 1.00
                 0.727                   1

[5d]
[7f]
[9g]

[MO]
 Sym= A
 Ene=               0
 Spin= Alpha
 Occup=    1.00000
   1    0.00010814287776542
   2    2.8000489042377e-05
   3    0.0002959022681398
   4    -1.5337400447691e-06
   5    8.3922289102591e-07
   6    -0.00012378623410719
   7    3.3432439002655e-06
   8    9.2122098685206e-06
   9    -0.00024147888580951
  10    0.00010942863227497
  11    1.151150138645e-07
  12    -1.6188443506008e-06
  13    -5.0490397728125e-06
  14    -2.7564074233477e-07
  15    -5.8186772654447e-05
  16    7.3932868507994e-05
  17    1.307589458265e-06
  18    -5.3855213116386e-06
  19    -0.00039331637360763
  20    -3.7906611135697e-05
  21    3.3989600053289e-05
  22    -2.534228765604e-07
  23    -8.7792117976072e-06
  24    5.6597427657088e-06
  25      -1.0014277024576
  26    -0.0022197049697362
  27    0.0068834238215174
  28    4.3727178396617e-06
  29    -1.8778400906548e-05
  30    0.0014800229727492
  31    -1.1265440861521e-06
  32    4.2228973145851e-06
  33    -0.0022344299841913
  34    -0.00023340368883351
  35    2.6220025275691e-06
  36    -5.5460685083764e-07
  37    -5.9619534586112e-05
  38    0.00015789647333121
  39    -0.00030081596660684
  40    -0.00042271531612156
  41    -0.0018147210300837
  42    -1.608513843329e-05
  43    1.1178971308489e-05
  44    -4.7498745925635e-05
  45    -6.404275179416e-05
  46    5.3995167262603e-05
  47    -0.0036358163462908
  48    0.00051869743685048
  49    7.7661327251881e-06
  50    -1.1870984478091e-06
  51    -3.6107292465706e-05
  52    0.00012545893146859
  53    8.5018310179573e-05
  54    0.00016722255453585
  55    -0.0013384994251903
  56    -8.2855493484705e-05
  57    1.0695077849859e-05
  58    3.9023678243505e-05
  59    0.00037344420594473
  60    -0.00045666911419939
  61    0.00097003378818754
  62    0.00011132442390435
  63    -0.00015806403134714
  64    0.00014982949466825
  65    -5.3753620472956e-05
  66    0.00012596975708273
  67    3.7388747173313e-05
  68    9.2002616971741e-05
  69    -0.00042838003745202
  70    6.9181176348435e-05
  71    -4.4427134776179e-05
  72    6.474069491067e-05
  73    -0.00096762314532878
  74    0.00073848402885373
  75    0.00068398154101503
  76    0.00013428913786404
  77    0.00012909020461958
  78    -9.4540483593615e-05
  79    -5.7382240196524e-05
  80    0.00014680697488077
  81    6.6964073421998e-05
  82    -0.00019522299973221
  83    -6.8005005655046e-05
  84    5.0277015781729e-05
  85    -5.1925665065744e-05
  86    -2.546625198342e-05
  87    -4.9771506285794e-05
  88    0.00060254993949606
  89    1.5874604053776e-05
  90    1.6001307521811e-05
  91    -1.2985320187133e-05
  92    -0.00026760639294388
  93    -0.00062938459236094
  94    3.7186427210557e-05
  95    -1.9063655379983e-05
  96    -1.094091603298e-05
  97    -6.9665927427226e-06
  98    1.9947952267071e-05
  99    5.0174506795976e-05
 100    3.5012034082607e-05
 101    0.00016395160444333
 102    -5.6753273666464e-06
 103    9.9363593397475e-06
 104    -7.6197860005817e-05
 105    1.6817286130676e-05
 106    0.00020339882289389
 107    6.2478306721194e-05
 108    -6.2353193164366e-06
 109    -7.6786315476154e-05
 110    -7.987102464708e-05
 111    7.6444279493852e-05
 112    4.3120344527218e-05
 113    -2.0065064502788e-05
 114    -7.0692348165135e-05
 115    5.6564681171833e-05
 116    0.00010646838852761
 117    -0.00090986560389166
 118    2.8179150431376e-05
 119    6.9996217487323e-06
 120    -3.621301859359e-05
 121    -0.00026310109318166
 122    -4.7394143403799e-05
 123    0.00017550458482033
 124    8.7308757162594e-06
 125    -1.0354424743971e-05
 126    -1.5525009870396e-05
 127    3.1780034242179e-05
 128    -4.835011034535e-05
 129    1.412975671746e-05
 130    0.00033066816430433
 131    -7.5919927333603e-06
 132    -5.4739488595954e-06
 133    -3.0289207074365e-05
 134    -2.065850921592e-05
 135    0.00010971625900481
 136    1.7891322346493e-05
 137    2.5366962505204e-05
 138    2.3946235912099e-05
 139    1.8729822121469e-05
 140    3.4275179123341e-05
 141    -0.00027414846623036
 142    -6.6754500549334e-06
 143    3.3836462794419e-06
 144    6.2503628173306e-06
 145    0.0001989442512487
 146    -6.0987208105606e-05
 147    -5.2661725322649e-05
 148    1.9603211588273e-06
 149    -4.692167233425e-06
 150    5.0141350367962e-06
 151    -1.100033240859e-05
 152    3.6783103410043e-06
 153    9.977186726519e-05
 154    0.00010635730139705
 155    2.574773040931e-05
 156    -2.7819312964228e-05
 157    -1.9859511793478e-05
 158    2.9749673965977e-05
 159    0.00010247435086979
 160    5.8660087653164e-05
 161    8.6656532354357e-06
 162    -8.2881722256225e-06
 163    7.4448176494762e-05
 164    9.3210013897546e-05
 165    0.00035279352111969
 166    4.0073906960046e-05
 167    -1.9998241620558e-05
 168    -0.00012774443377929
 169    -0.00018394602507729
 170    0.00018219289902687
 171    8.2086164066389e-05
 172    1.7633124493997e-06
 173    -5.2812426222043e-06
 174    1.3021989446002e-05
 175    -6.0832101196308e-06
 176    2.0960047789981e-05
 177    1.5684733846877e-05
 178    -8.4394126569715e-05
 179    2.4002220788416e-06
 180    -9.6183020740261e-07
 181    4.0716348044402e-06
 182    -1.911604700461e-05
 183    -2.4745012796063e-05
 184    7.5760296264151e-05
 185    1.9643138335287e-05
 186    -1.0973448328705e-05
 187    -4.1567736760417e-06
 188    -0.00012870883348779
 189    0.0001020758715315
 190    0.00010512520208352
 191    -7.4775904873115e-07
 192    -3.044106183566e-06
 193    7.4603824306046e-06
 194    2.4578968742511e-06
 195    5.3154544009826e-06
 196    9.0962495007709e-06
 197    1.5439203169367e-05
 198    -4.641040512498e-06
 199    -1.9529602554227e-06
 200    2.9185789493254e-06
 201    0.00013594166013098
 202    3.9270364184599e-05
 203    1.7432735175036e-05
 204    -1.1165418521998e-06
 205    -4.5481198539916e-06
 206    8.9408813429452e-05
 207    -3.9652755172159e-05
 208    9.8920098206783e-06
 209    -1.1964491118776e-05
 210    -1.4136486122771e-05
 211    8.7638247992577e-06
 212    2.5372964957492e-05
 213    -0.00025701698160811
 214    -3.959833854909e-05
 215    1.4138910894281e-05
 216    2.458190033596e-05
 217    -0.00020753752560145
 218    5.7995467693969e-05
 219    8.7263762615948e-05
 220    4.2059799367731e-06
 221    1.3952151348383e-05
 222    -4.2973730822425e-06
 223    -1.020374660863e-05
 224    2.9087397380806e-06
 225    -2.5065615031453e-05
 226    -5.9349507514397e-05
 227    1.3190443408994e-05
 228    1.675368034587e-06
 229    4.6864631025089e-07
 230    -2.1186916015747e-05
 231    -5.3818064242949e-05
 232    3.8092117301107e-06
 233    -6.6494845600672e-06
 234    -1.2800237107263e-05
 235    -6.2914899943011e-06
 236    1.7203827773313e-06
 237    9.8746069950555e-05
 238    -1.3913173307761e-05
 239    3.8016097292176e-06
 240    7.7606349003843e-06
 241    -4.9295168437533e-05
 242    6.7381398553919e-05
 243    -1.0355333533232e-05
 244    -1.993505697328e-06
 245    -3.2150827322855e-06
 246    2.6071261564501e-06
 247    2.7022144923378e-07
 248    -1.7919894030431e-06
 249    2.7182094111592e-05
 250    -1.6799614138608e-06
 251    3.3264535244071e-06
 252    6.5980451263949e-07
 253    5.3531362186002e-07
 254    2.9323120025543e-05
 255    -4.8129814986881e-05
 256    -8.6029349467011e-07
 257    -3.2372945969002e-06
 258    1.427143031471e-06
 259    2.4522344665642e-06
 260    1.3964222367234e-05
 261    -7.6869308294782e-05
 262    5.7101428137616e-06
 263    -1.9865986622466e-06