[Molden Format]
made by pyscf v[2.0.1]
[Atoms] (AU)
O   1   8     0.00000000000000     0.00000000000000     8.29613401107647
H   2   1     0.00000000000000     0.00000000000000     6.47273218917551
H   3   1    -0.05031916615174     1.78353065140343     8.67200570754314
O   4   8     0.00000000000000     0.00000000000000     2.31533471513237
C   5   6     0.00000000000000     0.00000000000000     0.00000000000000
C   6   6     2.01118073026938    -1.40227222164369    -1.50774939176400
C   7   6    -2.01249334291722     1.41331050329955    -1.50315905028694
H   8   1     3.32037363730244    -2.26721897153159    -0.13599698591495
C   9   6     3.45899267434009     0.28739631745591    -3.37437943254505
H   10   1     1.07662969841332    -2.94725144642667    -2.56541439481080
H   11   1    -2.67503415753480     0.18421555839588    -3.06194479365997
H   12   1    -1.07974048864772     3.03851734677796    -2.43674295017013
C   13   6    -4.21607110578555     2.32938802552922     0.11994162256091
H   14   1     4.24440173074564     1.93368664142019    -2.34976285512790
H   15   1     2.15020713235517     1.04714335134846    -4.81494497423699
C   16   6     5.60746363007797    -1.12419643481196    -4.70268606082550
H   17   1    -3.46838323670267     3.50951302338067     1.66946842715333
H   18   1    -5.11873485366228     0.68575958301209     1.04047743976495
C   19   6    -6.18314754751344     3.80909592987882    -1.39656589068747
H   20   1     6.93011263717176    -1.87550812453645    -3.26656317360070
C   21   6     7.06356622236532     0.52877932406334    -6.57829775293605
H   22   1     4.82318879258361    -2.78573437948532    -5.70504560381835
H   23   1    -6.91582688743803     2.61304780074712    -2.95074552451969
H   24   1    -5.26532430573853     5.45420349051338    -2.31005832200284
C   25   6    -8.39941882261433     4.73263980500213     0.21800571437956
H   26   1     7.83338371486801     2.19084139882824    -5.57093109900697
H   27   1     5.73544244039420     1.27376866537418    -8.01071492370229
C   28   6     9.21124858443101    -0.89699110072176    -7.88926949186242
H   29   1    -7.66272760055236     5.92277078003992     1.77035591474408
H   30   1    -9.31497248082589     3.08753015622020     1.12614408368786
C   31   6   -10.35481709231879     6.21833079391143    -1.30905206253246
H   32   1    10.58815905329501    -1.61074586756696    -6.49512691622620
H   33   1    10.23506248045667     0.32468009384095    -9.23072870921204
H   34   1     8.47665842847139    -2.53598436989925    -8.94921964622535
H   35   1    -9.48948872868064     7.90013588951020    -2.18823918416067
H   36   1   -11.93332513000955     6.86460487874102    -0.11255798845995
H   37   1   -11.15126291841033     5.04495968327630    -2.83849898862534
[GTO]
1 0
 s    8 1.00
                 11720  0.00070964594651845
                  1759  0.0054672722921914
                 400.8   0.027823118610189
                 113.7    0.10474773971146
                 37.03    0.28292084635691
                 13.27    0.44849523869833
                 5.025    0.27081688521277
                 1.013    0.01545029160744
 s    8 1.00
                 11720  -0.00031444341168873
                  1759  -0.0024821376810179
                 400.8  -0.012316355381583
                 113.7  -0.050538917343672
                 37.03   -0.13938490331632
                 13.27   -0.32507749481778
                 5.025   -0.22984830758785
                 1.013     1.0953793467883
 s    1 1.00
                0.3023                   1
 p    3 1.00
                  17.7   0.062679166281506
                 3.854    0.33353656587936
                 1.046    0.74123964163973
 p    1 1.00
                0.2753                   1
 d    1 1.00
                 1.185                   1

2 0
 s    3 1.00
                 13.01   0.033498726389998
                 1.962    0.23480080117413
                0.4446     0.8136829578829
 s    1 1.00
                 0.122                   1
 p    1 1.00
                 0.727                   1

3 0
 s    3 1.00
                 13.01   0.033498726389998
                 1.962    0.23480080117413
                0.4446     0.8136829578829
 s    1 1.00
                 0.122                   1
 p    1 1.00
                 0.727                   1

4 0
 s    8 1.00
                 11720  0.00070964594651845
                  1759  0.0054672722921914
                 400.8   0.027823118610189
                 113.7    0.10474773971146
                 37.03    0.28292084635691
                 13.27    0.44849523869833
                 5.025    0.27081688521277
                 1.013    0.01545029160744
 s    8 1.00
                 11720  -0.00031444341168873
                  1759  -0.0024821376810179
                 400.8  -0.012316355381583
                 113.7  -0.050538917343672
                 37.03   -0.13938490331632
                 13.27   -0.32507749481778
                 5.025   -0.22984830758785
                 1.013     1.0953793467883
 s    1 1.00
                0.3023                   1
 p    3 1.00
                  17.7   0.062679166281506
                 3.854    0.33353656587936
                 1.046    0.74123964163973
 p    1 1.00
                0.2753                   1
 d    1 1.00
                 1.185                   1

5 0
 s    8 1.00
                  6665  0.00069158396281299
                  1000  0.0053257961529341
                   228   0.027060721042034
                 64.71    0.10165684614077
                 21.06     0.2745748236174
                 7.495    0.44829431892377
                 2.797    0.28490261071525
                0.5215   0.015194859206082
 s    8 1.00
                  6665  -0.00029326965268655
                  1000  -0.0023180354739745
                   228  -0.011499786038565
                 64.71  -0.046826727009787
                 21.06   -0.12846616875047
                 7.495   -0.30126627246289
                 2.797   -0.25563070233011
                0.5215      1.093793361012
 s    1 1.00
                0.1596                   1
 p    3 1.00
                 9.439   0.056979251590039
                 2.002    0.31320721150073
                0.5456    0.76037674173753
 p    1 1.00
                0.1517                   1
 d    1 1.00
                  0.55                   1

6 0
 s    8 1.00
                  6665  0.00069158396281299
                  1000  0.0053257961529341
                   228   0.027060721042034
                 64.71    0.10165684614077
                 21.06     0.2745748236174
                 7.495    0.44829431892377
                 2.797    0.28490261071525
                0.5215   0.015194859206082
 s    8 1.00
                  6665  -0.00029326965268655
                  1000  -0.0023180354739745
                   228  -0.011499786038565
                 64.71  -0.046826727009787
                 21.06   -0.12846616875047
                 7.495   -0.30126627246289
                 2.797   -0.25563070233011
                0.5215      1.093793361012
 s    1 1.00
                0.1596                   1
 p    3 1.00
                 9.439   0.056979251590039
                 2.002    0.31320721150073
                0.5456    0.76037674173753
 p    1 1.00
                0.1517                   1
 d    1 1.00
                  0.55                   1

7 0
 s    8 1.00
                  6665  0.00069158396281299
                  1000  0.0053257961529341
                   228   0.027060721042034
                 64.71    0.10165684614077
                 21.06     0.2745748236174
                 7.495    0.44829431892377
                 2.797    0.28490261071525
                0.5215   0.015194859206082
 s    8 1.00
                  6665  -0.00029326965268655
                  1000  -0.0023180354739745
                   228  -0.011499786038565
                 64.71  -0.046826727009787
                 21.06   -0.12846616875047
                 7.495   -0.30126627246289
                 2.797   -0.25563070233011
                0.5215      1.093793361012
 s    1 1.00
                0.1596                   1
 p    3 1.00
                 9.439   0.056979251590039
                 2.002    0.31320721150073
                0.5456    0.76037674173753
 p    1 1.00
                0.1517                   1
 d    1 1.00
                  0.55                   1

8 0
 s    3 1.00
                 13.01   0.033498726389998
                 1.962    0.23480080117413
                0.4446     0.8136829578829
 s    1 1.00
                 0.122                   1
 p    1 1.00
                 0.727                   1

9 0
 s    8 1.00
                  6665  0.00069158396281299
                  1000  0.0053257961529341
                   228   0.027060721042034
                 64.71    0.10165684614077
                 21.06     0.2745748236174
                 7.495    0.44829431892377
                 2.797    0.28490261071525
                0.5215   0.015194859206082
 s    8 1.00
                  6665  -0.00029326965268655
                  1000  -0.0023180354739745
                   228  -0.011499786038565
                 64.71  -0.046826727009787
                 21.06   -0.12846616875047
                 7.495   -0.30126627246289
                 2.797   -0.25563070233011
                0.5215      1.093793361012
 s    1 1.00
                0.1596                   1
 p    3 1.00
                 9.439   0.056979251590039
                 2.002    0.31320721150073
                0.5456    0.76037674173753
 p    1 1.00
                0.1517                   1
 d    1 1.00
                  0.55                   1

10 0
 s    3 1.00
                 13.01   0.033498726389998
                 1.962    0.23480080117413
                0.4446     0.8136829578829
 s    1 1.00
                 0.122                   1
 p    1 1.00
                 0.727                   1

11 0
 s    3 1.00
                 13.01   0.033498726389998
                 1.962    0.23480080117413
                0.4446     0.8136829578829
 s    1 1.00
                 0.122                   1
 p    1 1.00
                 0.727                   1

12 0
 s    3 1.00
                 13.01   0.033498726389998
                 1.962    0.23480080117413
                0.4446     0.8136829578829
 s    1 1.00
                 0.122                   1
 p    1 1.00
                 0.727                   1

13 0
 s    8 1.00
                  6665  0.00069158396281299
                  1000  0.0053257961529341
                   228   0.027060721042034
                 64.71    0.10165684614077
                 21.06     0.2745748236174
                 7.495    0.44829431892377
                 2.797    0.28490261071525
                0.5215   0.015194859206082
 s    8 1.00
                  6665  -0.00029326965268655
                  1000  -0.0023180354739745
                   228  -0.011499786038565
                 64.71  -0.046826727009787
                 21.06   -0.12846616875047
                 7.495   -0.30126627246289
                 2.797   -0.25563070233011
                0.5215      1.093793361012
 s    1 1.00
                0.1596                   1
 p    3 1.00
                 9.439   0.056979251590039
                 2.002    0.31320721150073
                0.5456    0.76037674173753
 p    1 1.00
                0.1517                   1
 d    1 1.00
                  0.55                   1

14 0
 s    3 1.00
                 13.01   0.033498726389998
                 1.962    0.23480080117413
                0.4446     0.8136829578829
 s    1 1.00
                 0.122                   1
 p    1 1.00
                 0.727                   1

15 0
 s    3 1.00
                 13.01   0.033498726389998
                 1.962    0.23480080117413
                0.4446     0.8136829578829
 s    1 1.00
                 0.122                   1
 p    1 1.00
                 0.727                   1

16 0
 s    8 1.00
                  6665  0.00069158396281299
                  1000  0.0053257961529341
                   228   0.027060721042034
                 64.71    0.10165684614077
                 21.06     0.2745748236174
                 7.495    0.44829431892377
                 2.797    0.28490261071525
                0.5215   0.015194859206082
 s    8 1.00
                  6665  -0.00029326965268655
                  1000  -0.0023180354739745
                   228  -0.011499786038565
                 64.71  -0.046826727009787
                 21.06   -0.12846616875047
                 7.495   -0.30126627246289
                 2.797   -0.25563070233011
                0.5215      1.093793361012
 s    1 1.00
                0.1596                   1
 p    3 1.00
                 9.439   0.056979251590039
                 2.002    0.31320721150073
                0.5456    0.76037674173753
 p    1 1.00
                0.1517                   1
 d    1 1.00
                  0.55                   1

17 0
 s    3 1.00
                 13.01   0.033498726389998
                 1.962    0.23480080117413
                0.4446     0.8136829578829
 s    1 1.00
                 0.122                   1
 p    1 1.00
                 0.727                   1

18 0
 s    3 1.00
                 13.01   0.033498726389998
                 1.962    0.23480080117413
                0.4446     0.8136829578829
 s    1 1.00
                 0.122                   1
 p    1 1.00
                 0.727                   1

19 0
 s    8 1.00
                  6665  0.00069158396281299
                  1000  0.0053257961529341
                   228   0.027060721042034
                 64.71    0.10165684614077
                 21.06     0.2745748236174
                 7.495    0.44829431892377
                 2.797    0.28490261071525
                0.5215   0.015194859206082
 s    8 1.00
                  6665  -0.00029326965268655
                  1000  -0.0023180354739745
                   228  -0.011499786038565
                 64.71  -0.046826727009787
                 21.06   -0.12846616875047
                 7.495   -0.30126627246289
                 2.797   -0.25563070233011
                0.5215      1.093793361012
 s    1 1.00
                0.1596                   1
 p    3 1.00
                 9.439   0.056979251590039
                 2.002    0.31320721150073
                0.5456    0.76037674173753
 p    1 1.00
                0.1517                   1
 d    1 1.00
                  0.55                   1

20 0
 s    3 1.00
                 13.01   0.033498726389998
                 1.962    0.23480080117413
                0.4446     0.8136829578829
 s    1 1.00
                 0.122                   1
 p    1 1.00
                 0.727                   1

21 0
 s    8 1.00
                  6665  0.00069158396281299
                  1000  0.0053257961529341
                   228   0.027060721042034
                 64.71    0.10165684614077
                 21.06     0.2745748236174
                 7.495    0.44829431892377
                 2.797    0.28490261071525
                0.5215   0.015194859206082
 s    8 1.00
                  6665  -0.00029326965268655
                  1000  -0.0023180354739745
                   228  -0.011499786038565
                 64.71  -0.046826727009787
                 21.06   -0.12846616875047
                 7.495   -0.30126627246289
                 2.797   -0.25563070233011
                0.5215      1.093793361012
 s    1 1.00
                0.1596                   1
 p    3 1.00
                 9.439   0.056979251590039
                 2.002    0.31320721150073
                0.5456    0.76037674173753
 p    1 1.00
                0.1517                   1
 d    1 1.00
                  0.55                   1

22 0
 s    3 1.00
                 13.01   0.033498726389998
                 1.962    0.23480080117413
                0.4446     0.8136829578829
 s    1 1.00
                 0.122                   1
 p    1 1.00
                 0.727                   1

23 0
 s    3 1.00
                 13.01   0.033498726389998
                 1.962    0.23480080117413
                0.4446     0.8136829578829
 s    1 1.00
                 0.122                   1
 p    1 1.00
                 0.727                   1

24 0
 s    3 1.00
                 13.01   0.033498726389998
                 1.962    0.23480080117413
                0.4446     0.8136829578829
 s    1 1.00
                 0.122                   1
 p    1 1.00
                 0.727                   1

25 0
 s    8 1.00
                  6665  0.00069158396281299
                  1000  0.0053257961529341
                   228   0.027060721042034
                 64.71    0.10165684614077
                 21.06     0.2745748236174
                 7.495    0.44829431892377
                 2.797    0.28490261071525
                0.5215   0.015194859206082
 s    8 1.00
                  6665  -0.00029326965268655
                  1000  -0.0023180354739745
                   228  -0.011499786038565
                 64.71  -0.046826727009787
                 21.06   -0.12846616875047
                 7.495   -0.30126627246289
                 2.797   -0.25563070233011
                0.5215      1.093793361012
 s    1 1.00
                0.1596                   1
 p    3 1.00
                 9.439   0.056979251590039
                 2.002    0.31320721150073
                0.5456    0.76037674173753
 p    1 1.00
                0.1517                   1
 d    1 1.00
                  0.55                   1

26 0
 s    3 1.00
                 13.01   0.033498726389998
                 1.962    0.23480080117413
                0.4446     0.8136829578829
 s    1 1.00
                 0.122                   1
 p    1 1.00
                 0.727                   1

27 0
 s    3 1.00
                 13.01   0.033498726389998
                 1.962    0.23480080117413
                0.4446     0.8136829578829
 s    1 1.00
                 0.122                   1
 p    1 1.00
                 0.727                   1

28 0
 s    8 1.00
                  6665  0.00069158396281299
                  1000  0.0053257961529341
                   228   0.027060721042034
                 64.71    0.10165684614077
                 21.06     0.2745748236174
                 7.495    0.44829431892377
                 2.797    0.28490261071525
                0.5215   0.015194859206082
 s    8 1.00
                  6665  -0.00029326965268655
                  1000  -0.0023180354739745
                   228  -0.011499786038565
                 64.71  -0.046826727009787
                 21.06   -0.12846616875047
                 7.495   -0.30126627246289
                 2.797   -0.25563070233011
                0.5215      1.093793361012
 s    1 1.00
                0.1596                   1
 p    3 1.00
                 9.439   0.056979251590039
                 2.002    0.31320721150073
                0.5456    0.76037674173753
 p    1 1.00
                0.1517                   1
 d    1 1.00
                  0.55                   1

29 0
 s    3 1.00
                 13.01   0.033498726389998
                 1.962    0.23480080117413
                0.4446     0.8136829578829
 s    1 1.00
                 0.122                   1
 p    1 1.00
                 0.727                   1

30 0
 s    3 1.00
                 13.01   0.033498726389998
                 1.962    0.23480080117413
                0.4446     0.8136829578829
 s    1 1.00
                 0.122                   1
 p    1 1.00
                 0.727                   1

31 0
 s    8 1.00
                  6665  0.00069158396281299
                  1000  0.0053257961529341
                   228   0.027060721042034
                 64.71    0.10165684614077
                 21.06     0.2745748236174
                 7.495    0.44829431892377
                 2.797    0.28490261071525
                0.5215   0.015194859206082
 s    8 1.00
                  6665  -0.00029326965268655
                  1000  -0.0023180354739745
                   228  -0.011499786038565
                 64.71  -0.046826727009787
                 21.06   -0.12846616875047
                 7.495   -0.30126627246289
                 2.797   -0.25563070233011
                0.5215      1.093793361012
 s    1 1.00
                0.1596                   1
 p    3 1.00
                 9.439   0.056979251590039
                 2.002    0.31320721150073
                0.5456    0.76037674173753
 p    1 1.00
                0.1517                   1
 d    1 1.00
                  0.55                   1

32 0
 s    3 1.00
                 13.01   0.033498726389998
                 1.962    0.23480080117413
                0.4446     0.8136829578829
 s    1 1.00
                 0.122                   1
 p    1 1.00
                 0.727                   1

33 0
 s    3 1.00
                 13.01   0.033498726389998
                 1.962    0.23480080117413
                0.4446     0.8136829578829
 s    1 1.00
                 0.122                   1
 p    1 1.00
                 0.727                   1

34 0
 s    3 1.00
                 13.01   0.033498726389998
                 1.962    0.23480080117413
                0.4446     0.8136829578829
 s    1 1.00
                 0.122                   1
 p    1 1.00
                 0.727                   1

35 0
 s    3 1.00
                 13.01   0.033498726389998
                 1.962    0.23480080117413
                0.4446     0.8136829578829
 s    1 1.00
                 0.122                   1
 p    1 1.00
                 0.727                   1

36 0
 s    3 1.00
                 13.01   0.033498726389998
                 1.962    0.23480080117413
                0.4446     0.8136829578829
 s    1 1.00
                 0.122                   1
 p    1 1.00
                 0.727                   1

37 0
 s    3 1.00
                 13.01   0.033498726389998
                 1.962    0.23480080117413
                0.4446     0.8136829578829
 s    1 1.00
                 0.122                   1
 p    1 1.00
                 0.727                   1

[5d]
[7f]
[9g]

[MO]
 Sym= A
 Ene=               0
 Spin= Alpha
 Occup=    1.00000
   1    -7.0165556128606e-05
   2    -5.1288813226773e-05
   3    0.0001338332362378
   4    1.2619935664621e-07
   5    5.7240274093119e-06
   6    1.3647805297532e-05
   7    2.1627010054587e-07
   8    -2.5186030676625e-05
   9    -6.3892649303133e-05
  10    3.4909729161282e-06
  11    -1.5641469246754e-07
  12    1.0925586407568e-06
  13    8.7990451373055e-07
  14    1.7421506213084e-08
  15    -3.5534359182934e-05
  16    -0.00022316015000942
  17    -5.9128710850444e-07
  18    2.5203444881516e-06
  19    2.305340663656e-05
  20    -3.185672246527e-06
  21    6.1136407122912e-05
  22    1.4434546959276e-07
  23    -1.0089122065189e-06
  24    -2.6578453970125e-06
  25       1.0013822771157
  26    0.0019988544749563
  27    -0.006963969937507
  28    -5.2498599380757e-06
  29    1.1381557858364e-05
  30    -0.0016355449091591
  31    -3.2810361205659e-07
  32    -3.1747154882127e-06
  33    0.0019721798239799
  34    0.0001081723303297
  35    -2.7928952888912e-06
  36    1.5137503604754e-06
  37    6.6237652484979e-05
  38    -0.00017240219575676
  39    0.00029134039015834
  40    0.00041002668020757
  41    0.0015528364556658
  42    1.6096791012302e-05
  43    -1.0012583194318e-05
  44    2.8231415581574e-05
  45    8.3530120688405e-05
  46    -6.638286901412e-05
  47    0.0036921073344183
  48    -0.00050165371933738
  49    -8.1917446932883e-06
  50    2.6666310535347e-06
  51    3.0227129986686e-05
  52    -0.00011125936826518
  53    -8.4235153447404e-05
  54    -0.00016487331083522
  55    0.0013890639718723
  56    7.8717903048162e-05
  57    -7.2177694498229e-06
  58    -3.4126718214442e-05
  59    -0.00042841762053058
  60    0.00048309985725726
  61    -0.00097976727234703
  62    -0.00011582599763841
  63    0.00014976227995869
  64    -0.00014340235793218
  65    5.4113608096229e-05
  66    -0.00012664108972399
  67     -3.8244113887e-05
  68    -9.4819193105981e-05
  69    0.00052019691433162
  70    -6.2169247958228e-05
  71    4.1341898028046e-05
  72    -6.1731917953875e-05
  73    0.0010196577059304
  74    -0.00078370304081242
  75    -0.00066543891871028
  76    -0.00013921613206423
  77    -0.00012142904231286
  78    8.9788566043478e-05
  79    5.8244931401972e-05
  80    -0.00014951915370218
  81    -5.8745386572066e-05
  82    0.00021828120523083
  83    6.7113586239624e-05
  84    -4.9284873820024e-05
  85    4.7027738380241e-05
  86    2.5027745640113e-05
  87    4.8967867830641e-05
  88    -0.0006243163577954
  89    -1.5615711081276e-05
  90    -1.7288878743154e-05
  91    1.1175612432194e-05
  92    0.00026285387188995
  93    0.00065152154527356
  94    -1.1139427005213e-05
  95    1.9074565876017e-05
  96    1.1566180989108e-05
  97    8.108741548148e-06
  98    -1.9319706770089e-05
  99    -4.8684269589341e-05
 100    -4.1230203277894e-05
 101    -0.00016597012791895
 102    6.3044619302549e-06
 103    -1.0768222925194e-05
 104    7.7472776409741e-05
 105    -1.9721255618057e-05
 106    -0.00020750666865251
 107    -6.3838379863653e-05
 108    7.9845869872415e-06
 109    7.6568717003791e-05
 110    7.8269693570725e-05
 111    -6.6580169311773e-05
 112    -4.4057627910865e-05
 113    2.0220206458474e-05
 114    7.1608878695526e-05
 115    -4.8209624282431e-05
 116    -9.8265360305579e-05
 117    0.00085567449495802
 118    -2.431222482266e-05
 119    -1.1364566586606e-05
 120    3.2043675791264e-05
 121    0.00028426835500983
 122    3.8186180067245e-05
 123    -0.00015638911071721
 124    -5.9818013009228e-06
 125    1.0786080475363e-05
 126    1.4918082341987e-05
 127    -3.2308404913363e-05
 128    5.1164462972934e-05
 129    -2.0061200215315e-05
 130    -0.00033779782324395
 131    8.1238320258334e-06
 132    6.0033154548402e-06
 133    2.9679767467623e-05
 134    2.5675472548787e-05
 135    -0.00011714453211114
 136    -1.3829016312938e-05
 137    -2.5319911836154e-05
 138    -2.7522705134403e-05
 139    -2.2014686796734e-05
 140    -4.0120982711475e-05
 141    0.00030553695054903
 142    7.7323635520538e-06
 143    -2.9848295217922e-06
 144    -6.024903613865e-06
 145    -0.00023186934548782
 146    5.9478941941649e-05
 147    5.9610717508785e-05
 148    -2.5836106410662e-06
 149    3.3110801551831e-06
 150    -4.5709634247315e-06
 151    1.2714661584863e-05
 152    -4.785301750226e-06
 153    -9.7817783259202e-05
 154    -9.6841000066983e-05
 155    -2.6712653709176e-05
 156    2.7985030917901e-05
 157    1.9246116878326e-05
 158    -2.6066423008513e-05
 159    -8.631419560034e-05
 160    -5.9155536206552e-05
 161    -7.4084652510874e-06
 162    6.7784977027119e-06
 163    1.4138538759807e-06
 164    -4.7738918979491e-06
 165    -0.00026333073527123
 166    -1.7322313518966e-05
 167    1.344400517936e-05
 168    7.1667685008276e-06
 169    0.00023366767351929
 170    -0.00021004324448347
 171    -0.00014021384533549
 172    -2.3836433211946e-06
 173    1.0168138641215e-05
 174    -1.3638592007196e-05
 175    3.0641955431104e-06
 176    -1.7816634563474e-05
 177    -1.6512000035154e-05
 178    8.6507680680716e-05
 179    -1.1951942437684e-06
 180    1.6314026453257e-06
 181    -4.6824154655735e-06
 182    2.2554027986275e-05
 183    2.9123157463631e-05
 184    -7.8089726183108e-05
 185    -4.3961185849543e-06
 186    3.9325010064279e-06
 187    5.1813547498146e-06
 188    0.00013131134769867
 189    -0.00010204237882788
 190    -9.1182816463698e-05
 191    1.2222831528742e-06
 192    2.2864567421622e-06
 193    -7.5859060231934e-06
 194    -3.0026814759089e-06
 195    -5.651433052539e-06
 196    -1.3216217855223e-05
 197    -1.9475806179762e-05
 198    5.6664211638095e-06
 199    1.9272328401205e-06
 200    -3.2120198393761e-06
 201    -1.3493568701812e-05
 202    1.7915682405146e-06
 203    -1.3433559406352e-05
 204    9.7794652514308e-06
 205    1.1744095491131e-05
 206    7.9777998157434e-06
 207    6.8491242005316e-05
 208    -1.5986570136631e-05
 209    3.9822345970288e-06
 210    1.5902357884556e-05
 211    3.3611424094951e-06
 212    -3.6470944720858e-05
 213    0.0002636551346386
 214    6.5310741085052e-06
 215    -5.0897279261813e-06
 216    -4.56878114808e-06
 217    0.00019489586872157
 218    -5.3312677006719e-05
 219    -7.8578033439369e-05
 220    -2.1193207097322e-06
 221    -1.665646603659e-05
 222    5.8442163955878e-06
 223    9.4895226268296e-06
 224    -1.4884609046873e-06
 225    2.6794566237628e-05
 226    5.6676349260744e-05
 227    -1.2604508186506e-05
 228    -2.1668236467579e-06
 229    -9.867283564124e-07
 230    1.0426275511425e-05
 231    5.4470609283449e-05
 232    -4.082911842474e-06
 233    6.4864849729949e-06
 234    1.2206571708068e-05
 235    2.322986008422e-06
 236    2.1548988766844e-06
 237    -7.8725598038044e-05
 238    2.5277647132604e-06
 239    2.5718198587539e-06
 240    -4.3407893820657e-06
 241    3.6694234236202e-05
 242    -6.3593984948812e-05
 243    1.7982260936142e-05
 244    1.9830804313958e-06
 245    1.8723688811044e-06
 246    -1.9055030875495e-06
 247    1.3790608141176e-07
 248    9.457948529485e-07
 249    -1.9918519059424e-05
 250    1.0159736981297e-05
 251    -4.2845491104275e-06
 252    -6.8162548596901e-07
 253    3.6874958509524e-07
 254    -1.6888675163923e-05
 255    5.5792485116775e-05
 256    1.9541336900772e-07
 257    4.1169586470155e-06
 258    -7.3159281231904e-07
 259    -1.792988628504e-05
 260    -2.8029216211792e-05
 261    6.7580155004549e-05
 262    -8.7563110814433e-06