[Molden Format]
made by pyscf v[2.0.1]
[Atoms] (AU)
O   1   8     0.00000000000000     0.00000000000000     9.42996968581551
H   2   1     0.00000000000000     0.00000000000000     7.60656786391454
H   3   1    -0.05031916615174     1.78353065140343     9.80584138228218
O   4   8     0.00000000000000     0.00000000000000     2.31533471513237
C   5   6     0.00000000000000     0.00000000000000     0.00000000000000
C   6   6     2.01118073026938    -1.40227222164369    -1.50774939176400
C   7   6    -2.01249334291722     1.41331050329955    -1.50315905028694
H   8   1     3.32037363730244    -2.26721897153159    -0.13599698591495
C   9   6     3.45899267434009     0.28739631745591    -3.37437943254505
H   10   1     1.07662969841332    -2.94725144642667    -2.56541439481080
H   11   1    -2.67503415753480     0.18421555839588    -3.06194479365997
H   12   1    -1.07974048864772     3.03851734677796    -2.43674295017013
C   13   6    -4.21607110578555     2.32938802552922     0.11994162256091
H   14   1     4.24440173074564     1.93368664142019    -2.34976285512790
H   15   1     2.15020713235517     1.04714335134846    -4.81494497423699
C   16   6     5.60746363007797    -1.12419643481196    -4.70268606082550
H   17   1    -3.46838323670267     3.50951302338067     1.66946842715333
H   18   1    -5.11873485366228     0.68575958301209     1.04047743976495
C   19   6    -6.18314754751344     3.80909592987882    -1.39656589068747
H   20   1     6.93011263717176    -1.87550812453645    -3.26656317360070
C   21   6     7.06356622236532     0.52877932406334    -6.57829775293605
H   22   1     4.82318879258361    -2.78573437948532    -5.70504560381835
H   23   1    -6.91582688743803     2.61304780074712    -2.95074552451969
H   24   1    -5.26532430573853     5.45420349051338    -2.31005832200284
C   25   6    -8.39941882261433     4.73263980500213     0.21800571437956
H   26   1     7.83338371486801     2.19084139882824    -5.57093109900697
H   27   1     5.73544244039420     1.27376866537418    -8.01071492370229
C   28   6     9.21124858443101    -0.89699110072176    -7.88926949186242
H   29   1    -7.66272760055236     5.92277078003992     1.77035591474408
H   30   1    -9.31497248082589     3.08753015622020     1.12614408368786
C   31   6   -10.35481709231879     6.21833079391143    -1.30905206253246
H   32   1    10.58815905329501    -1.61074586756696    -6.49512691622620
H   33   1    10.23506248045667     0.32468009384095    -9.23072870921204
H   34   1     8.47665842847139    -2.53598436989925    -8.94921964622535
H   35   1    -9.48948872868064     7.90013588951020    -2.18823918416067
H   36   1   -11.93332513000955     6.86460487874102    -0.11255798845995
H   37   1   -11.15126291841033     5.04495968327630    -2.83849898862534
[GTO]
1 0
 s    8 1.00
                 11720  0.00070964594651845
                  1759  0.0054672722921914
                 400.8   0.027823118610189
                 113.7    0.10474773971146
                 37.03    0.28292084635691
                 13.27    0.44849523869833
                 5.025    0.27081688521277
                 1.013    0.01545029160744
 s    8 1.00
                 11720  -0.00031444341168873
                  1759  -0.0024821376810179
                 400.8  -0.012316355381583
                 113.7  -0.050538917343672
                 37.03   -0.13938490331632
                 13.27   -0.32507749481778
                 5.025   -0.22984830758785
                 1.013     1.0953793467883
 s    1 1.00
                0.3023                   1
 p    3 1.00
                  17.7   0.062679166281506
                 3.854    0.33353656587936
                 1.046    0.74123964163973
 p    1 1.00
                0.2753                   1
 d    1 1.00
                 1.185                   1

2 0
 s    3 1.00
                 13.01   0.033498726389998
                 1.962    0.23480080117413
                0.4446     0.8136829578829
 s    1 1.00
                 0.122                   1
 p    1 1.00
                 0.727                   1

3 0
 s    3 1.00
                 13.01   0.033498726389998
                 1.962    0.23480080117413
                0.4446     0.8136829578829
 s    1 1.00
                 0.122                   1
 p    1 1.00
                 0.727                   1

4 0
 s    8 1.00
                 11720  0.00070964594651845
                  1759  0.0054672722921914
                 400.8   0.027823118610189
                 113.7    0.10474773971146
                 37.03    0.28292084635691
                 13.27    0.44849523869833
                 5.025    0.27081688521277
                 1.013    0.01545029160744
 s    8 1.00
                 11720  -0.00031444341168873
                  1759  -0.0024821376810179
                 400.8  -0.012316355381583
                 113.7  -0.050538917343672
                 37.03   -0.13938490331632
                 13.27   -0.32507749481778
                 5.025   -0.22984830758785
                 1.013     1.0953793467883
 s    1 1.00
                0.3023                   1
 p    3 1.00
                  17.7   0.062679166281506
                 3.854    0.33353656587936
                 1.046    0.74123964163973
 p    1 1.00
                0.2753                   1
 d    1 1.00
                 1.185                   1

5 0
 s    8 1.00
                  6665  0.00069158396281299
                  1000  0.0053257961529341
                   228   0.027060721042034
                 64.71    0.10165684614077
                 21.06     0.2745748236174
                 7.495    0.44829431892377
                 2.797    0.28490261071525
                0.5215   0.015194859206082
 s    8 1.00
                  6665  -0.00029326965268655
                  1000  -0.0023180354739745
                   228  -0.011499786038565
                 64.71  -0.046826727009787
                 21.06   -0.12846616875047
                 7.495   -0.30126627246289
                 2.797   -0.25563070233011
                0.5215      1.093793361012
 s    1 1.00
                0.1596                   1
 p    3 1.00
                 9.439   0.056979251590039
                 2.002    0.31320721150073
                0.5456    0.76037674173753
 p    1 1.00
                0.1517                   1
 d    1 1.00
                  0.55                   1

6 0
 s    8 1.00
                  6665  0.00069158396281299
                  1000  0.0053257961529341
                   228   0.027060721042034
                 64.71    0.10165684614077
                 21.06     0.2745748236174
                 7.495    0.44829431892377
                 2.797    0.28490261071525
                0.5215   0.015194859206082
 s    8 1.00
                  6665  -0.00029326965268655
                  1000  -0.0023180354739745
                   228  -0.011499786038565
                 64.71  -0.046826727009787
                 21.06   -0.12846616875047
                 7.495   -0.30126627246289
                 2.797   -0.25563070233011
                0.5215      1.093793361012
 s    1 1.00
                0.1596                   1
 p    3 1.00
                 9.439   0.056979251590039
                 2.002    0.31320721150073
                0.5456    0.76037674173753
 p    1 1.00
                0.1517                   1
 d    1 1.00
                  0.55                   1

7 0
 s    8 1.00
                  6665  0.00069158396281299
                  1000  0.0053257961529341
                   228   0.027060721042034
                 64.71    0.10165684614077
                 21.06     0.2745748236174
                 7.495    0.44829431892377
                 2.797    0.28490261071525
                0.5215   0.015194859206082
 s    8 1.00
                  6665  -0.00029326965268655
                  1000  -0.0023180354739745
                   228  -0.011499786038565
                 64.71  -0.046826727009787
                 21.06   -0.12846616875047
                 7.495   -0.30126627246289
                 2.797   -0.25563070233011
                0.5215      1.093793361012
 s    1 1.00
                0.1596                   1
 p    3 1.00
                 9.439   0.056979251590039
                 2.002    0.31320721150073
                0.5456    0.76037674173753
 p    1 1.00
                0.1517                   1
 d    1 1.00
                  0.55                   1

8 0
 s    3 1.00
                 13.01   0.033498726389998
                 1.962    0.23480080117413
                0.4446     0.8136829578829
 s    1 1.00
                 0.122                   1
 p    1 1.00
                 0.727                   1

9 0
 s    8 1.00
                  6665  0.00069158396281299
                  1000  0.0053257961529341
                   228   0.027060721042034
                 64.71    0.10165684614077
                 21.06     0.2745748236174
                 7.495    0.44829431892377
                 2.797    0.28490261071525
                0.5215   0.015194859206082
 s    8 1.00
                  6665  -0.00029326965268655
                  1000  -0.0023180354739745
                   228  -0.011499786038565
                 64.71  -0.046826727009787
                 21.06   -0.12846616875047
                 7.495   -0.30126627246289
                 2.797   -0.25563070233011
                0.5215      1.093793361012
 s    1 1.00
                0.1596                   1
 p    3 1.00
                 9.439   0.056979251590039
                 2.002    0.31320721150073
                0.5456    0.76037674173753
 p    1 1.00
                0.1517                   1
 d    1 1.00
                  0.55                   1

10 0
 s    3 1.00
                 13.01   0.033498726389998
                 1.962    0.23480080117413
                0.4446     0.8136829578829
 s    1 1.00
                 0.122                   1
 p    1 1.00
                 0.727                   1

11 0
 s    3 1.00
                 13.01   0.033498726389998
                 1.962    0.23480080117413
                0.4446     0.8136829578829
 s    1 1.00
                 0.122                   1
 p    1 1.00
                 0.727                   1

12 0
 s    3 1.00
                 13.01   0.033498726389998
                 1.962    0.23480080117413
                0.4446     0.8136829578829
 s    1 1.00
                 0.122                   1
 p    1 1.00
                 0.727                   1

13 0
 s    8 1.00
                  6665  0.00069158396281299
                  1000  0.0053257961529341
                   228   0.027060721042034
                 64.71    0.10165684614077
                 21.06     0.2745748236174
                 7.495    0.44829431892377
                 2.797    0.28490261071525
                0.5215   0.015194859206082
 s    8 1.00
                  6665  -0.00029326965268655
                  1000  -0.0023180354739745
                   228  -0.011499786038565
                 64.71  -0.046826727009787
                 21.06   -0.12846616875047
                 7.495   -0.30126627246289
                 2.797   -0.25563070233011
                0.5215      1.093793361012
 s    1 1.00
                0.1596                   1
 p    3 1.00
                 9.439   0.056979251590039
                 2.002    0.31320721150073
                0.5456    0.76037674173753
 p    1 1.00
                0.1517                   1
 d    1 1.00
                  0.55                   1

14 0
 s    3 1.00
                 13.01   0.033498726389998
                 1.962    0.23480080117413
                0.4446     0.8136829578829
 s    1 1.00
                 0.122                   1
 p    1 1.00
                 0.727                   1

15 0
 s    3 1.00
                 13.01   0.033498726389998
                 1.962    0.23480080117413
                0.4446     0.8136829578829
 s    1 1.00
                 0.122                   1
 p    1 1.00
                 0.727                   1

16 0
 s    8 1.00
                  6665  0.00069158396281299
                  1000  0.0053257961529341
                   228   0.027060721042034
                 64.71    0.10165684614077
                 21.06     0.2745748236174
                 7.495    0.44829431892377
                 2.797    0.28490261071525
                0.5215   0.015194859206082
 s    8 1.00
                  6665  -0.00029326965268655
                  1000  -0.0023180354739745
                   228  -0.011499786038565
                 64.71  -0.046826727009787
                 21.06   -0.12846616875047
                 7.495   -0.30126627246289
                 2.797   -0.25563070233011
                0.5215      1.093793361012
 s    1 1.00
                0.1596                   1
 p    3 1.00
                 9.439   0.056979251590039
                 2.002    0.31320721150073
                0.5456    0.76037674173753
 p    1 1.00
                0.1517                   1
 d    1 1.00
                  0.55                   1

17 0
 s    3 1.00
                 13.01   0.033498726389998
                 1.962    0.23480080117413
                0.4446     0.8136829578829
 s    1 1.00
                 0.122                   1
 p    1 1.00
                 0.727                   1

18 0
 s    3 1.00
                 13.01   0.033498726389998
                 1.962    0.23480080117413
                0.4446     0.8136829578829
 s    1 1.00
                 0.122                   1
 p    1 1.00
                 0.727                   1

19 0
 s    8 1.00
                  6665  0.00069158396281299
                  1000  0.0053257961529341
                   228   0.027060721042034
                 64.71    0.10165684614077
                 21.06     0.2745748236174
                 7.495    0.44829431892377
                 2.797    0.28490261071525
                0.5215   0.015194859206082
 s    8 1.00
                  6665  -0.00029326965268655
                  1000  -0.0023180354739745
                   228  -0.011499786038565
                 64.71  -0.046826727009787
                 21.06   -0.12846616875047
                 7.495   -0.30126627246289
                 2.797   -0.25563070233011
                0.5215      1.093793361012
 s    1 1.00
                0.1596                   1
 p    3 1.00
                 9.439   0.056979251590039
                 2.002    0.31320721150073
                0.5456    0.76037674173753
 p    1 1.00
                0.1517                   1
 d    1 1.00
                  0.55                   1

20 0
 s    3 1.00
                 13.01   0.033498726389998
                 1.962    0.23480080117413
                0.4446     0.8136829578829
 s    1 1.00
                 0.122                   1
 p    1 1.00
                 0.727                   1

21 0
 s    8 1.00
                  6665  0.00069158396281299
                  1000  0.0053257961529341
                   228   0.027060721042034
                 64.71    0.10165684614077
                 21.06     0.2745748236174
                 7.495    0.44829431892377
                 2.797    0.28490261071525
                0.5215   0.015194859206082
 s    8 1.00
                  6665  -0.00029326965268655
                  1000  -0.0023180354739745
                   228  -0.011499786038565
                 64.71  -0.046826727009787
                 21.06   -0.12846616875047
                 7.495   -0.30126627246289
                 2.797   -0.25563070233011
                0.5215      1.093793361012
 s    1 1.00
                0.1596                   1
 p    3 1.00
                 9.439   0.056979251590039
                 2.002    0.31320721150073
                0.5456    0.76037674173753
 p    1 1.00
                0.1517                   1
 d    1 1.00
                  0.55                   1

22 0
 s    3 1.00
                 13.01   0.033498726389998
                 1.962    0.23480080117413
                0.4446     0.8136829578829
 s    1 1.00
                 0.122                   1
 p    1 1.00
                 0.727                   1

23 0
 s    3 1.00
                 13.01   0.033498726389998
                 1.962    0.23480080117413
                0.4446     0.8136829578829
 s    1 1.00
                 0.122                   1
 p    1 1.00
                 0.727                   1

24 0
 s    3 1.00
                 13.01   0.033498726389998
                 1.962    0.23480080117413
                0.4446     0.8136829578829
 s    1 1.00
                 0.122                   1
 p    1 1.00
                 0.727                   1

25 0
 s    8 1.00
                  6665  0.00069158396281299
                  1000  0.0053257961529341
                   228   0.027060721042034
                 64.71    0.10165684614077
                 21.06     0.2745748236174
                 7.495    0.44829431892377
                 2.797    0.28490261071525
                0.5215   0.015194859206082
 s    8 1.00
                  6665  -0.00029326965268655
                  1000  -0.0023180354739745
                   228  -0.011499786038565
                 64.71  -0.046826727009787
                 21.06   -0.12846616875047
                 7.495   -0.30126627246289
                 2.797   -0.25563070233011
                0.5215      1.093793361012
 s    1 1.00
                0.1596                   1
 p    3 1.00
                 9.439   0.056979251590039
                 2.002    0.31320721150073
                0.5456    0.76037674173753
 p    1 1.00
                0.1517                   1
 d    1 1.00
                  0.55                   1

26 0
 s    3 1.00
                 13.01   0.033498726389998
                 1.962    0.23480080117413
                0.4446     0.8136829578829
 s    1 1.00
                 0.122                   1
 p    1 1.00
                 0.727                   1

27 0
 s    3 1.00
                 13.01   0.033498726389998
                 1.962    0.23480080117413
                0.4446     0.8136829578829
 s    1 1.00
                 0.122                   1
 p    1 1.00
                 0.727                   1

28 0
 s    8 1.00
                  6665  0.00069158396281299
                  1000  0.0053257961529341
                   228   0.027060721042034
                 64.71    0.10165684614077
                 21.06     0.2745748236174
                 7.495    0.44829431892377
                 2.797    0.28490261071525
                0.5215   0.015194859206082
 s    8 1.00
                  6665  -0.00029326965268655
                  1000  -0.0023180354739745
                   228  -0.011499786038565
                 64.71  -0.046826727009787
                 21.06   -0.12846616875047
                 7.495   -0.30126627246289
                 2.797   -0.25563070233011
                0.5215      1.093793361012
 s    1 1.00
                0.1596                   1
 p    3 1.00
                 9.439   0.056979251590039
                 2.002    0.31320721150073
                0.5456    0.76037674173753
 p    1 1.00
                0.1517                   1
 d    1 1.00
                  0.55                   1

29 0
 s    3 1.00
                 13.01   0.033498726389998
                 1.962    0.23480080117413
                0.4446     0.8136829578829
 s    1 1.00
                 0.122                   1
 p    1 1.00
                 0.727                   1

30 0
 s    3 1.00
                 13.01   0.033498726389998
                 1.962    0.23480080117413
                0.4446     0.8136829578829
 s    1 1.00
                 0.122                   1
 p    1 1.00
                 0.727                   1

31 0
 s    8 1.00
                  6665  0.00069158396281299
                  1000  0.0053257961529341
                   228   0.027060721042034
                 64.71    0.10165684614077
                 21.06     0.2745748236174
                 7.495    0.44829431892377
                 2.797    0.28490261071525
                0.5215   0.015194859206082
 s    8 1.00
                  6665  -0.00029326965268655
                  1000  -0.0023180354739745
                   228  -0.011499786038565
                 64.71  -0.046826727009787
                 21.06   -0.12846616875047
                 7.495   -0.30126627246289
                 2.797   -0.25563070233011
                0.5215      1.093793361012
 s    1 1.00
                0.1596                   1
 p    3 1.00
                 9.439   0.056979251590039
                 2.002    0.31320721150073
                0.5456    0.76037674173753
 p    1 1.00
                0.1517                   1
 d    1 1.00
                  0.55                   1

32 0
 s    3 1.00
                 13.01   0.033498726389998
                 1.962    0.23480080117413
                0.4446     0.8136829578829
 s    1 1.00
                 0.122                   1
 p    1 1.00
                 0.727                   1

33 0
 s    3 1.00
                 13.01   0.033498726389998
                 1.962    0.23480080117413
                0.4446     0.8136829578829
 s    1 1.00
                 0.122                   1
 p    1 1.00
                 0.727                   1

34 0
 s    3 1.00
                 13.01   0.033498726389998
                 1.962    0.23480080117413
                0.4446     0.8136829578829
 s    1 1.00
                 0.122                   1
 p    1 1.00
                 0.727                   1

35 0
 s    3 1.00
                 13.01   0.033498726389998
                 1.962    0.23480080117413
                0.4446     0.8136829578829
 s    1 1.00
                 0.122                   1
 p    1 1.00
                 0.727                   1

36 0
 s    3 1.00
                 13.01   0.033498726389998
                 1.962    0.23480080117413
                0.4446     0.8136829578829
 s    1 1.00
                 0.122                   1
 p    1 1.00
                 0.727                   1

37 0
 s    3 1.00
                 13.01   0.033498726389998
                 1.962    0.23480080117413
                0.4446     0.8136829578829
 s    1 1.00
                 0.122                   1
 p    1 1.00
                 0.727                   1

[5d]
[7f]
[9g]

[MO]
 Sym= A
 Ene=               0
 Spin= Alpha
 Occup=    1.00000
   1    -6.0091878195865e-05
   2    -4.3188971349621e-05
   3    0.00013066459144608
   4    -8.0011859504345e-08
   5    5.4711151597681e-06
   6    8.0068078919702e-06
   7    5.9028010494874e-07
   8    -2.5171484541121e-05
   9    -8.572799421364e-05
  10    1.1191695435342e-05
  11    -2.0947104157601e-08
  12    -6.0131125352092e-07
  13    3.3723032727656e-07
  14    9.3254610268665e-09
  15    -1.6589236411622e-05
  16    -0.00019445801020956
  17    -1.9304806593993e-07
  18    1.7543170232619e-06
  19    -2.2313740617395e-05
  20    -8.0718182625008e-06
  21    6.947721897549e-05
  22    1.7814570968939e-07
  23    -5.1397633985323e-06
  24    2.3703430215136e-06
  25       1.0013693607513
  26    0.0019677243689038
  27    -0.0068555673257523
  28    -4.8780219892611e-06
  29    9.1616762031498e-06
  30    -0.001649522600489
  31    -2.9285170367916e-07
  32    -1.9157526980597e-06
  33    0.0018775759618405
  34    0.00011964038718947
  35    -2.9130831756016e-06
  36    1.4176672603087e-06
  37    6.716484449565e-05
  38    -0.00017485837293574
  39    0.00028014038523784
  40    0.00038619057753251
  41    0.0014636676337946
  42    1.5466169377231e-05
  43    -9.9640654774999e-06
  44    4.4364190797404e-06
  45    8.1882173803737e-05
  46    -6.4474485016145e-05
  47    0.0036005544802695
  48    -0.00052282952693853
  49    -8.3461563745783e-06
  50    2.5197408161704e-06
  51    2.929942047811e-05
  52    -0.00010875371663608
  53    -8.4793585946426e-05
  54    -0.00016588711854832
  55    0.0013773391949265
  56    7.8320551747482e-05
  57    -7.3778144302989e-06
  58    -3.5301288225159e-05
  59    -0.00042485482453211
  60    0.00047900080136954
  61    -0.00094619942530489
  62    -0.00011692336424016
  63    0.00014995659150012
  64    -0.00014304952968274
  65    5.4719304274377e-05
  66    -0.00012876778528636
  67    -3.9545838707731e-05
  68    -9.7105367615163e-05
  69    0.00051464784951314
  70    -6.1367859524003e-05
  71    4.0411379871756e-05
  72    -6.2288796270348e-05
  73    0.0010073519573421
  74    -0.00077462756328999
  75    -0.0006472594219527
  76    -0.00014031599553376
  77    -0.00012098319580228
  78    8.9736748267487e-05
  79    5.8677431541918e-05
  80    -0.00015097668458312
  81    -6.238538467408e-05
  82    0.0002107304812499
  83    6.6404361737648e-05
  84    -4.8799109097574e-05
  85    4.8286214201785e-05
  86    2.5054780163465e-05
  87    4.9043301018846e-05
  88    -0.0006127691200653
  89    -1.5757154938306e-05
  90    -1.7156098489087e-05
  91    1.172298220007e-05
  92    0.00025888988832699
  93    0.00063504090482286
  94    -1.5804010266866e-05
  95    1.8423243444476e-05
  96    1.1336181141225e-05
  97    7.5978507657645e-06
  98    -2.0156428690278e-05
  99    -4.6761076561819e-05
 100    -3.8767373256494e-05
 101    -0.00016094161397955
 102    8.1473919575377e-06
 103    -1.0178892017531e-05
 104    7.5550656469106e-05
 105    -1.8606997649032e-05
 106    -0.00020326693024557
 107    -6.4187414534813e-05
 108    9.9258604528465e-06
 109    7.5253539702616e-05
 110    7.7524579573852e-05
 111    -6.2063929960924e-05
 112    -4.4937799664681e-05
 113    1.9137028389779e-05
 114    7.0291298969797e-05
 115    -4.8968348357894e-05
 116    -9.971937249309e-05
 117    0.00084490165687076
 118    -2.5375675849267e-05
 119    -1.0523814606586e-05
 120    3.2413828224297e-05
 121    0.00028982773910487
 122    3.2814886866801e-05
 123    -0.00014576515307923
 124    -6.313650279802e-06
 125    1.1801413390499e-05
 126    1.5227199117516e-05
 127    -3.2100375723771e-05
 128    5.0169891537157e-05
 129    -1.9419337572308e-05
 130    -0.00032787576843356
 131    7.7420860233868e-06
 132    5.925673014388e-06
 133    2.9373792077465e-05
 134    2.5865687921954e-05
 135    -0.00011771883913486
 136    -1.3587877456657e-05
 137    -2.4570175327136e-05
 138    -2.6920749807556e-05
 139    -2.1481655149488e-05
 140    -3.9154507846886e-05
 141    0.00029425469293167
 142    7.8475386461724e-06
 143    -2.6696623425567e-06
 144    -6.1018435465683e-06
 145    -0.00023066112210149
 146    5.4886334108323e-05
 147    6.2295168783951e-05
 148    -2.4678263493486e-06
 149    3.1280774941974e-06
 150    -3.8927529863037e-06
 151    1.2234006632237e-05
 152    -4.8968124461584e-06
 153    -9.6846251157014e-05
 154    -0.00010434378433774
 155    -2.6339708807866e-05
 156    2.8887796220549e-05
 157    1.9607471495481e-05
 158    -2.5754967440841e-05
 159    -8.8224069227399e-05
 160    -5.9188576016485e-05
 161    -7.1595884627707e-06
 162    6.4869701881059e-06
 163    3.9823281835221e-07
 164    -6.1625721306981e-06
 165    -0.00024967125667263
 166    -1.7248949731545e-05
 167    1.3426549802665e-05
 168    6.8977850179567e-06
 169    0.00023577053701601
 170    -0.00021112178846107
 171    -0.00013526646285404
 172    -2.647591107726e-06
 173    1.0111868993156e-05
 174    -1.3586547831097e-05
 175    3.1951538675363e-06
 176    -1.7942466743162e-05
 177    -1.6155584535834e-05
 178    8.4807407325578e-05
 179    -9.4529557817053e-07
 180    1.848364039102e-06
 181    -4.8670793041494e-06
 182    2.128546739758e-05
 183    2.8012721663989e-05
 184    -7.0360525778645e-05
 185    -4.5347966215915e-06
 186    3.7088139699384e-06
 187    5.2915483898881e-06
 188    0.00012851679303496
 189    -0.00010205997372885
 190    -8.720567184337e-05
 191    1.2647242181785e-06
 192    2.0906376505418e-06
 193    -7.6327196084099e-06
 194    -3.0325883267349e-06
 195    -5.320381018693e-06
 196    -1.3591453775438e-05
 197    -1.8923704010027e-05
 198    5.6533079787032e-06
 199    1.9418526576986e-06
 200    -3.4212738789015e-06
 201    -1.355116936016e-05
 202    3.0793366213049e-06
 203    -1.3190573890948e-05
 204    9.8827550269193e-06
 205    1.1738134951203e-05
 206    7.665321861018e-06
 207    6.7911656558267e-05
 208    -1.6041441226147e-05
 209    3.9834029667073e-06
 210    1.565908133688e-05
 211    5.5719186247951e-06
 212    -3.55412991626e-05
 213    0.0002562645820318
 214    5.949170181801e-06
 215    -4.8996255329086e-06
 216    -5.0362873247494e-06
 217    0.00019548794840585
 218    -5.4530651854011e-05
 219    -7.6866587832142e-05
 220    -2.0255745653686e-06
 221    -1.6639443131505e-05
 222    5.8227813683184e-06
 223    9.3991837514316e-06
 224    -1.4428334451003e-06
 225    2.5978761704529e-05
 226    5.5046231174983e-05
 227    -1.2387540292479e-05
 228    -2.003207200951e-06
 229    -9.9294999792073e-07
 230    1.0097022321909e-05
 231    5.4361051413377e-05
 232    -3.9961310507975e-06
 233    6.3640137619964e-06
 234    1.2054656226946e-05
 235    3.2320599426105e-06
 236    1.9792688459048e-06
 237    -7.8020738356111e-05
 238    2.6128130106526e-06
 239    2.6038826464959e-06
 240    -4.3248718414489e-06
 241    3.5892153116085e-05
 242    -6.2806095158556e-05
 243    1.7684119251164e-05
 244    1.9270645111798e-06
 245    1.8056110429924e-06
 246    -1.934303109784e-06
 247    1.6060813745213e-07
 248    9.4310351785781e-07
 249    -2.0119806622915e-05
 250    1.1712847478723e-05
 251    -4.4011269409741e-06
 252    -6.8669990712575e-07
 253    1.8308367870693e-07
 254    -1.6649527661555e-05
 255    5.5593016703988e-05
 256    -5.844853753416e-09
 257    4.2063691244925e-06
 258    -8.2510380486152e-07
 259    -2.023286429554e-05
 260    -2.7510752881939e-05
 261    7.2560798063505e-05
 262    -8.2591120994811e-06