[Molden Format]
made by pyscf v[2.0.1]
[Atoms] (AU)
O   1   8     0.00000000000000     0.00000000000000    10.56380536055454
H   2   1     0.00000000000000     0.00000000000000     8.74040353865358
H   3   1    -0.05031916615174     1.78353065140343    10.93967705702121
O   4   8     0.00000000000000     0.00000000000000     2.31533471513237
C   5   6     0.00000000000000     0.00000000000000     0.00000000000000
C   6   6     2.01118073026938    -1.40227222164369    -1.50774939176400
C   7   6    -2.01249334291722     1.41331050329955    -1.50315905028694
H   8   1     3.32037363730244    -2.26721897153159    -0.13599698591495
C   9   6     3.45899267434009     0.28739631745591    -3.37437943254505
H   10   1     1.07662969841332    -2.94725144642667    -2.56541439481080
H   11   1    -2.67503415753480     0.18421555839588    -3.06194479365997
H   12   1    -1.07974048864772     3.03851734677796    -2.43674295017013
C   13   6    -4.21607110578555     2.32938802552922     0.11994162256091
H   14   1     4.24440173074564     1.93368664142019    -2.34976285512790
H   15   1     2.15020713235517     1.04714335134846    -4.81494497423699
C   16   6     5.60746363007797    -1.12419643481196    -4.70268606082550
H   17   1    -3.46838323670267     3.50951302338067     1.66946842715333
H   18   1    -5.11873485366228     0.68575958301209     1.04047743976495
C   19   6    -6.18314754751344     3.80909592987882    -1.39656589068747
H   20   1     6.93011263717176    -1.87550812453645    -3.26656317360070
C   21   6     7.06356622236532     0.52877932406334    -6.57829775293605
H   22   1     4.82318879258361    -2.78573437948532    -5.70504560381835
H   23   1    -6.91582688743803     2.61304780074712    -2.95074552451969
H   24   1    -5.26532430573853     5.45420349051338    -2.31005832200284
C   25   6    -8.39941882261433     4.73263980500213     0.21800571437956
H   26   1     7.83338371486801     2.19084139882824    -5.57093109900697
H   27   1     5.73544244039420     1.27376866537418    -8.01071492370229
C   28   6     9.21124858443101    -0.89699110072176    -7.88926949186242
H   29   1    -7.66272760055236     5.92277078003992     1.77035591474408
H   30   1    -9.31497248082589     3.08753015622020     1.12614408368786
C   31   6   -10.35481709231879     6.21833079391143    -1.30905206253246
H   32   1    10.58815905329501    -1.61074586756696    -6.49512691622620
H   33   1    10.23506248045667     0.32468009384095    -9.23072870921204
H   34   1     8.47665842847139    -2.53598436989925    -8.94921964622535
H   35   1    -9.48948872868064     7.90013588951020    -2.18823918416067
H   36   1   -11.93332513000955     6.86460487874102    -0.11255798845995
H   37   1   -11.15126291841033     5.04495968327630    -2.83849898862534
[GTO]
1 0
 s    8 1.00
                 11720  0.00070964594651845
                  1759  0.0054672722921914
                 400.8   0.027823118610189
                 113.7    0.10474773971146
                 37.03    0.28292084635691
                 13.27    0.44849523869833
                 5.025    0.27081688521277
                 1.013    0.01545029160744
 s    8 1.00
                 11720  -0.00031444341168873
                  1759  -0.0024821376810179
                 400.8  -0.012316355381583
                 113.7  -0.050538917343672
                 37.03   -0.13938490331632
                 13.27   -0.32507749481778
                 5.025   -0.22984830758785
                 1.013     1.0953793467883
 s    1 1.00
                0.3023                   1
 p    3 1.00
                  17.7   0.062679166281506
                 3.854    0.33353656587936
                 1.046    0.74123964163973
 p    1 1.00
                0.2753                   1
 d    1 1.00
                 1.185                   1

2 0
 s    3 1.00
                 13.01   0.033498726389998
                 1.962    0.23480080117413
                0.4446     0.8136829578829
 s    1 1.00
                 0.122                   1
 p    1 1.00
                 0.727                   1

3 0
 s    3 1.00
                 13.01   0.033498726389998
                 1.962    0.23480080117413
                0.4446     0.8136829578829
 s    1 1.00
                 0.122                   1
 p    1 1.00
                 0.727                   1

4 0
 s    8 1.00
                 11720  0.00070964594651845
                  1759  0.0054672722921914
                 400.8   0.027823118610189
                 113.7    0.10474773971146
                 37.03    0.28292084635691
                 13.27    0.44849523869833
                 5.025    0.27081688521277
                 1.013    0.01545029160744
 s    8 1.00
                 11720  -0.00031444341168873
                  1759  -0.0024821376810179
                 400.8  -0.012316355381583
                 113.7  -0.050538917343672
                 37.03   -0.13938490331632
                 13.27   -0.32507749481778
                 5.025   -0.22984830758785
                 1.013     1.0953793467883
 s    1 1.00
                0.3023                   1
 p    3 1.00
                  17.7   0.062679166281506
                 3.854    0.33353656587936
                 1.046    0.74123964163973
 p    1 1.00
                0.2753                   1
 d    1 1.00
                 1.185                   1

5 0
 s    8 1.00
                  6665  0.00069158396281299
                  1000  0.0053257961529341
                   228   0.027060721042034
                 64.71    0.10165684614077
                 21.06     0.2745748236174
                 7.495    0.44829431892377
                 2.797    0.28490261071525
                0.5215   0.015194859206082
 s    8 1.00
                  6665  -0.00029326965268655
                  1000  -0.0023180354739745
                   228  -0.011499786038565
                 64.71  -0.046826727009787
                 21.06   -0.12846616875047
                 7.495   -0.30126627246289
                 2.797   -0.25563070233011
                0.5215      1.093793361012
 s    1 1.00
                0.1596                   1
 p    3 1.00
                 9.439   0.056979251590039
                 2.002    0.31320721150073
                0.5456    0.76037674173753
 p    1 1.00
                0.1517                   1
 d    1 1.00
                  0.55                   1

6 0
 s    8 1.00
                  6665  0.00069158396281299
                  1000  0.0053257961529341
                   228   0.027060721042034
                 64.71    0.10165684614077
                 21.06     0.2745748236174
                 7.495    0.44829431892377
                 2.797    0.28490261071525
                0.5215   0.015194859206082
 s    8 1.00
                  6665  -0.00029326965268655
                  1000  -0.0023180354739745
                   228  -0.011499786038565
                 64.71  -0.046826727009787
                 21.06   -0.12846616875047
                 7.495   -0.30126627246289
                 2.797   -0.25563070233011
                0.5215      1.093793361012
 s    1 1.00
                0.1596                   1
 p    3 1.00
                 9.439   0.056979251590039
                 2.002    0.31320721150073
                0.5456    0.76037674173753
 p    1 1.00
                0.1517                   1
 d    1 1.00
                  0.55                   1

7 0
 s    8 1.00
                  6665  0.00069158396281299
                  1000  0.0053257961529341
                   228   0.027060721042034
                 64.71    0.10165684614077
                 21.06     0.2745748236174
                 7.495    0.44829431892377
                 2.797    0.28490261071525
                0.5215   0.015194859206082
 s    8 1.00
                  6665  -0.00029326965268655
                  1000  -0.0023180354739745
                   228  -0.011499786038565
                 64.71  -0.046826727009787
                 21.06   -0.12846616875047
                 7.495   -0.30126627246289
                 2.797   -0.25563070233011
                0.5215      1.093793361012
 s    1 1.00
                0.1596                   1
 p    3 1.00
                 9.439   0.056979251590039
                 2.002    0.31320721150073
                0.5456    0.76037674173753
 p    1 1.00
                0.1517                   1
 d    1 1.00
                  0.55                   1

8 0
 s    3 1.00
                 13.01   0.033498726389998
                 1.962    0.23480080117413
                0.4446     0.8136829578829
 s    1 1.00
                 0.122                   1
 p    1 1.00
                 0.727                   1

9 0
 s    8 1.00
                  6665  0.00069158396281299
                  1000  0.0053257961529341
                   228   0.027060721042034
                 64.71    0.10165684614077
                 21.06     0.2745748236174
                 7.495    0.44829431892377
                 2.797    0.28490261071525
                0.5215   0.015194859206082
 s    8 1.00
                  6665  -0.00029326965268655
                  1000  -0.0023180354739745
                   228  -0.011499786038565
                 64.71  -0.046826727009787
                 21.06   -0.12846616875047
                 7.495   -0.30126627246289
                 2.797   -0.25563070233011
                0.5215      1.093793361012
 s    1 1.00
                0.1596                   1
 p    3 1.00
                 9.439   0.056979251590039
                 2.002    0.31320721150073
                0.5456    0.76037674173753
 p    1 1.00
                0.1517                   1
 d    1 1.00
                  0.55                   1

10 0
 s    3 1.00
                 13.01   0.033498726389998
                 1.962    0.23480080117413
                0.4446     0.8136829578829
 s    1 1.00
                 0.122                   1
 p    1 1.00
                 0.727                   1

11 0
 s    3 1.00
                 13.01   0.033498726389998
                 1.962    0.23480080117413
                0.4446     0.8136829578829
 s    1 1.00
                 0.122                   1
 p    1 1.00
                 0.727                   1

12 0
 s    3 1.00
                 13.01   0.033498726389998
                 1.962    0.23480080117413
                0.4446     0.8136829578829
 s    1 1.00
                 0.122                   1
 p    1 1.00
                 0.727                   1

13 0
 s    8 1.00
                  6665  0.00069158396281299
                  1000  0.0053257961529341
                   228   0.027060721042034
                 64.71    0.10165684614077
                 21.06     0.2745748236174
                 7.495    0.44829431892377
                 2.797    0.28490261071525
                0.5215   0.015194859206082
 s    8 1.00
                  6665  -0.00029326965268655
                  1000  -0.0023180354739745
                   228  -0.011499786038565
                 64.71  -0.046826727009787
                 21.06   -0.12846616875047
                 7.495   -0.30126627246289
                 2.797   -0.25563070233011
                0.5215      1.093793361012
 s    1 1.00
                0.1596                   1
 p    3 1.00
                 9.439   0.056979251590039
                 2.002    0.31320721150073
                0.5456    0.76037674173753
 p    1 1.00
                0.1517                   1
 d    1 1.00
                  0.55                   1

14 0
 s    3 1.00
                 13.01   0.033498726389998
                 1.962    0.23480080117413
                0.4446     0.8136829578829
 s    1 1.00
                 0.122                   1
 p    1 1.00
                 0.727                   1

15 0
 s    3 1.00
                 13.01   0.033498726389998
                 1.962    0.23480080117413
                0.4446     0.8136829578829
 s    1 1.00
                 0.122                   1
 p    1 1.00
                 0.727                   1

16 0
 s    8 1.00
                  6665  0.00069158396281299
                  1000  0.0053257961529341
                   228   0.027060721042034
                 64.71    0.10165684614077
                 21.06     0.2745748236174
                 7.495    0.44829431892377
                 2.797    0.28490261071525
                0.5215   0.015194859206082
 s    8 1.00
                  6665  -0.00029326965268655
                  1000  -0.0023180354739745
                   228  -0.011499786038565
                 64.71  -0.046826727009787
                 21.06   -0.12846616875047
                 7.495   -0.30126627246289
                 2.797   -0.25563070233011
                0.5215      1.093793361012
 s    1 1.00
                0.1596                   1
 p    3 1.00
                 9.439   0.056979251590039
                 2.002    0.31320721150073
                0.5456    0.76037674173753
 p    1 1.00
                0.1517                   1
 d    1 1.00
                  0.55                   1

17 0
 s    3 1.00
                 13.01   0.033498726389998
                 1.962    0.23480080117413
                0.4446     0.8136829578829
 s    1 1.00
                 0.122                   1
 p    1 1.00
                 0.727                   1

18 0
 s    3 1.00
                 13.01   0.033498726389998
                 1.962    0.23480080117413
                0.4446     0.8136829578829
 s    1 1.00
                 0.122                   1
 p    1 1.00
                 0.727                   1

19 0
 s    8 1.00
                  6665  0.00069158396281299
                  1000  0.0053257961529341
                   228   0.027060721042034
                 64.71    0.10165684614077
                 21.06     0.2745748236174
                 7.495    0.44829431892377
                 2.797    0.28490261071525
                0.5215   0.015194859206082
 s    8 1.00
                  6665  -0.00029326965268655
                  1000  -0.0023180354739745
                   228  -0.011499786038565
                 64.71  -0.046826727009787
                 21.06   -0.12846616875047
                 7.495   -0.30126627246289
                 2.797   -0.25563070233011
                0.5215      1.093793361012
 s    1 1.00
                0.1596                   1
 p    3 1.00
                 9.439   0.056979251590039
                 2.002    0.31320721150073
                0.5456    0.76037674173753
 p    1 1.00
                0.1517                   1
 d    1 1.00
                  0.55                   1

20 0
 s    3 1.00
                 13.01   0.033498726389998
                 1.962    0.23480080117413
                0.4446     0.8136829578829
 s    1 1.00
                 0.122                   1
 p    1 1.00
                 0.727                   1

21 0
 s    8 1.00
                  6665  0.00069158396281299
                  1000  0.0053257961529341
                   228   0.027060721042034
                 64.71    0.10165684614077
                 21.06     0.2745748236174
                 7.495    0.44829431892377
                 2.797    0.28490261071525
                0.5215   0.015194859206082
 s    8 1.00
                  6665  -0.00029326965268655
                  1000  -0.0023180354739745
                   228  -0.011499786038565
                 64.71  -0.046826727009787
                 21.06   -0.12846616875047
                 7.495   -0.30126627246289
                 2.797   -0.25563070233011
                0.5215      1.093793361012
 s    1 1.00
                0.1596                   1
 p    3 1.00
                 9.439   0.056979251590039
                 2.002    0.31320721150073
                0.5456    0.76037674173753
 p    1 1.00
                0.1517                   1
 d    1 1.00
                  0.55                   1

22 0
 s    3 1.00
                 13.01   0.033498726389998
                 1.962    0.23480080117413
                0.4446     0.8136829578829
 s    1 1.00
                 0.122                   1
 p    1 1.00
                 0.727                   1

23 0
 s    3 1.00
                 13.01   0.033498726389998
                 1.962    0.23480080117413
                0.4446     0.8136829578829
 s    1 1.00
                 0.122                   1
 p    1 1.00
                 0.727                   1

24 0
 s    3 1.00
                 13.01   0.033498726389998
                 1.962    0.23480080117413
                0.4446     0.8136829578829
 s    1 1.00
                 0.122                   1
 p    1 1.00
                 0.727                   1

25 0
 s    8 1.00
                  6665  0.00069158396281299
                  1000  0.0053257961529341
                   228   0.027060721042034
                 64.71    0.10165684614077
                 21.06     0.2745748236174
                 7.495    0.44829431892377
                 2.797    0.28490261071525
                0.5215   0.015194859206082
 s    8 1.00
                  6665  -0.00029326965268655
                  1000  -0.0023180354739745
                   228  -0.011499786038565
                 64.71  -0.046826727009787
                 21.06   -0.12846616875047
                 7.495   -0.30126627246289
                 2.797   -0.25563070233011
                0.5215      1.093793361012
 s    1 1.00
                0.1596                   1
 p    3 1.00
                 9.439   0.056979251590039
                 2.002    0.31320721150073
                0.5456    0.76037674173753
 p    1 1.00
                0.1517                   1
 d    1 1.00
                  0.55                   1

26 0
 s    3 1.00
                 13.01   0.033498726389998
                 1.962    0.23480080117413
                0.4446     0.8136829578829
 s    1 1.00
                 0.122                   1
 p    1 1.00
                 0.727                   1

27 0
 s    3 1.00
                 13.01   0.033498726389998
                 1.962    0.23480080117413
                0.4446     0.8136829578829
 s    1 1.00
                 0.122                   1
 p    1 1.00
                 0.727                   1

28 0
 s    8 1.00
                  6665  0.00069158396281299
                  1000  0.0053257961529341
                   228   0.027060721042034
                 64.71    0.10165684614077
                 21.06     0.2745748236174
                 7.495    0.44829431892377
                 2.797    0.28490261071525
                0.5215   0.015194859206082
 s    8 1.00
                  6665  -0.00029326965268655
                  1000  -0.0023180354739745
                   228  -0.011499786038565
                 64.71  -0.046826727009787
                 21.06   -0.12846616875047
                 7.495   -0.30126627246289
                 2.797   -0.25563070233011
                0.5215      1.093793361012
 s    1 1.00
                0.1596                   1
 p    3 1.00
                 9.439   0.056979251590039
                 2.002    0.31320721150073
                0.5456    0.76037674173753
 p    1 1.00
                0.1517                   1
 d    1 1.00
                  0.55                   1

29 0
 s    3 1.00
                 13.01   0.033498726389998
                 1.962    0.23480080117413
                0.4446     0.8136829578829
 s    1 1.00
                 0.122                   1
 p    1 1.00
                 0.727                   1

30 0
 s    3 1.00
                 13.01   0.033498726389998
                 1.962    0.23480080117413
                0.4446     0.8136829578829
 s    1 1.00
                 0.122                   1
 p    1 1.00
                 0.727                   1

31 0
 s    8 1.00
                  6665  0.00069158396281299
                  1000  0.0053257961529341
                   228   0.027060721042034
                 64.71    0.10165684614077
                 21.06     0.2745748236174
                 7.495    0.44829431892377
                 2.797    0.28490261071525
                0.5215   0.015194859206082
 s    8 1.00
                  6665  -0.00029326965268655
                  1000  -0.0023180354739745
                   228  -0.011499786038565
                 64.71  -0.046826727009787
                 21.06   -0.12846616875047
                 7.495   -0.30126627246289
                 2.797   -0.25563070233011
                0.5215      1.093793361012
 s    1 1.00
                0.1596                   1
 p    3 1.00
                 9.439   0.056979251590039
                 2.002    0.31320721150073
                0.5456    0.76037674173753
 p    1 1.00
                0.1517                   1
 d    1 1.00
                  0.55                   1

32 0
 s    3 1.00
                 13.01   0.033498726389998
                 1.962    0.23480080117413
                0.4446     0.8136829578829
 s    1 1.00
                 0.122                   1
 p    1 1.00
                 0.727                   1

33 0
 s    3 1.00
                 13.01   0.033498726389998
                 1.962    0.23480080117413
                0.4446     0.8136829578829
 s    1 1.00
                 0.122                   1
 p    1 1.00
                 0.727                   1

34 0
 s    3 1.00
                 13.01   0.033498726389998
                 1.962    0.23480080117413
                0.4446     0.8136829578829
 s    1 1.00
                 0.122                   1
 p    1 1.00
                 0.727                   1

35 0
 s    3 1.00
                 13.01   0.033498726389998
                 1.962    0.23480080117413
                0.4446     0.8136829578829
 s    1 1.00
                 0.122                   1
 p    1 1.00
                 0.727                   1

36 0
 s    3 1.00
                 13.01   0.033498726389998
                 1.962    0.23480080117413
                0.4446     0.8136829578829
 s    1 1.00
                 0.122                   1
 p    1 1.00
                 0.727                   1

37 0
 s    3 1.00
                 13.01   0.033498726389998
                 1.962    0.23480080117413
                0.4446     0.8136829578829
 s    1 1.00
                 0.122                   1
 p    1 1.00
                 0.727                   1

[5d]
[7f]
[9g]

[MO]
 Sym= A
 Ene=               0
 Spin= Alpha
 Occup=    1.00000
   1    3.6424329424267e-05
   2    2.1587419190491e-05
   3    -8.1584862942122e-05
   4    7.3170891613947e-08
   5    -3.1207006539645e-06
   6    -1.578839488259e-07
   7    -4.7006528132604e-07
   8    1.7466501625362e-05
   9    5.953451377423e-05
  10    -1.0852139390741e-05
  11    -1.3209339879636e-08
  12    7.5471761232811e-07
  13    -5.7405281637421e-07
  14    -3.0314510292573e-08
  15    1.0389265244613e-05
  16    0.00011901408444022
  17    5.9078322501652e-08
  18    -1.0976266880249e-06
  19    3.2958074907534e-05
  20    4.8695899505512e-06
  21    -4.7476733006153e-05
  22    -1.5681477388793e-07
  23    5.3033772658192e-06
  24    -1.8231708670814e-06
  25      -1.0013607313049
  26    -0.0019492260773323
  27    0.0067783305990317
  28    4.5704308075396e-06
  29    -7.990910725582e-06
  30    0.0016571867957853
  31    8.992140965361e-07
  32    7.2400222402836e-07
  33    -0.0018205650899461
  34    -0.00012809958880934
  35    3.0134806038734e-06
  36    -1.3388784068466e-06
  37    -6.7559932491754e-05
  38    0.00017598595235283
  39    -0.00027346438744453
  40    -0.00037123965438753
  41    -0.0014026576379214
  42    -1.5074061246405e-05
  43    1.0069861435447e-05
  44    1.1152013687634e-05
  45    -8.7656435638053e-05
  46    6.7112791705715e-05
  47    -0.0035431652175881
  48    0.00053708167138724
  49    8.8581449982039e-06
  50    -2.7348758887839e-06
  51    -2.8587795636535e-05
  52    0.00010692764326262
  53    8.4834363603387e-05
  54    0.00016575502694587
  55    -0.0013655641924502
  56    -7.791746071254e-05
  57    7.1084819906049e-06
  58    3.600839994359e-05
  59    0.00042245114790493
  60    -0.00047532624391188
  61    0.00092660855844448
  62    0.00011780013123356
  63    -0.00015028419877842
  64    0.00014291532791304
  65    -5.5124247671201e-05
  66    0.0001302412749368
  67    4.1545178613345e-05
  68    9.8153544965245e-05
  69    -0.00052587429878343
  70    6.2678813224234e-05
  71    -4.0306875586153e-05
  72    6.0455104822113e-05
  73    -0.00099803014511093
  74    0.0007701436922553
  75    0.00063106158062583
  76    0.00014169148900138
  77    0.00012018565801523
  78    -8.9562240643173e-05
  79    -5.9081612930225e-05
  80    0.00015239493438857
  81    6.475411184989e-05
  82    -0.00020636024302315
  83    -6.5999281894235e-05
  84    4.8446866040594e-05
  85    -4.9073557373306e-05
  86    -2.5062801716659e-05
  87    -4.8662542946711e-05
  88    0.00060477595833196
  89    1.6308313133075e-05
  90    1.6594749141698e-05
  91    -1.2324911960941e-05
  92    -0.00025554730473565
  93    -0.00062436238625221
  94    1.7607647378386e-05
  95    -1.8049895350006e-05
  96    -1.1097891694129e-05
  97    -7.1459923245539e-06
  98    2.0675361915621e-05
  99    4.5613733260279e-05
 100    3.7052284154982e-05
 101    0.00015826634049401
 102    -9.3147052083227e-06
 103    9.7636377941255e-06
 104    -7.437741326368e-05
 105    1.9107724887648e-05
 106    0.00020159649264549
 107    6.4516676662845e-05
 108    -1.1378330007627e-05
 109    -7.4590363642778e-05
 110    -7.5851593620399e-05
 111    5.9511188019373e-05
 112    4.5720336544442e-05
 113    -1.8368576303843e-05
 114    -6.9563429757268e-05
 115    5.2637935133582e-05
 116    0.00010014513960949
 117    -0.00083566263776941
 118    2.8704883319802e-05
 119    6.5241658223575e-06
 120    -3.4831394983168e-05
 121    -0.00029699264158533
 122    -3.0043659901374e-05
 123    0.00013464576868302
 124    9.1919884696805e-06
 125    -8.5838573276787e-06
 126    -1.8562763627723e-05
 127    3.1599804748395e-05
 128    -4.9654648318384e-05
 129    1.8993867986412e-05
 130    0.00032190652289813
 131    -7.4780946129942e-06
 132    -5.8879785274693e-06
 133    -2.9154794073685e-05
 134    -2.613747444974e-05
 135    0.00011831974227601
 136    1.3430134158154e-05
 137    2.4021698721973e-05
 138    2.6616826463149e-05
 139    2.1051561151506e-05
 140    3.8169251953894e-05
 141    -0.00028828787051494
 142    -7.5820796706968e-06
 143    2.155933015625e-06
 144    5.8660390991635e-06
 145    0.00022851654793613
 146    -5.2192550384932e-05
 147    -6.2695489413585e-05
 148    2.201685020214e-06
 149    -3.640641344006e-06
 150    3.8596704812422e-06
 151    -1.13901815006e-05
 152    5.2147364163295e-06
 153    9.979535621418e-05
 154    0.00011986336103019
 155    2.5935271584841e-05
 156    -3.0087764164698e-05
 157    -2.0112845758901e-05
 158    2.9857028876781e-05
 159    9.5298444943439e-05
 160    5.9802799946274e-05
 161    7.1953000733154e-06
 162    -5.9276387543698e-06
 163    7.961026397265e-05
 164    0.00010004134841114
 165    0.00028057625406773
 166    3.5470469571155e-05
 167    -1.7306573473122e-05
 168    -0.00011928490069819
 169    -0.00022916938756065
 170    0.00021300011333033
 171    7.3284710736062e-05
 172    3.5517955119608e-06
 173    -7.900677345963e-06
 174    1.4716443187359e-05
 175    -6.6011337820247e-06
 176    2.3686582757522e-05
 177    1.4478893666615e-05
 178    -8.5760449912944e-05
 179    7.3248809234799e-07
 180    -2.0303315311282e-06
 181    5.0085358447419e-06
 182    -1.7140981021632e-05
 183    -1.9874651087352e-05
 184    7.3350801874368e-05
 185    2.3636184935644e-05
 186    -1.3154504499052e-05
 187    -5.2039295608563e-06
 188    -0.00011710659758859
 189    9.6286722092328e-05
 190    8.462601293616e-05
 191    -1.6918432040768e-06
 192    -3.2775194090763e-06
 193    8.6559130466316e-06
 194    3.0501311444591e-06
 195    4.5440224835514e-06
 196    1.3870176935666e-05
 197    1.886309178794e-05
 198    -5.6599302620189e-06
 199    -1.9642177383396e-06
 200    3.5272474727163e-06
 201    0.00013181182320417
 202    3.3339297252307e-05
 203    1.8007695843611e-05
 204    -2.7468117350443e-06
 205    -5.3946041915786e-06
 206    8.7277550434197e-05
 207    -4.0647452526632e-05
 208    1.1901902808001e-05
 209    -1.2560243845382e-05
 210    -1.4054783007792e-05
 211    1.0066782058447e-05
 212    3.0440681608039e-05
 213    -0.00025438335182927
 214     -3.4698494899e-05
 215    1.2769294688435e-05
 216    2.2082739865565e-05
 217    -0.00021012557951275
 218    5.8703235398548e-05
 219    8.572051305762e-05
 220    4.0570422068102e-06
 221    1.4188741737339e-05
 222    -4.3771556928171e-06
 223    -9.926606018068e-06
 224    2.6406541565986e-06
 225    -2.1835378853142e-05
 226    -5.304963005925e-05
 227    1.2549542747738e-05
 228    1.3485924239246e-06
 229    8.6031268057526e-07
 230    -2.0972485866648e-05
 231    -6.0680234541807e-05
 232    3.8828858930612e-06
 233    -6.1482644506435e-06
 234    -1.2470390636473e-05
 235    -5.3972917957765e-06
 236    5.795842676155e-06
 237    8.2438565477543e-05
 238    -1.8759269414895e-05
 239    5.043579198311e-06
 240    1.1022307090655e-05
 241    -4.2622975264762e-05
 242    6.5508264422474e-05
 243    -1.4747633990356e-05
 244    -1.9689177813991e-06
 245    -2.8886128496326e-06
 246    2.9335877003873e-06
 247    -5.6061076343962e-08
 248    -1.5825519738232e-06
 249    2.8888540153581e-05
 250    -3.7341699221466e-06
 251    3.4992297288061e-06
 252    6.2345955101557e-07
 253    2.8537434327906e-07
 254     2.92020665024e-05
 255    -4.7104684591192e-05
 256    -1.5877177023147e-07
 257    -3.1272788100353e-06
 258    1.1506030772239e-06
 259    3.1046642207178e-06
 260    1.7009328868857e-05
 261    -8.7766357346192e-05
 262    6.4099654122072e-06
 263    -2.5608715131609e-06