[Molden Format]
made by pyscf v[2.0.1]
[Atoms] (AU)
O   1   8     0.00000000000000     0.00000000000000    11.69764103529358
H   2   1     0.00000000000000     0.00000000000000     9.87423921339262
H   3   1    -0.05031916615174     1.78353065140343    12.07351273176025
O   4   8     0.00000000000000     0.00000000000000     2.31533471513237
C   5   6     0.00000000000000     0.00000000000000     0.00000000000000
C   6   6     2.01118073026938    -1.40227222164369    -1.50774939176400
C   7   6    -2.01249334291722     1.41331050329955    -1.50315905028694
H   8   1     3.32037363730244    -2.26721897153159    -0.13599698591495
C   9   6     3.45899267434009     0.28739631745591    -3.37437943254505
H   10   1     1.07662969841332    -2.94725144642667    -2.56541439481080
H   11   1    -2.67503415753480     0.18421555839588    -3.06194479365997
H   12   1    -1.07974048864772     3.03851734677796    -2.43674295017013
C   13   6    -4.21607110578555     2.32938802552922     0.11994162256091
H   14   1     4.24440173074564     1.93368664142019    -2.34976285512790
H   15   1     2.15020713235517     1.04714335134846    -4.81494497423699
C   16   6     5.60746363007797    -1.12419643481196    -4.70268606082550
H   17   1    -3.46838323670267     3.50951302338067     1.66946842715333
H   18   1    -5.11873485366228     0.68575958301209     1.04047743976495
C   19   6    -6.18314754751344     3.80909592987882    -1.39656589068747
H   20   1     6.93011263717176    -1.87550812453645    -3.26656317360070
C   21   6     7.06356622236532     0.52877932406334    -6.57829775293605
H   22   1     4.82318879258361    -2.78573437948532    -5.70504560381835
H   23   1    -6.91582688743803     2.61304780074712    -2.95074552451969
H   24   1    -5.26532430573853     5.45420349051338    -2.31005832200284
C   25   6    -8.39941882261433     4.73263980500213     0.21800571437956
H   26   1     7.83338371486801     2.19084139882824    -5.57093109900697
H   27   1     5.73544244039420     1.27376866537418    -8.01071492370229
C   28   6     9.21124858443101    -0.89699110072176    -7.88926949186242
H   29   1    -7.66272760055236     5.92277078003992     1.77035591474408
H   30   1    -9.31497248082589     3.08753015622020     1.12614408368786
C   31   6   -10.35481709231879     6.21833079391143    -1.30905206253246
H   32   1    10.58815905329501    -1.61074586756696    -6.49512691622620
H   33   1    10.23506248045667     0.32468009384095    -9.23072870921204
H   34   1     8.47665842847139    -2.53598436989925    -8.94921964622535
H   35   1    -9.48948872868064     7.90013588951020    -2.18823918416067
H   36   1   -11.93332513000955     6.86460487874102    -0.11255798845995
H   37   1   -11.15126291841033     5.04495968327630    -2.83849898862534
[GTO]
1 0
 s    8 1.00
                 11720  0.00070964594651845
                  1759  0.0054672722921914
                 400.8   0.027823118610189
                 113.7    0.10474773971146
                 37.03    0.28292084635691
                 13.27    0.44849523869833
                 5.025    0.27081688521277
                 1.013    0.01545029160744
 s    8 1.00
                 11720  -0.00031444341168873
                  1759  -0.0024821376810179
                 400.8  -0.012316355381583
                 113.7  -0.050538917343672
                 37.03   -0.13938490331632
                 13.27   -0.32507749481778
                 5.025   -0.22984830758785
                 1.013     1.0953793467883
 s    1 1.00
                0.3023                   1
 p    3 1.00
                  17.7   0.062679166281506
                 3.854    0.33353656587936
                 1.046    0.74123964163973
 p    1 1.00
                0.2753                   1
 d    1 1.00
                 1.185                   1

2 0
 s    3 1.00
                 13.01   0.033498726389998
                 1.962    0.23480080117413
                0.4446     0.8136829578829
 s    1 1.00
                 0.122                   1
 p    1 1.00
                 0.727                   1

3 0
 s    3 1.00
                 13.01   0.033498726389998
                 1.962    0.23480080117413
                0.4446     0.8136829578829
 s    1 1.00
                 0.122                   1
 p    1 1.00
                 0.727                   1

4 0
 s    8 1.00
                 11720  0.00070964594651845
                  1759  0.0054672722921914
                 400.8   0.027823118610189
                 113.7    0.10474773971146
                 37.03    0.28292084635691
                 13.27    0.44849523869833
                 5.025    0.27081688521277
                 1.013    0.01545029160744
 s    8 1.00
                 11720  -0.00031444341168873
                  1759  -0.0024821376810179
                 400.8  -0.012316355381583
                 113.7  -0.050538917343672
                 37.03   -0.13938490331632
                 13.27   -0.32507749481778
                 5.025   -0.22984830758785
                 1.013     1.0953793467883
 s    1 1.00
                0.3023                   1
 p    3 1.00
                  17.7   0.062679166281506
                 3.854    0.33353656587936
                 1.046    0.74123964163973
 p    1 1.00
                0.2753                   1
 d    1 1.00
                 1.185                   1

5 0
 s    8 1.00
                  6665  0.00069158396281299
                  1000  0.0053257961529341
                   228   0.027060721042034
                 64.71    0.10165684614077
                 21.06     0.2745748236174
                 7.495    0.44829431892377
                 2.797    0.28490261071525
                0.5215   0.015194859206082
 s    8 1.00
                  6665  -0.00029326965268655
                  1000  -0.0023180354739745
                   228  -0.011499786038565
                 64.71  -0.046826727009787
                 21.06   -0.12846616875047
                 7.495   -0.30126627246289
                 2.797   -0.25563070233011
                0.5215      1.093793361012
 s    1 1.00
                0.1596                   1
 p    3 1.00
                 9.439   0.056979251590039
                 2.002    0.31320721150073
                0.5456    0.76037674173753
 p    1 1.00
                0.1517                   1
 d    1 1.00
                  0.55                   1

6 0
 s    8 1.00
                  6665  0.00069158396281299
                  1000  0.0053257961529341
                   228   0.027060721042034
                 64.71    0.10165684614077
                 21.06     0.2745748236174
                 7.495    0.44829431892377
                 2.797    0.28490261071525
                0.5215   0.015194859206082
 s    8 1.00
                  6665  -0.00029326965268655
                  1000  -0.0023180354739745
                   228  -0.011499786038565
                 64.71  -0.046826727009787
                 21.06   -0.12846616875047
                 7.495   -0.30126627246289
                 2.797   -0.25563070233011
                0.5215      1.093793361012
 s    1 1.00
                0.1596                   1
 p    3 1.00
                 9.439   0.056979251590039
                 2.002    0.31320721150073
                0.5456    0.76037674173753
 p    1 1.00
                0.1517                   1
 d    1 1.00
                  0.55                   1

7 0
 s    8 1.00
                  6665  0.00069158396281299
                  1000  0.0053257961529341
                   228   0.027060721042034
                 64.71    0.10165684614077
                 21.06     0.2745748236174
                 7.495    0.44829431892377
                 2.797    0.28490261071525
                0.5215   0.015194859206082
 s    8 1.00
                  6665  -0.00029326965268655
                  1000  -0.0023180354739745
                   228  -0.011499786038565
                 64.71  -0.046826727009787
                 21.06   -0.12846616875047
                 7.495   -0.30126627246289
                 2.797   -0.25563070233011
                0.5215      1.093793361012
 s    1 1.00
                0.1596                   1
 p    3 1.00
                 9.439   0.056979251590039
                 2.002    0.31320721150073
                0.5456    0.76037674173753
 p    1 1.00
                0.1517                   1
 d    1 1.00
                  0.55                   1

8 0
 s    3 1.00
                 13.01   0.033498726389998
                 1.962    0.23480080117413
                0.4446     0.8136829578829
 s    1 1.00
                 0.122                   1
 p    1 1.00
                 0.727                   1

9 0
 s    8 1.00
                  6665  0.00069158396281299
                  1000  0.0053257961529341
                   228   0.027060721042034
                 64.71    0.10165684614077
                 21.06     0.2745748236174
                 7.495    0.44829431892377
                 2.797    0.28490261071525
                0.5215   0.015194859206082
 s    8 1.00
                  6665  -0.00029326965268655
                  1000  -0.0023180354739745
                   228  -0.011499786038565
                 64.71  -0.046826727009787
                 21.06   -0.12846616875047
                 7.495   -0.30126627246289
                 2.797   -0.25563070233011
                0.5215      1.093793361012
 s    1 1.00
                0.1596                   1
 p    3 1.00
                 9.439   0.056979251590039
                 2.002    0.31320721150073
                0.5456    0.76037674173753
 p    1 1.00
                0.1517                   1
 d    1 1.00
                  0.55                   1

10 0
 s    3 1.00
                 13.01   0.033498726389998
                 1.962    0.23480080117413
                0.4446     0.8136829578829
 s    1 1.00
                 0.122                   1
 p    1 1.00
                 0.727                   1

11 0
 s    3 1.00
                 13.01   0.033498726389998
                 1.962    0.23480080117413
                0.4446     0.8136829578829
 s    1 1.00
                 0.122                   1
 p    1 1.00
                 0.727                   1

12 0
 s    3 1.00
                 13.01   0.033498726389998
                 1.962    0.23480080117413
                0.4446     0.8136829578829
 s    1 1.00
                 0.122                   1
 p    1 1.00
                 0.727                   1

13 0
 s    8 1.00
                  6665  0.00069158396281299
                  1000  0.0053257961529341
                   228   0.027060721042034
                 64.71    0.10165684614077
                 21.06     0.2745748236174
                 7.495    0.44829431892377
                 2.797    0.28490261071525
                0.5215   0.015194859206082
 s    8 1.00
                  6665  -0.00029326965268655
                  1000  -0.0023180354739745
                   228  -0.011499786038565
                 64.71  -0.046826727009787
                 21.06   -0.12846616875047
                 7.495   -0.30126627246289
                 2.797   -0.25563070233011
                0.5215      1.093793361012
 s    1 1.00
                0.1596                   1
 p    3 1.00
                 9.439   0.056979251590039
                 2.002    0.31320721150073
                0.5456    0.76037674173753
 p    1 1.00
                0.1517                   1
 d    1 1.00
                  0.55                   1

14 0
 s    3 1.00
                 13.01   0.033498726389998
                 1.962    0.23480080117413
                0.4446     0.8136829578829
 s    1 1.00
                 0.122                   1
 p    1 1.00
                 0.727                   1

15 0
 s    3 1.00
                 13.01   0.033498726389998
                 1.962    0.23480080117413
                0.4446     0.8136829578829
 s    1 1.00
                 0.122                   1
 p    1 1.00
                 0.727                   1

16 0
 s    8 1.00
                  6665  0.00069158396281299
                  1000  0.0053257961529341
                   228   0.027060721042034
                 64.71    0.10165684614077
                 21.06     0.2745748236174
                 7.495    0.44829431892377
                 2.797    0.28490261071525
                0.5215   0.015194859206082
 s    8 1.00
                  6665  -0.00029326965268655
                  1000  -0.0023180354739745
                   228  -0.011499786038565
                 64.71  -0.046826727009787
                 21.06   -0.12846616875047
                 7.495   -0.30126627246289
                 2.797   -0.25563070233011
                0.5215      1.093793361012
 s    1 1.00
                0.1596                   1
 p    3 1.00
                 9.439   0.056979251590039
                 2.002    0.31320721150073
                0.5456    0.76037674173753
 p    1 1.00
                0.1517                   1
 d    1 1.00
                  0.55                   1

17 0
 s    3 1.00
                 13.01   0.033498726389998
                 1.962    0.23480080117413
                0.4446     0.8136829578829
 s    1 1.00
                 0.122                   1
 p    1 1.00
                 0.727                   1

18 0
 s    3 1.00
                 13.01   0.033498726389998
                 1.962    0.23480080117413
                0.4446     0.8136829578829
 s    1 1.00
                 0.122                   1
 p    1 1.00
                 0.727                   1

19 0
 s    8 1.00
                  6665  0.00069158396281299
                  1000  0.0053257961529341
                   228   0.027060721042034
                 64.71    0.10165684614077
                 21.06     0.2745748236174
                 7.495    0.44829431892377
                 2.797    0.28490261071525
                0.5215   0.015194859206082
 s    8 1.00
                  6665  -0.00029326965268655
                  1000  -0.0023180354739745
                   228  -0.011499786038565
                 64.71  -0.046826727009787
                 21.06   -0.12846616875047
                 7.495   -0.30126627246289
                 2.797   -0.25563070233011
                0.5215      1.093793361012
 s    1 1.00
                0.1596                   1
 p    3 1.00
                 9.439   0.056979251590039
                 2.002    0.31320721150073
                0.5456    0.76037674173753
 p    1 1.00
                0.1517                   1
 d    1 1.00
                  0.55                   1

20 0
 s    3 1.00
                 13.01   0.033498726389998
                 1.962    0.23480080117413
                0.4446     0.8136829578829
 s    1 1.00
                 0.122                   1
 p    1 1.00
                 0.727                   1

21 0
 s    8 1.00
                  6665  0.00069158396281299
                  1000  0.0053257961529341
                   228   0.027060721042034
                 64.71    0.10165684614077
                 21.06     0.2745748236174
                 7.495    0.44829431892377
                 2.797    0.28490261071525
                0.5215   0.015194859206082
 s    8 1.00
                  6665  -0.00029326965268655
                  1000  -0.0023180354739745
                   228  -0.011499786038565
                 64.71  -0.046826727009787
                 21.06   -0.12846616875047
                 7.495   -0.30126627246289
                 2.797   -0.25563070233011
                0.5215      1.093793361012
 s    1 1.00
                0.1596                   1
 p    3 1.00
                 9.439   0.056979251590039
                 2.002    0.31320721150073
                0.5456    0.76037674173753
 p    1 1.00
                0.1517                   1
 d    1 1.00
                  0.55                   1

22 0
 s    3 1.00
                 13.01   0.033498726389998
                 1.962    0.23480080117413
                0.4446     0.8136829578829
 s    1 1.00
                 0.122                   1
 p    1 1.00
                 0.727                   1

23 0
 s    3 1.00
                 13.01   0.033498726389998
                 1.962    0.23480080117413
                0.4446     0.8136829578829
 s    1 1.00
                 0.122                   1
 p    1 1.00
                 0.727                   1

24 0
 s    3 1.00
                 13.01   0.033498726389998
                 1.962    0.23480080117413
                0.4446     0.8136829578829
 s    1 1.00
                 0.122                   1
 p    1 1.00
                 0.727                   1

25 0
 s    8 1.00
                  6665  0.00069158396281299
                  1000  0.0053257961529341
                   228   0.027060721042034
                 64.71    0.10165684614077
                 21.06     0.2745748236174
                 7.495    0.44829431892377
                 2.797    0.28490261071525
                0.5215   0.015194859206082
 s    8 1.00
                  6665  -0.00029326965268655
                  1000  -0.0023180354739745
                   228  -0.011499786038565
                 64.71  -0.046826727009787
                 21.06   -0.12846616875047
                 7.495   -0.30126627246289
                 2.797   -0.25563070233011
                0.5215      1.093793361012
 s    1 1.00
                0.1596                   1
 p    3 1.00
                 9.439   0.056979251590039
                 2.002    0.31320721150073
                0.5456    0.76037674173753
 p    1 1.00
                0.1517                   1
 d    1 1.00
                  0.55                   1

26 0
 s    3 1.00
                 13.01   0.033498726389998
                 1.962    0.23480080117413
                0.4446     0.8136829578829
 s    1 1.00
                 0.122                   1
 p    1 1.00
                 0.727                   1

27 0
 s    3 1.00
                 13.01   0.033498726389998
                 1.962    0.23480080117413
                0.4446     0.8136829578829
 s    1 1.00
                 0.122                   1
 p    1 1.00
                 0.727                   1

28 0
 s    8 1.00
                  6665  0.00069158396281299
                  1000  0.0053257961529341
                   228   0.027060721042034
                 64.71    0.10165684614077
                 21.06     0.2745748236174
                 7.495    0.44829431892377
                 2.797    0.28490261071525
                0.5215   0.015194859206082
 s    8 1.00
                  6665  -0.00029326965268655
                  1000  -0.0023180354739745
                   228  -0.011499786038565
                 64.71  -0.046826727009787
                 21.06   -0.12846616875047
                 7.495   -0.30126627246289
                 2.797   -0.25563070233011
                0.5215      1.093793361012
 s    1 1.00
                0.1596                   1
 p    3 1.00
                 9.439   0.056979251590039
                 2.002    0.31320721150073
                0.5456    0.76037674173753
 p    1 1.00
                0.1517                   1
 d    1 1.00
                  0.55                   1

29 0
 s    3 1.00
                 13.01   0.033498726389998
                 1.962    0.23480080117413
                0.4446     0.8136829578829
 s    1 1.00
                 0.122                   1
 p    1 1.00
                 0.727                   1

30 0
 s    3 1.00
                 13.01   0.033498726389998
                 1.962    0.23480080117413
                0.4446     0.8136829578829
 s    1 1.00
                 0.122                   1
 p    1 1.00
                 0.727                   1

31 0
 s    8 1.00
                  6665  0.00069158396281299
                  1000  0.0053257961529341
                   228   0.027060721042034
                 64.71    0.10165684614077
                 21.06     0.2745748236174
                 7.495    0.44829431892377
                 2.797    0.28490261071525
                0.5215   0.015194859206082
 s    8 1.00
                  6665  -0.00029326965268655
                  1000  -0.0023180354739745
                   228  -0.011499786038565
                 64.71  -0.046826727009787
                 21.06   -0.12846616875047
                 7.495   -0.30126627246289
                 2.797   -0.25563070233011
                0.5215      1.093793361012
 s    1 1.00
                0.1596                   1
 p    3 1.00
                 9.439   0.056979251590039
                 2.002    0.31320721150073
                0.5456    0.76037674173753
 p    1 1.00
                0.1517                   1
 d    1 1.00
                  0.55                   1

32 0
 s    3 1.00
                 13.01   0.033498726389998
                 1.962    0.23480080117413
                0.4446     0.8136829578829
 s    1 1.00
                 0.122                   1
 p    1 1.00
                 0.727                   1

33 0
 s    3 1.00
                 13.01   0.033498726389998
                 1.962    0.23480080117413
                0.4446     0.8136829578829
 s    1 1.00
                 0.122                   1
 p    1 1.00
                 0.727                   1

34 0
 s    3 1.00
                 13.01   0.033498726389998
                 1.962    0.23480080117413
                0.4446     0.8136829578829
 s    1 1.00
                 0.122                   1
 p    1 1.00
                 0.727                   1

35 0
 s    3 1.00
                 13.01   0.033498726389998
                 1.962    0.23480080117413
                0.4446     0.8136829578829
 s    1 1.00
                 0.122                   1
 p    1 1.00
                 0.727                   1

36 0
 s    3 1.00
                 13.01   0.033498726389998
                 1.962    0.23480080117413
                0.4446     0.8136829578829
 s    1 1.00
                 0.122                   1
 p    1 1.00
                 0.727                   1

37 0
 s    3 1.00
                 13.01   0.033498726389998
                 1.962    0.23480080117413
                0.4446     0.8136829578829
 s    1 1.00
                 0.122                   1
 p    1 1.00
                 0.727                   1

[5d]
[7f]
[9g]

[MO]
 Sym= A
 Ene=               0
 Spin= Alpha
 Occup=    1.00000
   1    1.9072405446857e-05
   2    8.1188755301902e-06
   3    -3.2772169334271e-05
   4    3.2450634052566e-08
   5    -1.2331575682094e-06
   6    3.5459157994411e-07
   7    -2.2680493823105e-07
   8    8.1668651364043e-06
   9    2.5501316187933e-05
  10    -4.8591994732373e-06
  11    -9.7011214138439e-09
  12    3.8848036553605e-07
  13    -4.2100935006404e-07
  14    -2.3421900765596e-08
  15    3.6317054038711e-06
  16    5.015454545585e-05
  17    1.8549813997755e-08
  18    -5.1090020517573e-07
  19    1.5702459469733e-05
  20    1.7080025154381e-06
  21    -2.1416787488557e-05
  22    -8.193767333208e-08
  23    2.8609846498285e-06
  24    -6.6588224777341e-07
  25      -1.0013570931156
  26    -0.0019413723922749
  27    0.0067472996399349
  28    4.4009452258443e-06
  29    -7.2231249784598e-06
  30    0.0016625282480232
  31    9.9995725615073e-07
  32    4.110923377353e-07
  33    -0.0018019248930462
  34    -0.00013192530610161
  35    3.0673710624848e-06
  36    -1.3018544346251e-06
  37    -6.7797914405552e-05
  38    0.00017664050109189
  39    -0.00027106179709916
  40    -0.00036577680930416
  41    -0.001381179244389
  42    -1.4843887331998e-05
  43    1.0057646012946e-05
  44    1.7322831723881e-05
  45    -8.8494126671121e-05
  46    6.7064417111146e-05
  47    -0.0035216233420801
  48    0.00054325622689867
  49    8.987445227444e-06
  50    -2.7668142918254e-06
  51    -2.8329616800023e-05
  52    0.00010633698896744
  53    8.4914845223105e-05
  54    0.00016592260351422
  55    -0.0013614032930068
  56    -7.7914555263152e-05
  57    7.1733102013375e-06
  58    3.637926858305e-05
  59    0.00042205755117606
  60    -0.00047428906320873
  61    0.00091871637864537
  62    0.00011818765539218
  63    -0.00015047274190557
  64    0.00014292336314486
  65    -5.5321124784845e-05
  66    0.00013090521847722
  67    4.1933307467794e-05
  68    9.8859039824259e-05
  69    -0.00052519879826131
  70    6.2474887539565e-05
  71    -4.0092265836606e-05
  72    6.0644218334144e-05
  73    -0.00099516094896311
  74    0.00076867116276399
  75    0.00062665134295552
  76    0.0001421579478929
  77    0.00012012001763894
  78    -8.9572500056479e-05
  79    -5.9315194465194e-05
  80    0.00015296657881628
  81    6.5749450588704e-05
  82    -0.00020529663814063
  83    -6.5816364600841e-05
  84    4.829417849094e-05
  85    -4.9372547513431e-05
  86    -2.5036744261412e-05
  87    -4.8636658725083e-05
  88    0.00060121239250228
  89    1.637299466236e-05
  90    1.6583917174946e-05
  91    -1.2506784272472e-05
  92    -0.00025469821625125
  93    -0.00062001576259665
  94    1.8889925624168e-05
  95    -1.7910904754452e-05
  96    -1.1028176512955e-05
  97    -6.9688476799372e-06
  98    2.0909990023465e-05
  99    4.5158502949457e-05
 100    3.6348290925469e-05
 101    0.00015719369638776
 102    -9.8282526683613e-06
 103    9.6196981031737e-06
 104    -7.3926881696778e-05
 105    1.8829044662983e-05
 106    0.00020059838775882
 107    6.4666331298586e-05
 108    -1.194928016832e-05
 109    -7.4338454744117e-05
 110    -7.578394612568e-05
 111    5.8074084882621e-05
 112    4.5991605548209e-05
 113    -1.8069081142522e-05
 114    -6.9290262276002e-05
 115    5.2927346609991e-05
 116    0.0001007302656479
 117    -0.00083294814407687
 118    2.9063068030737e-05
 119    6.2870654012587e-06
 120    -3.4879949679336e-05
 121    -0.00030063627646703
 122    -2.8660970940893e-05
 123    0.00012947457733072
 124    9.2125691188757e-06
 125    -8.8776744316287e-06
 126    -1.8886100145338e-05
 127    3.1670980265268e-05
 128    -4.9629029414665e-05
 129    1.8814595206739e-05
 130    0.00031942336605433
 131    -7.3714532554134e-06
 132    -5.8620001160272e-06
 133    -2.9076691571716e-05
 134    -2.615873504749e-05
 135    0.00011864505684497
 136    1.3389737198848e-05
 137    2.380824496531e-05
 138    2.6482727625931e-05
 139    2.0903066772301e-05
 140    3.7907482801851e-05
 141    -0.00028509851791317
 142    -7.6217419676857e-06
 143    2.0837443073029e-06
 144    5.8931918740799e-06
 145    0.00022803360867652
 146    -5.0838475205842e-05
 147    -6.3429552202622e-05
 148    2.1635230165585e-06
 149    -3.6178355207249e-06
 150    3.6969034820463e-06
 151    -1.125977898267e-05
 152    5.2386120750991e-06
 153    9.9998071960713e-05
 154    0.00012374981236436
 155    2.5725065881932e-05
 156    -3.0580848522559e-05
 157    -2.0504437104535e-05
 158    2.9915811679795e-05
 159    9.5668999312843e-05
 160    5.9964646638809e-05
 161    7.1679448105136e-06
 162    -5.7180162337961e-06
 163    8.0031860777408e-05
 164    0.00010053021853215
 165    0.00027456087483419
 166    3.5292795026538e-05
 167    -1.7203139298818e-05
 168    -0.00011894917854075
 169    -0.00023075584071066
 170    0.00021479144878309
 171    7.1559287317205e-05
 172    3.6729331700721e-06
 173    -7.9528562080564e-06
 174    1.4777154484468e-05
 175    -6.6279386930354e-06
 176    2.3849443224732e-05
 177    1.4396323037578e-05
 178    -8.5119485515052e-05
 179    6.4619067622031e-07
 180    -2.0829507087062e-06
 181    5.0438986993015e-06
 182    -1.6969894000697e-05
 183    -1.9621831385311e-05
 184    7.1256573166437e-05
 185    2.3623850786992e-05
 186    -1.3105595754098e-05
 187    -5.2508945551125e-06
 188    -0.00011636827064761
 189    9.6369317117552e-05
 190    8.3546527337314e-05
 191    -1.7019447898422e-06
 192    -3.2194869198277e-06
 193    8.669842193846e-06
 194    3.0600339680032e-06
 195    4.4528351778505e-06
 196    1.3958627261468e-05
 197    1.8712803912758e-05
 198    -5.6519281008857e-06
 199    -1.9736135716107e-06
 200    3.5909466806293e-06
 201    0.00013165803555405
 202    3.2910931133281e-05
 203    1.792461070144e-05
 204    -2.8371966053766e-06
 205    -5.427751773336e-06
 206    8.7176428423815e-05
 207    -4.0863692387124e-05
 208    1.1980736673401e-05
 209    -1.25651163328e-05
 210    -1.4011040828728e-05
 211    9.9735467436134e-06
 212    3.0253863149708e-05
 213    -0.00025194476503584
 214    -3.4493233932976e-05
 215    1.2737771549457e-05
 216    2.1947491324654e-05
 217    -0.00021039978360776
 218    5.8818457352256e-05
 219    8.5245561238422e-05
 220    4.042862669665e-06
 221    1.4226996718343e-05
 222    -4.3710020799171e-06
 223    -9.9003531445439e-06
 224    2.6050187219449e-06
 225    -2.1681525134597e-05
 226    -5.2686331016372e-05
 227    1.2495599794834e-05
 228    1.3123749698146e-06
 229    8.6766905232147e-07
 230    -2.0865639092525e-05
 231    -6.0704635304682e-05
 232    3.8576726822706e-06
 233    -6.115164992513e-06
 234    -1.2443138062881e-05
 235    -5.3866173527892e-06
 236    5.8200549884601e-06
 237    8.2312687203811e-05
 238    -1.8730760128363e-05
 239    5.0464225680194e-06
 240    1.1011017791494e-05
 241    -4.2419915792127e-05
 242    6.5284435241607e-05
 243    -1.4645205778418e-05
 244    -1.9517014410815e-06
 245    -2.8720750907684e-06
 246    2.9336854303363e-06
 247    -5.7519248591886e-08
 248    -1.5775955768365e-06
 249    2.886961696645e-05
 250    -4.4595637325097e-06
 251     3.53048521644e-06
 252    6.8134899726512e-07
 253    3.504645924045e-07
 254    2.9006757758935e-05
 255    -4.7199270979782e-05
 256    -1.016462298171e-07
 257    -3.1586538430284e-06
 258    1.162676949088e-06
 259    3.213045257933e-06
 260    1.7241314502031e-05
 261    -8.9228036564988e-05
 262    6.423083845505e-06
 263    -2.5823254624282e-06