[Molden Format]
made by pyscf v[2.0.1]
[Atoms] (AU)
O   1   8     0.00000000000000     0.00000000000000     6.78435311142442
H   2   1     0.00000000000000     0.00000000000000     4.96095128952346
H   3   1    -0.05031916615174     1.78353065140343     7.16022480789109
O   4   8     0.00000000000000     0.00000000000000     2.31533471513237
C   5   6     0.00000000000000     0.00000000000000     0.00000000000000
C   6   6     2.01118073026938    -1.40227222164369    -1.50774939176400
C   7   6    -2.01249334291722     1.41331050329955    -1.50315905028694
H   8   1     3.32037363730244    -2.26721897153159    -0.13599698591495
C   9   6     3.45899267434009     0.28739631745591    -3.37437943254505
H   10   1     1.07662969841332    -2.94725144642667    -2.56541439481080
H   11   1    -2.67503415753480     0.18421555839588    -3.06194479365997
H   12   1    -1.07974048864772     3.03851734677796    -2.43674295017013
C   13   6    -4.21607110578555     2.32938802552922     0.11994162256091
H   14   1     4.24440173074564     1.93368664142019    -2.34976285512790
H   15   1     2.15020713235517     1.04714335134846    -4.81494497423699
C   16   6     5.60746363007797    -1.12419643481196    -4.70268606082550
H   17   1    -3.46838323670267     3.50951302338067     1.66946842715333
H   18   1    -5.11873485366228     0.68575958301209     1.04047743976495
C   19   6    -6.18314754751344     3.80909592987882    -1.39656589068747
H   20   1     6.93011263717176    -1.87550812453645    -3.26656317360070
C   21   6     7.06356622236532     0.52877932406334    -6.57829775293605
H   22   1     4.82318879258361    -2.78573437948532    -5.70504560381835
H   23   1    -6.91582688743803     2.61304780074712    -2.95074552451969
H   24   1    -5.26532430573853     5.45420349051338    -2.31005832200284
C   25   6    -8.39941882261433     4.73263980500213     0.21800571437956
H   26   1     7.83338371486801     2.19084139882824    -5.57093109900697
H   27   1     5.73544244039420     1.27376866537418    -8.01071492370229
C   28   6     9.21124858443101    -0.89699110072176    -7.88926949186242
H   29   1    -7.66272760055236     5.92277078003992     1.77035591474408
H   30   1    -9.31497248082589     3.08753015622020     1.12614408368786
C   31   6   -10.35481709231879     6.21833079391143    -1.30905206253246
H   32   1    10.58815905329501    -1.61074586756696    -6.49512691622620
H   33   1    10.23506248045667     0.32468009384095    -9.23072870921204
H   34   1     8.47665842847139    -2.53598436989925    -8.94921964622535
H   35   1    -9.48948872868064     7.90013588951020    -2.18823918416067
H   36   1   -11.93332513000955     6.86460487874102    -0.11255798845995
H   37   1   -11.15126291841033     5.04495968327630    -2.83849898862534
[GTO]
1 0
 s    8 1.00
                 11720  0.00070964594651845
                  1759  0.0054672722921914
                 400.8   0.027823118610189
                 113.7    0.10474773971146
                 37.03    0.28292084635691
                 13.27    0.44849523869833
                 5.025    0.27081688521277
                 1.013    0.01545029160744
 s    8 1.00
                 11720  -0.00031444341168873
                  1759  -0.0024821376810179
                 400.8  -0.012316355381583
                 113.7  -0.050538917343672
                 37.03   -0.13938490331632
                 13.27   -0.32507749481778
                 5.025   -0.22984830758785
                 1.013     1.0953793467883
 s    1 1.00
                0.3023                   1
 p    3 1.00
                  17.7   0.062679166281506
                 3.854    0.33353656587936
                 1.046    0.74123964163973
 p    1 1.00
                0.2753                   1
 d    1 1.00
                 1.185                   1

2 0
 s    3 1.00
                 13.01   0.033498726389998
                 1.962    0.23480080117413
                0.4446     0.8136829578829
 s    1 1.00
                 0.122                   1
 p    1 1.00
                 0.727                   1

3 0
 s    3 1.00
                 13.01   0.033498726389998
                 1.962    0.23480080117413
                0.4446     0.8136829578829
 s    1 1.00
                 0.122                   1
 p    1 1.00
                 0.727                   1

4 0
 s    8 1.00
                 11720  0.00070964594651845
                  1759  0.0054672722921914
                 400.8   0.027823118610189
                 113.7    0.10474773971146
                 37.03    0.28292084635691
                 13.27    0.44849523869833
                 5.025    0.27081688521277
                 1.013    0.01545029160744
 s    8 1.00
                 11720  -0.00031444341168873
                  1759  -0.0024821376810179
                 400.8  -0.012316355381583
                 113.7  -0.050538917343672
                 37.03   -0.13938490331632
                 13.27   -0.32507749481778
                 5.025   -0.22984830758785
                 1.013     1.0953793467883
 s    1 1.00
                0.3023                   1
 p    3 1.00
                  17.7   0.062679166281506
                 3.854    0.33353656587936
                 1.046    0.74123964163973
 p    1 1.00
                0.2753                   1
 d    1 1.00
                 1.185                   1

5 0
 s    8 1.00
                  6665  0.00069158396281299
                  1000  0.0053257961529341
                   228   0.027060721042034
                 64.71    0.10165684614077
                 21.06     0.2745748236174
                 7.495    0.44829431892377
                 2.797    0.28490261071525
                0.5215   0.015194859206082
 s    8 1.00
                  6665  -0.00029326965268655
                  1000  -0.0023180354739745
                   228  -0.011499786038565
                 64.71  -0.046826727009787
                 21.06   -0.12846616875047
                 7.495   -0.30126627246289
                 2.797   -0.25563070233011
                0.5215      1.093793361012
 s    1 1.00
                0.1596                   1
 p    3 1.00
                 9.439   0.056979251590039
                 2.002    0.31320721150073
                0.5456    0.76037674173753
 p    1 1.00
                0.1517                   1
 d    1 1.00
                  0.55                   1

6 0
 s    8 1.00
                  6665  0.00069158396281299
                  1000  0.0053257961529341
                   228   0.027060721042034
                 64.71    0.10165684614077
                 21.06     0.2745748236174
                 7.495    0.44829431892377
                 2.797    0.28490261071525
                0.5215   0.015194859206082
 s    8 1.00
                  6665  -0.00029326965268655
                  1000  -0.0023180354739745
                   228  -0.011499786038565
                 64.71  -0.046826727009787
                 21.06   -0.12846616875047
                 7.495   -0.30126627246289
                 2.797   -0.25563070233011
                0.5215      1.093793361012
 s    1 1.00
                0.1596                   1
 p    3 1.00
                 9.439   0.056979251590039
                 2.002    0.31320721150073
                0.5456    0.76037674173753
 p    1 1.00
                0.1517                   1
 d    1 1.00
                  0.55                   1

7 0
 s    8 1.00
                  6665  0.00069158396281299
                  1000  0.0053257961529341
                   228   0.027060721042034
                 64.71    0.10165684614077
                 21.06     0.2745748236174
                 7.495    0.44829431892377
                 2.797    0.28490261071525
                0.5215   0.015194859206082
 s    8 1.00
                  6665  -0.00029326965268655
                  1000  -0.0023180354739745
                   228  -0.011499786038565
                 64.71  -0.046826727009787
                 21.06   -0.12846616875047
                 7.495   -0.30126627246289
                 2.797   -0.25563070233011
                0.5215      1.093793361012
 s    1 1.00
                0.1596                   1
 p    3 1.00
                 9.439   0.056979251590039
                 2.002    0.31320721150073
                0.5456    0.76037674173753
 p    1 1.00
                0.1517                   1
 d    1 1.00
                  0.55                   1

8 0
 s    3 1.00
                 13.01   0.033498726389998
                 1.962    0.23480080117413
                0.4446     0.8136829578829
 s    1 1.00
                 0.122                   1
 p    1 1.00
                 0.727                   1

9 0
 s    8 1.00
                  6665  0.00069158396281299
                  1000  0.0053257961529341
                   228   0.027060721042034
                 64.71    0.10165684614077
                 21.06     0.2745748236174
                 7.495    0.44829431892377
                 2.797    0.28490261071525
                0.5215   0.015194859206082
 s    8 1.00
                  6665  -0.00029326965268655
                  1000  -0.0023180354739745
                   228  -0.011499786038565
                 64.71  -0.046826727009787
                 21.06   -0.12846616875047
                 7.495   -0.30126627246289
                 2.797   -0.25563070233011
                0.5215      1.093793361012
 s    1 1.00
                0.1596                   1
 p    3 1.00
                 9.439   0.056979251590039
                 2.002    0.31320721150073
                0.5456    0.76037674173753
 p    1 1.00
                0.1517                   1
 d    1 1.00
                  0.55                   1

10 0
 s    3 1.00
                 13.01   0.033498726389998
                 1.962    0.23480080117413
                0.4446     0.8136829578829
 s    1 1.00
                 0.122                   1
 p    1 1.00
                 0.727                   1

11 0
 s    3 1.00
                 13.01   0.033498726389998
                 1.962    0.23480080117413
                0.4446     0.8136829578829
 s    1 1.00
                 0.122                   1
 p    1 1.00
                 0.727                   1

12 0
 s    3 1.00
                 13.01   0.033498726389998
                 1.962    0.23480080117413
                0.4446     0.8136829578829
 s    1 1.00
                 0.122                   1
 p    1 1.00
                 0.727                   1

13 0
 s    8 1.00
                  6665  0.00069158396281299
                  1000  0.0053257961529341
                   228   0.027060721042034
                 64.71    0.10165684614077
                 21.06     0.2745748236174
                 7.495    0.44829431892377
                 2.797    0.28490261071525
                0.5215   0.015194859206082
 s    8 1.00
                  6665  -0.00029326965268655
                  1000  -0.0023180354739745
                   228  -0.011499786038565
                 64.71  -0.046826727009787
                 21.06   -0.12846616875047
                 7.495   -0.30126627246289
                 2.797   -0.25563070233011
                0.5215      1.093793361012
 s    1 1.00
                0.1596                   1
 p    3 1.00
                 9.439   0.056979251590039
                 2.002    0.31320721150073
                0.5456    0.76037674173753
 p    1 1.00
                0.1517                   1
 d    1 1.00
                  0.55                   1

14 0
 s    3 1.00
                 13.01   0.033498726389998
                 1.962    0.23480080117413
                0.4446     0.8136829578829
 s    1 1.00
                 0.122                   1
 p    1 1.00
                 0.727                   1

15 0
 s    3 1.00
                 13.01   0.033498726389998
                 1.962    0.23480080117413
                0.4446     0.8136829578829
 s    1 1.00
                 0.122                   1
 p    1 1.00
                 0.727                   1

16 0
 s    8 1.00
                  6665  0.00069158396281299
                  1000  0.0053257961529341
                   228   0.027060721042034
                 64.71    0.10165684614077
                 21.06     0.2745748236174
                 7.495    0.44829431892377
                 2.797    0.28490261071525
                0.5215   0.015194859206082
 s    8 1.00
                  6665  -0.00029326965268655
                  1000  -0.0023180354739745
                   228  -0.011499786038565
                 64.71  -0.046826727009787
                 21.06   -0.12846616875047
                 7.495   -0.30126627246289
                 2.797   -0.25563070233011
                0.5215      1.093793361012
 s    1 1.00
                0.1596                   1
 p    3 1.00
                 9.439   0.056979251590039
                 2.002    0.31320721150073
                0.5456    0.76037674173753
 p    1 1.00
                0.1517                   1
 d    1 1.00
                  0.55                   1

17 0
 s    3 1.00
                 13.01   0.033498726389998
                 1.962    0.23480080117413
                0.4446     0.8136829578829
 s    1 1.00
                 0.122                   1
 p    1 1.00
                 0.727                   1

18 0
 s    3 1.00
                 13.01   0.033498726389998
                 1.962    0.23480080117413
                0.4446     0.8136829578829
 s    1 1.00
                 0.122                   1
 p    1 1.00
                 0.727                   1

19 0
 s    8 1.00
                  6665  0.00069158396281299
                  1000  0.0053257961529341
                   228   0.027060721042034
                 64.71    0.10165684614077
                 21.06     0.2745748236174
                 7.495    0.44829431892377
                 2.797    0.28490261071525
                0.5215   0.015194859206082
 s    8 1.00
                  6665  -0.00029326965268655
                  1000  -0.0023180354739745
                   228  -0.011499786038565
                 64.71  -0.046826727009787
                 21.06   -0.12846616875047
                 7.495   -0.30126627246289
                 2.797   -0.25563070233011
                0.5215      1.093793361012
 s    1 1.00
                0.1596                   1
 p    3 1.00
                 9.439   0.056979251590039
                 2.002    0.31320721150073
                0.5456    0.76037674173753
 p    1 1.00
                0.1517                   1
 d    1 1.00
                  0.55                   1

20 0
 s    3 1.00
                 13.01   0.033498726389998
                 1.962    0.23480080117413
                0.4446     0.8136829578829
 s    1 1.00
                 0.122                   1
 p    1 1.00
                 0.727                   1

21 0
 s    8 1.00
                  6665  0.00069158396281299
                  1000  0.0053257961529341
                   228   0.027060721042034
                 64.71    0.10165684614077
                 21.06     0.2745748236174
                 7.495    0.44829431892377
                 2.797    0.28490261071525
                0.5215   0.015194859206082
 s    8 1.00
                  6665  -0.00029326965268655
                  1000  -0.0023180354739745
                   228  -0.011499786038565
                 64.71  -0.046826727009787
                 21.06   -0.12846616875047
                 7.495   -0.30126627246289
                 2.797   -0.25563070233011
                0.5215      1.093793361012
 s    1 1.00
                0.1596                   1
 p    3 1.00
                 9.439   0.056979251590039
                 2.002    0.31320721150073
                0.5456    0.76037674173753
 p    1 1.00
                0.1517                   1
 d    1 1.00
                  0.55                   1

22 0
 s    3 1.00
                 13.01   0.033498726389998
                 1.962    0.23480080117413
                0.4446     0.8136829578829
 s    1 1.00
                 0.122                   1
 p    1 1.00
                 0.727                   1

23 0
 s    3 1.00
                 13.01   0.033498726389998
                 1.962    0.23480080117413
                0.4446     0.8136829578829
 s    1 1.00
                 0.122                   1
 p    1 1.00
                 0.727                   1

24 0
 s    3 1.00
                 13.01   0.033498726389998
                 1.962    0.23480080117413
                0.4446     0.8136829578829
 s    1 1.00
                 0.122                   1
 p    1 1.00
                 0.727                   1

25 0
 s    8 1.00
                  6665  0.00069158396281299
                  1000  0.0053257961529341
                   228   0.027060721042034
                 64.71    0.10165684614077
                 21.06     0.2745748236174
                 7.495    0.44829431892377
                 2.797    0.28490261071525
                0.5215   0.015194859206082
 s    8 1.00
                  6665  -0.00029326965268655
                  1000  -0.0023180354739745
                   228  -0.011499786038565
                 64.71  -0.046826727009787
                 21.06   -0.12846616875047
                 7.495   -0.30126627246289
                 2.797   -0.25563070233011
                0.5215      1.093793361012
 s    1 1.00
                0.1596                   1
 p    3 1.00
                 9.439   0.056979251590039
                 2.002    0.31320721150073
                0.5456    0.76037674173753
 p    1 1.00
                0.1517                   1
 d    1 1.00
                  0.55                   1

26 0
 s    3 1.00
                 13.01   0.033498726389998
                 1.962    0.23480080117413
                0.4446     0.8136829578829
 s    1 1.00
                 0.122                   1
 p    1 1.00
                 0.727                   1

27 0
 s    3 1.00
                 13.01   0.033498726389998
                 1.962    0.23480080117413
                0.4446     0.8136829578829
 s    1 1.00
                 0.122                   1
 p    1 1.00
                 0.727                   1

28 0
 s    8 1.00
                  6665  0.00069158396281299
                  1000  0.0053257961529341
                   228   0.027060721042034
                 64.71    0.10165684614077
                 21.06     0.2745748236174
                 7.495    0.44829431892377
                 2.797    0.28490261071525
                0.5215   0.015194859206082
 s    8 1.00
                  6665  -0.00029326965268655
                  1000  -0.0023180354739745
                   228  -0.011499786038565
                 64.71  -0.046826727009787
                 21.06   -0.12846616875047
                 7.495   -0.30126627246289
                 2.797   -0.25563070233011
                0.5215      1.093793361012
 s    1 1.00
                0.1596                   1
 p    3 1.00
                 9.439   0.056979251590039
                 2.002    0.31320721150073
                0.5456    0.76037674173753
 p    1 1.00
                0.1517                   1
 d    1 1.00
                  0.55                   1

29 0
 s    3 1.00
                 13.01   0.033498726389998
                 1.962    0.23480080117413
                0.4446     0.8136829578829
 s    1 1.00
                 0.122                   1
 p    1 1.00
                 0.727                   1

30 0
 s    3 1.00
                 13.01   0.033498726389998
                 1.962    0.23480080117413
                0.4446     0.8136829578829
 s    1 1.00
                 0.122                   1
 p    1 1.00
                 0.727                   1

31 0
 s    8 1.00
                  6665  0.00069158396281299
                  1000  0.0053257961529341
                   228   0.027060721042034
                 64.71    0.10165684614077
                 21.06     0.2745748236174
                 7.495    0.44829431892377
                 2.797    0.28490261071525
                0.5215   0.015194859206082
 s    8 1.00
                  6665  -0.00029326965268655
                  1000  -0.0023180354739745
                   228  -0.011499786038565
                 64.71  -0.046826727009787
                 21.06   -0.12846616875047
                 7.495   -0.30126627246289
                 2.797   -0.25563070233011
                0.5215      1.093793361012
 s    1 1.00
                0.1596                   1
 p    3 1.00
                 9.439   0.056979251590039
                 2.002    0.31320721150073
                0.5456    0.76037674173753
 p    1 1.00
                0.1517                   1
 d    1 1.00
                  0.55                   1

32 0
 s    3 1.00
                 13.01   0.033498726389998
                 1.962    0.23480080117413
                0.4446     0.8136829578829
 s    1 1.00
                 0.122                   1
 p    1 1.00
                 0.727                   1

33 0
 s    3 1.00
                 13.01   0.033498726389998
                 1.962    0.23480080117413
                0.4446     0.8136829578829
 s    1 1.00
                 0.122                   1
 p    1 1.00
                 0.727                   1

34 0
 s    3 1.00
                 13.01   0.033498726389998
                 1.962    0.23480080117413
                0.4446     0.8136829578829
 s    1 1.00
                 0.122                   1
 p    1 1.00
                 0.727                   1

35 0
 s    3 1.00
                 13.01   0.033498726389998
                 1.962    0.23480080117413
                0.4446     0.8136829578829
 s    1 1.00
                 0.122                   1
 p    1 1.00
                 0.727                   1

36 0
 s    3 1.00
                 13.01   0.033498726389998
                 1.962    0.23480080117413
                0.4446     0.8136829578829
 s    1 1.00
                 0.122                   1
 p    1 1.00
                 0.727                   1

37 0
 s    3 1.00
                 13.01   0.033498726389998
                 1.962    0.23480080117413
                0.4446     0.8136829578829
 s    1 1.00
                 0.122                   1
 p    1 1.00
                 0.727                   1

[5d]
[7f]
[9g]

[MO]
 Sym= A
 Ene=               0
 Spin= Alpha
 Occup=    1.00000
   1    7.7466329089042e-05
   2    2.1995222193705e-06
   3    0.00012917871899282
   4    -1.1727868526023e-06
   5    -4.6047164388416e-07
   6    -5.2716271906672e-05
   7    2.1531136946225e-06
   8    1.473467034119e-05
   9    -0.00013689186950805
  10    6.1341438137687e-05
  11    2.8140965882243e-07
  12    -2.8234082326595e-06
  13    -4.6548457752337e-06
  14    -2.0231307304522e-07
  15    -4.7120377763339e-05
  16    0.00012405967290686
  17    1.5033567507922e-06
  18    -5.1144137004038e-06
  19    -0.00016188124329865
  20    -2.839357372348e-05
  21    8.8186402096698e-06
  22    -2.3444027143842e-07
  23    -6.0378908053204e-06
  24    1.012341295852e-05
  25      -1.0014127749163
  26    -0.0021239244793107
  27    0.0070310647046034
  28    5.3793300425552e-06
  29    -1.6828150672506e-05
  30    0.0015700473175232
  31    -1.2047407330057e-06
  32    4.6951434362511e-06
  33    -0.0021226842987543
  34    -0.00013955885695231
  35    2.646897135864e-06
  36    -1.0849029648601e-06
  37    -6.2035129269253e-05
  38    0.00016258520370429
  39    -0.00030011085135006
  40    -0.00042690081362457
  41    -0.0017245769540317
  42    -1.6495048596435e-05
  43    1.048925003113e-05
  44    -5.2548534475524e-05
  45    -7.109991999013e-05
  46    5.8943119007163e-05
  47    -0.0037357208481476
  48    0.00049093739731919
  49    7.7213591130485e-06
  50    -1.7885636875665e-06
  51    -3.3210660472938e-05
  52    0.00011878834816237
  53    8.4130646629364e-05
  54    0.00016514059232078
  55    -0.0013785943020054
  56    -8.0586901883416e-05
  57    8.5716811830388e-06
  58    3.5610368428173e-05
  59    0.00040818547292306
  60    -0.00047526451606543
  61    0.00099325860146629
  62    0.00011345629939705
  63    -0.00015294536159724
  64    0.00014614046565556
  65    -5.3811486274304e-05
  66    0.00012511019981052
  67    3.584324972745e-05
  68    9.1312551143178e-05
  69    -0.00046977329745115
  70    6.460598848344e-05
  71    -4.3090123586721e-05
  72    6.3772881962339e-05
  73    -0.0010104832001241
  74    0.0007733248871234
  75    0.00069093359359168
  76    0.0001365402184015
  77    0.0001247601086992
  78    -9.1552197346529e-05
  79    -5.7562763278186e-05
  80    0.00014725003641031
  81    6.0310761468234e-05
  82    -0.00021225975596312
  83    -6.8151025438788e-05
  84    5.0206230153249e-05
  85    -4.8268012412063e-05
  86    -2.4727468662328e-05
  87    -4.85202620849e-05
  88    0.00061968949180472
  89    1.5341097849789e-05
  90    1.7221528472137e-05
  91    -1.1950482759263e-05
  92    -0.00026515523002828
  93    -0.00065142276575497
  94    2.0694169401762e-05
  95    -1.9357119876915e-05
  96    -1.130183661727e-05
  97    -8.3164992429002e-06
  98    1.8476304783879e-05
  99    5.0404579746253e-05
 100    3.9740007513856e-05
 101    0.00016737222195567
 102    -4.7279855229261e-06
 103    1.0549544234695e-05
 104    -7.8058215902188e-05
 105    1.8328785406864e-05
 106    0.00020727096267634
 107    6.2923734257194e-05
 108    -6.0752097341057e-06
 109    -7.7879151745508e-05
 110    -8.0461617303453e-05
 111    7.2045093810237e-05
 112    4.3083215954825e-05
 113    -2.079750845284e-05
 114    -7.2275055413464e-05
 115    5.1231808375726e-05
 116    0.0001034947822094
 117    -0.00090259220964569
 118    2.4091470479507e-05
 119    1.1717952075287e-05
 120    -3.2527069693041e-05
 121    -0.00027593235063495
 122    -4.5548781478879e-05
 123    0.0001712962284325
 124    5.3738181142739e-06
 125    -1.1505471261218e-05
 126    -1.4102297914895e-05
 127    3.2559740593495e-05
 128    -5.1066461854642e-05
 129    1.7633839314686e-05
 130    0.00034018903921326
 131    -8.1657793971985e-06
 132    -5.8003584791668e-06
 133    -3.0058626978209e-05
 134    -2.3607483313692e-05
 135    0.00011545056554364
 136    1.4810503536224e-05
 137    2.5351775632459e-05
 138    2.6239778529921e-05
 139    2.1086087391548e-05
 140    3.8502798395981e-05
 141    -0.00029875802127344
 142    -7.3788331441782e-06
 143    3.5169087937373e-06
 144    6.2565754585811e-06
 145    0.00021880884478364
 146    -6.3176879870276e-05
 147    -5.6121116405421e-05
 148    2.3820511895587e-06
 149    -3.8715360741992e-06
 150    5.1178024062204e-06
 151    -1.240485396102e-05
 152    4.1984449372607e-06
 153    9.8630568935522e-05
 154    9.8364086884829e-05
 155    2.6201488557915e-05
 156    -2.7796976236577e-05
 157    -2.0221270608582e-05
 158    2.6206239483809e-05
 159    9.1651540498394e-05
 160    5.9200877673934e-05
 161    8.4864398884789e-06
 162    -7.8692488820687e-06
 163    -4.3182860962136e-06
 164    -7.3323848356059e-07
 165    0.00029477430972036
 166    1.8093592201135e-05
 167    -1.4535783281266e-05
 168    -6.342232264759e-06
 169    -0.00021641462606268
 170    0.00019943525961753
 171    0.00014675536183716
 172    1.6908430107728e-06
 173    -9.2121551342371e-06
 174    1.2982823551972e-05
 175    -2.6340762571082e-06
 176    1.6698635194311e-05
 177    1.7108995040615e-05
 178    -8.6168217567236e-05
 179    1.8922946427685e-06
 180    -1.2021260123801e-06
 181    4.3265535407734e-06
 182    -1.7595516819318e-05
 183    -2.9586033957014e-05
 184    8.3086736127684e-05
 185    4.4148135066578e-06
 186    -4.037422217893e-06
 187    -5.4402212452737e-06
 188    -0.00013269264242392
 189    0.00010271052082154
 190    9.839961626558e-05
 191    -8.6201027645134e-07
 192    -2.4593093960866e-06
 193    7.332147553238e-06
 194    2.8477818444127e-06
 195    5.8684883865784e-06
 196    1.1040165201506e-05
 197    1.7835743660565e-05
 198    -5.2922401022204e-06
 199    -1.9349810810502e-06
 200    3.0027929460658e-06
 201    1.139130006185e-05
 202    -4.7825796732441e-07
 203    1.2927741338836e-05
 204    -9.3795466546241e-06
 205    -1.1657194200158e-05
 206    -1.0627438139624e-05
 207    -6.9773999191151e-05
 208    1.5362389151533e-05
 209    -3.4357215677322e-06
 210    -1.6045736217541e-05
 211    9.660834063657e-06
 212    3.4400081983544e-05
 213    -0.00026470530912471
 214    -7.160690902437e-06
 215    2.8600400242976e-06
 216    6.5550883493993e-06
 217    -0.0001959844680831
 218    5.2797831672812e-05
 219    8.0138227184069e-05
 220    1.9688372686383e-06
 221    1.6640381667811e-05
 222    -5.4966588411248e-06
 223    -9.3705966944437e-06
 224    1.7532756774319e-06
 225    -2.7540339067206e-05
 226    -5.8863185610394e-05
 227    1.2793711753714e-05
 228    2.3284778594078e-06
 229    8.2685254885688e-07
 230    -1.025311710027e-05
 231    -5.2053669331846e-05
 232    4.281752638905e-06
 233    -6.6948081927532e-06
 234    -1.2279978436703e-05
 235    6.0464740778478e-07
 236    -2.0817638368058e-06
 237    8.3113555015255e-05
 238    -2.5642990280314e-06
 239    -2.2382329807201e-06
 240    3.451825187926e-06
 241    -3.9943378747246e-05
 242    6.3617406492256e-05
 243    -1.7184652757104e-05
 244    -2.0990530690443e-06
 245    -2.0794922698714e-06
 246    1.7983932628595e-06
 247    7.3548444097043e-08
 248    -1.084237932694e-06
 249    1.8947336233141e-05
 250    -1.0930756673721e-05
 251    4.346212619527e-06
 252    8.2720120802423e-07
 253    -8.0406227893271e-08
 254    1.7858909959221e-05
 255    -5.7788800878502e-05
 256    -3.3586410617794e-07
 257    -4.2390577130339e-06
 258    8.3793817041569e-07
 259    1.9776821674502e-05
 260    2.0716020814182e-05
 261    -6.8926763166014e-05
 262    6.3173830624937e-07
 263    -2.4793411435279e-06