[Molden Format]
made by pyscf v[2.0.1]
[Atoms] (AU)
O   1   8     0.00000000000000     0.00000000000000     9.05202446090250
H   2   1     0.00000000000000     0.00000000000000     7.22862263900153
H   3   1    -0.05031916615174     1.78353065140343     9.42789615736916
O   4   8     0.00000000000000     0.00000000000000     2.31533471513237
C   5   6     0.00000000000000     0.00000000000000     0.00000000000000
C   6   6     2.01118073026938    -1.40227222164369    -1.50774939176400
C   7   6    -2.01249334291722     1.41331050329955    -1.50315905028694
H   8   1     3.32037363730244    -2.26721897153159    -0.13599698591495
C   9   6     3.45899267434009     0.28739631745591    -3.37437943254505
H   10   1     1.07662969841332    -2.94725144642667    -2.56541439481080
H   11   1    -2.67503415753480     0.18421555839588    -3.06194479365997
H   12   1    -1.07974048864772     3.03851734677796    -2.43674295017013
C   13   6    -4.21607110578555     2.32938802552922     0.11994162256091
H   14   1     4.24440173074564     1.93368664142019    -2.34976285512790
H   15   1     2.15020713235517     1.04714335134846    -4.81494497423699
C   16   6     5.60746363007797    -1.12419643481196    -4.70268606082550
H   17   1    -3.46838323670267     3.50951302338067     1.66946842715333
H   18   1    -5.11873485366228     0.68575958301209     1.04047743976495
C   19   6    -6.18314754751344     3.80909592987882    -1.39656589068747
H   20   1     6.93011263717176    -1.87550812453645    -3.26656317360070
C   21   6     7.06356622236532     0.52877932406334    -6.57829775293605
H   22   1     4.82318879258361    -2.78573437948532    -5.70504560381835
H   23   1    -6.91582688743803     2.61304780074712    -2.95074552451969
H   24   1    -5.26532430573853     5.45420349051338    -2.31005832200284
C   25   6    -8.39941882261433     4.73263980500213     0.21800571437956
H   26   1     7.83338371486801     2.19084139882824    -5.57093109900697
H   27   1     5.73544244039420     1.27376866537418    -8.01071492370229
C   28   6     9.21124858443101    -0.89699110072176    -7.88926949186242
H   29   1    -7.66272760055236     5.92277078003992     1.77035591474408
H   30   1    -9.31497248082589     3.08753015622020     1.12614408368786
C   31   6   -10.35481709231879     6.21833079391143    -1.30905206253246
H   32   1    10.58815905329501    -1.61074586756696    -6.49512691622620
H   33   1    10.23506248045667     0.32468009384095    -9.23072870921204
H   34   1     8.47665842847139    -2.53598436989925    -8.94921964622535
H   35   1    -9.48948872868064     7.90013588951020    -2.18823918416067
H   36   1   -11.93332513000955     6.86460487874102    -0.11255798845995
H   37   1   -11.15126291841033     5.04495968327630    -2.83849898862534
[GTO]
1 0
 s    8 1.00
                 11720  0.00070964594651845
                  1759  0.0054672722921914
                 400.8   0.027823118610189
                 113.7    0.10474773971146
                 37.03    0.28292084635691
                 13.27    0.44849523869833
                 5.025    0.27081688521277
                 1.013    0.01545029160744
 s    8 1.00
                 11720  -0.00031444341168873
                  1759  -0.0024821376810179
                 400.8  -0.012316355381583
                 113.7  -0.050538917343672
                 37.03   -0.13938490331632
                 13.27   -0.32507749481778
                 5.025   -0.22984830758785
                 1.013     1.0953793467883
 s    1 1.00
                0.3023                   1
 p    3 1.00
                  17.7   0.062679166281506
                 3.854    0.33353656587936
                 1.046    0.74123964163973
 p    1 1.00
                0.2753                   1
 d    1 1.00
                 1.185                   1

2 0
 s    3 1.00
                 13.01   0.033498726389998
                 1.962    0.23480080117413
                0.4446     0.8136829578829
 s    1 1.00
                 0.122                   1
 p    1 1.00
                 0.727                   1

3 0
 s    3 1.00
                 13.01   0.033498726389998
                 1.962    0.23480080117413
                0.4446     0.8136829578829
 s    1 1.00
                 0.122                   1
 p    1 1.00
                 0.727                   1

4 0
 s    8 1.00
                 11720  0.00070964594651845
                  1759  0.0054672722921914
                 400.8   0.027823118610189
                 113.7    0.10474773971146
                 37.03    0.28292084635691
                 13.27    0.44849523869833
                 5.025    0.27081688521277
                 1.013    0.01545029160744
 s    8 1.00
                 11720  -0.00031444341168873
                  1759  -0.0024821376810179
                 400.8  -0.012316355381583
                 113.7  -0.050538917343672
                 37.03   -0.13938490331632
                 13.27   -0.32507749481778
                 5.025   -0.22984830758785
                 1.013     1.0953793467883
 s    1 1.00
                0.3023                   1
 p    3 1.00
                  17.7   0.062679166281506
                 3.854    0.33353656587936
                 1.046    0.74123964163973
 p    1 1.00
                0.2753                   1
 d    1 1.00
                 1.185                   1

5 0
 s    8 1.00
                  6665  0.00069158396281299
                  1000  0.0053257961529341
                   228   0.027060721042034
                 64.71    0.10165684614077
                 21.06     0.2745748236174
                 7.495    0.44829431892377
                 2.797    0.28490261071525
                0.5215   0.015194859206082
 s    8 1.00
                  6665  -0.00029326965268655
                  1000  -0.0023180354739745
                   228  -0.011499786038565
                 64.71  -0.046826727009787
                 21.06   -0.12846616875047
                 7.495   -0.30126627246289
                 2.797   -0.25563070233011
                0.5215      1.093793361012
 s    1 1.00
                0.1596                   1
 p    3 1.00
                 9.439   0.056979251590039
                 2.002    0.31320721150073
                0.5456    0.76037674173753
 p    1 1.00
                0.1517                   1
 d    1 1.00
                  0.55                   1

6 0
 s    8 1.00
                  6665  0.00069158396281299
                  1000  0.0053257961529341
                   228   0.027060721042034
                 64.71    0.10165684614077
                 21.06     0.2745748236174
                 7.495    0.44829431892377
                 2.797    0.28490261071525
                0.5215   0.015194859206082
 s    8 1.00
                  6665  -0.00029326965268655
                  1000  -0.0023180354739745
                   228  -0.011499786038565
                 64.71  -0.046826727009787
                 21.06   -0.12846616875047
                 7.495   -0.30126627246289
                 2.797   -0.25563070233011
                0.5215      1.093793361012
 s    1 1.00
                0.1596                   1
 p    3 1.00
                 9.439   0.056979251590039
                 2.002    0.31320721150073
                0.5456    0.76037674173753
 p    1 1.00
                0.1517                   1
 d    1 1.00
                  0.55                   1

7 0
 s    8 1.00
                  6665  0.00069158396281299
                  1000  0.0053257961529341
                   228   0.027060721042034
                 64.71    0.10165684614077
                 21.06     0.2745748236174
                 7.495    0.44829431892377
                 2.797    0.28490261071525
                0.5215   0.015194859206082
 s    8 1.00
                  6665  -0.00029326965268655
                  1000  -0.0023180354739745
                   228  -0.011499786038565
                 64.71  -0.046826727009787
                 21.06   -0.12846616875047
                 7.495   -0.30126627246289
                 2.797   -0.25563070233011
                0.5215      1.093793361012
 s    1 1.00
                0.1596                   1
 p    3 1.00
                 9.439   0.056979251590039
                 2.002    0.31320721150073
                0.5456    0.76037674173753
 p    1 1.00
                0.1517                   1
 d    1 1.00
                  0.55                   1

8 0
 s    3 1.00
                 13.01   0.033498726389998
                 1.962    0.23480080117413
                0.4446     0.8136829578829
 s    1 1.00
                 0.122                   1
 p    1 1.00
                 0.727                   1

9 0
 s    8 1.00
                  6665  0.00069158396281299
                  1000  0.0053257961529341
                   228   0.027060721042034
                 64.71    0.10165684614077
                 21.06     0.2745748236174
                 7.495    0.44829431892377
                 2.797    0.28490261071525
                0.5215   0.015194859206082
 s    8 1.00
                  6665  -0.00029326965268655
                  1000  -0.0023180354739745
                   228  -0.011499786038565
                 64.71  -0.046826727009787
                 21.06   -0.12846616875047
                 7.495   -0.30126627246289
                 2.797   -0.25563070233011
                0.5215      1.093793361012
 s    1 1.00
                0.1596                   1
 p    3 1.00
                 9.439   0.056979251590039
                 2.002    0.31320721150073
                0.5456    0.76037674173753
 p    1 1.00
                0.1517                   1
 d    1 1.00
                  0.55                   1

10 0
 s    3 1.00
                 13.01   0.033498726389998
                 1.962    0.23480080117413
                0.4446     0.8136829578829
 s    1 1.00
                 0.122                   1
 p    1 1.00
                 0.727                   1

11 0
 s    3 1.00
                 13.01   0.033498726389998
                 1.962    0.23480080117413
                0.4446     0.8136829578829
 s    1 1.00
                 0.122                   1
 p    1 1.00
                 0.727                   1

12 0
 s    3 1.00
                 13.01   0.033498726389998
                 1.962    0.23480080117413
                0.4446     0.8136829578829
 s    1 1.00
                 0.122                   1
 p    1 1.00
                 0.727                   1

13 0
 s    8 1.00
                  6665  0.00069158396281299
                  1000  0.0053257961529341
                   228   0.027060721042034
                 64.71    0.10165684614077
                 21.06     0.2745748236174
                 7.495    0.44829431892377
                 2.797    0.28490261071525
                0.5215   0.015194859206082
 s    8 1.00
                  6665  -0.00029326965268655
                  1000  -0.0023180354739745
                   228  -0.011499786038565
                 64.71  -0.046826727009787
                 21.06   -0.12846616875047
                 7.495   -0.30126627246289
                 2.797   -0.25563070233011
                0.5215      1.093793361012
 s    1 1.00
                0.1596                   1
 p    3 1.00
                 9.439   0.056979251590039
                 2.002    0.31320721150073
                0.5456    0.76037674173753
 p    1 1.00
                0.1517                   1
 d    1 1.00
                  0.55                   1

14 0
 s    3 1.00
                 13.01   0.033498726389998
                 1.962    0.23480080117413
                0.4446     0.8136829578829
 s    1 1.00
                 0.122                   1
 p    1 1.00
                 0.727                   1

15 0
 s    3 1.00
                 13.01   0.033498726389998
                 1.962    0.23480080117413
                0.4446     0.8136829578829
 s    1 1.00
                 0.122                   1
 p    1 1.00
                 0.727                   1

16 0
 s    8 1.00
                  6665  0.00069158396281299
                  1000  0.0053257961529341
                   228   0.027060721042034
                 64.71    0.10165684614077
                 21.06     0.2745748236174
                 7.495    0.44829431892377
                 2.797    0.28490261071525
                0.5215   0.015194859206082
 s    8 1.00
                  6665  -0.00029326965268655
                  1000  -0.0023180354739745
                   228  -0.011499786038565
                 64.71  -0.046826727009787
                 21.06   -0.12846616875047
                 7.495   -0.30126627246289
                 2.797   -0.25563070233011
                0.5215      1.093793361012
 s    1 1.00
                0.1596                   1
 p    3 1.00
                 9.439   0.056979251590039
                 2.002    0.31320721150073
                0.5456    0.76037674173753
 p    1 1.00
                0.1517                   1
 d    1 1.00
                  0.55                   1

17 0
 s    3 1.00
                 13.01   0.033498726389998
                 1.962    0.23480080117413
                0.4446     0.8136829578829
 s    1 1.00
                 0.122                   1
 p    1 1.00
                 0.727                   1

18 0
 s    3 1.00
                 13.01   0.033498726389998
                 1.962    0.23480080117413
                0.4446     0.8136829578829
 s    1 1.00
                 0.122                   1
 p    1 1.00
                 0.727                   1

19 0
 s    8 1.00
                  6665  0.00069158396281299
                  1000  0.0053257961529341
                   228   0.027060721042034
                 64.71    0.10165684614077
                 21.06     0.2745748236174
                 7.495    0.44829431892377
                 2.797    0.28490261071525
                0.5215   0.015194859206082
 s    8 1.00
                  6665  -0.00029326965268655
                  1000  -0.0023180354739745
                   228  -0.011499786038565
                 64.71  -0.046826727009787
                 21.06   -0.12846616875047
                 7.495   -0.30126627246289
                 2.797   -0.25563070233011
                0.5215      1.093793361012
 s    1 1.00
                0.1596                   1
 p    3 1.00
                 9.439   0.056979251590039
                 2.002    0.31320721150073
                0.5456    0.76037674173753
 p    1 1.00
                0.1517                   1
 d    1 1.00
                  0.55                   1

20 0
 s    3 1.00
                 13.01   0.033498726389998
                 1.962    0.23480080117413
                0.4446     0.8136829578829
 s    1 1.00
                 0.122                   1
 p    1 1.00
                 0.727                   1

21 0
 s    8 1.00
                  6665  0.00069158396281299
                  1000  0.0053257961529341
                   228   0.027060721042034
                 64.71    0.10165684614077
                 21.06     0.2745748236174
                 7.495    0.44829431892377
                 2.797    0.28490261071525
                0.5215   0.015194859206082
 s    8 1.00
                  6665  -0.00029326965268655
                  1000  -0.0023180354739745
                   228  -0.011499786038565
                 64.71  -0.046826727009787
                 21.06   -0.12846616875047
                 7.495   -0.30126627246289
                 2.797   -0.25563070233011
                0.5215      1.093793361012
 s    1 1.00
                0.1596                   1
 p    3 1.00
                 9.439   0.056979251590039
                 2.002    0.31320721150073
                0.5456    0.76037674173753
 p    1 1.00
                0.1517                   1
 d    1 1.00
                  0.55                   1

22 0
 s    3 1.00
                 13.01   0.033498726389998
                 1.962    0.23480080117413
                0.4446     0.8136829578829
 s    1 1.00
                 0.122                   1
 p    1 1.00
                 0.727                   1

23 0
 s    3 1.00
                 13.01   0.033498726389998
                 1.962    0.23480080117413
                0.4446     0.8136829578829
 s    1 1.00
                 0.122                   1
 p    1 1.00
                 0.727                   1

24 0
 s    3 1.00
                 13.01   0.033498726389998
                 1.962    0.23480080117413
                0.4446     0.8136829578829
 s    1 1.00
                 0.122                   1
 p    1 1.00
                 0.727                   1

25 0
 s    8 1.00
                  6665  0.00069158396281299
                  1000  0.0053257961529341
                   228   0.027060721042034
                 64.71    0.10165684614077
                 21.06     0.2745748236174
                 7.495    0.44829431892377
                 2.797    0.28490261071525
                0.5215   0.015194859206082
 s    8 1.00
                  6665  -0.00029326965268655
                  1000  -0.0023180354739745
                   228  -0.011499786038565
                 64.71  -0.046826727009787
                 21.06   -0.12846616875047
                 7.495   -0.30126627246289
                 2.797   -0.25563070233011
                0.5215      1.093793361012
 s    1 1.00
                0.1596                   1
 p    3 1.00
                 9.439   0.056979251590039
                 2.002    0.31320721150073
                0.5456    0.76037674173753
 p    1 1.00
                0.1517                   1
 d    1 1.00
                  0.55                   1

26 0
 s    3 1.00
                 13.01   0.033498726389998
                 1.962    0.23480080117413
                0.4446     0.8136829578829
 s    1 1.00
                 0.122                   1
 p    1 1.00
                 0.727                   1

27 0
 s    3 1.00
                 13.01   0.033498726389998
                 1.962    0.23480080117413
                0.4446     0.8136829578829
 s    1 1.00
                 0.122                   1
 p    1 1.00
                 0.727                   1

28 0
 s    8 1.00
                  6665  0.00069158396281299
                  1000  0.0053257961529341
                   228   0.027060721042034
                 64.71    0.10165684614077
                 21.06     0.2745748236174
                 7.495    0.44829431892377
                 2.797    0.28490261071525
                0.5215   0.015194859206082
 s    8 1.00
                  6665  -0.00029326965268655
                  1000  -0.0023180354739745
                   228  -0.011499786038565
                 64.71  -0.046826727009787
                 21.06   -0.12846616875047
                 7.495   -0.30126627246289
                 2.797   -0.25563070233011
                0.5215      1.093793361012
 s    1 1.00
                0.1596                   1
 p    3 1.00
                 9.439   0.056979251590039
                 2.002    0.31320721150073
                0.5456    0.76037674173753
 p    1 1.00
                0.1517                   1
 d    1 1.00
                  0.55                   1

29 0
 s    3 1.00
                 13.01   0.033498726389998
                 1.962    0.23480080117413
                0.4446     0.8136829578829
 s    1 1.00
                 0.122                   1
 p    1 1.00
                 0.727                   1

30 0
 s    3 1.00
                 13.01   0.033498726389998
                 1.962    0.23480080117413
                0.4446     0.8136829578829
 s    1 1.00
                 0.122                   1
 p    1 1.00
                 0.727                   1

31 0
 s    8 1.00
                  6665  0.00069158396281299
                  1000  0.0053257961529341
                   228   0.027060721042034
                 64.71    0.10165684614077
                 21.06     0.2745748236174
                 7.495    0.44829431892377
                 2.797    0.28490261071525
                0.5215   0.015194859206082
 s    8 1.00
                  6665  -0.00029326965268655
                  1000  -0.0023180354739745
                   228  -0.011499786038565
                 64.71  -0.046826727009787
                 21.06   -0.12846616875047
                 7.495   -0.30126627246289
                 2.797   -0.25563070233011
                0.5215      1.093793361012
 s    1 1.00
                0.1596                   1
 p    3 1.00
                 9.439   0.056979251590039
                 2.002    0.31320721150073
                0.5456    0.76037674173753
 p    1 1.00
                0.1517                   1
 d    1 1.00
                  0.55                   1

32 0
 s    3 1.00
                 13.01   0.033498726389998
                 1.962    0.23480080117413
                0.4446     0.8136829578829
 s    1 1.00
                 0.122                   1
 p    1 1.00
                 0.727                   1

33 0
 s    3 1.00
                 13.01   0.033498726389998
                 1.962    0.23480080117413
                0.4446     0.8136829578829
 s    1 1.00
                 0.122                   1
 p    1 1.00
                 0.727                   1

34 0
 s    3 1.00
                 13.01   0.033498726389998
                 1.962    0.23480080117413
                0.4446     0.8136829578829
 s    1 1.00
                 0.122                   1
 p    1 1.00
                 0.727                   1

35 0
 s    3 1.00
                 13.01   0.033498726389998
                 1.962    0.23480080117413
                0.4446     0.8136829578829
 s    1 1.00
                 0.122                   1
 p    1 1.00
                 0.727                   1

36 0
 s    3 1.00
                 13.01   0.033498726389998
                 1.962    0.23480080117413
                0.4446     0.8136829578829
 s    1 1.00
                 0.122                   1
 p    1 1.00
                 0.727                   1

37 0
 s    3 1.00
                 13.01   0.033498726389998
                 1.962    0.23480080117413
                0.4446     0.8136829578829
 s    1 1.00
                 0.122                   1
 p    1 1.00
                 0.727                   1

[5d]
[7f]
[9g]

[MO]
 Sym= A
 Ene=               0
 Spin= Alpha
 Occup=    1.00000
   1    -6.6938880381258e-05
   2    -4.9373099790361e-05
   3    0.00013428650636641
   4    -4.6264969005727e-08
   5    5.8854691152047e-06
   6    1.2740311691597e-05
   7    5.3827397395741e-07
   8    -2.602669699343e-05
   9    -8.2505459334615e-05
  10    7.7853791112751e-06
  11    -5.2737696488007e-08
  12    -2.1921372295809e-07
  13    3.7548591834052e-07
  14    6.1476159644908e-09
  15    -1.7391906778126e-05
  16    -0.0002084486039812
  17    -2.8467080917017e-07
  18    1.9895045467987e-06
  19    -4.1781196664546e-06
  20    -7.4633416178541e-06
  21    7.0186835329556e-05
  22    1.6531097613281e-07
  23    -4.026251857016e-06
  24    1.4631625083756e-06
  25       1.0013730857502
  26    0.0019761921649715
  27    -0.0068883210988359
  28    -4.987480732149e-06
  29    9.7577556359353e-06
  30    -0.0016457625646274
  31    -3.091630185036e-07
  32    -2.2581569461067e-06
  33    0.0019044284693506
  34    0.00011611988448243
  35    -2.876205700263e-06
  36    1.4527602127741e-06
  37    6.694047872546e-05
  38    -0.00017425171301319
  39    0.00028347153212695
  40    0.00039329065921303
  41    0.0014888308414512
  42    1.5663887791104e-05
  43    -9.974476224461e-06
  44    1.141295089349e-05
  45    8.234826933514e-05
  46    -6.5118377945138e-05
  47    0.0036273803905556
  48    -0.0005165958534143
  49    -8.2955041076796e-06
  50    2.5650590949221e-06
  51    2.9566439734771e-05
  52    -0.00010945188217355
  53    -8.4656175544939e-05
  54    -0.00016563108898158
  55    0.0013812485106601
  56    7.8423473732339e-05
  57    -7.3209325348719e-06
  58    -3.4922949243669e-05
  59    -0.00042600591582037
  60    0.00048034292593855
  61    -0.00095625929302741
  62    -0.0001165956354001
  63    0.00014986087495534
  64    -0.00014313405830463
  65    5.4532015760248e-05
  66    -0.00012812133129547
  67    -3.9194533246758e-05
  68    -9.6478583636268e-05
  69    0.00051701115983246
  70    -6.1600221749615e-05
  71    4.0672764903301e-05
  72    -6.2096940796214e-05
  73    0.0010110218073465
  74    -0.00077722905534371
  75    -0.00065238871693321
  76    -0.00013997531851869
  77    -0.00012110645461857
  78    8.9755394859732e-05
  79    5.8536515088942e-05
  80    -0.00015053715925154
  81    -6.125396685015e-05
  82    0.00021294432458172
  83    6.6604966500841e-05
  84    -4.8941804614175e-05
  85    4.7905432138429e-05
  86    2.5069630337492e-05
  87    4.9057422979534e-05
  88    -0.00061660050780586
  89    -1.5711270619377e-05
  90    -1.7193821648469e-05
  91    1.153928885858e-05
  92    0.00026012561811697
  93    0.00064012898788039
  94    -1.4274374993142e-05
  95    1.8616471743156e-05
  96    1.1417355078408e-05
  97    7.7625950903706e-06
  98    -1.991877985333e-05
  99    -4.73221826637e-05
 100    -3.9555332490463e-05
 101    -0.00016244160232521
 102    7.6047514019703e-06
 103    -1.036808614333e-05
 104    7.6126922326681e-05
 105    -1.8971121658122e-05
 106    -0.00020457115932496
 107    -6.4088662754086e-05
 108    9.3394114642749e-06
 109    7.5612418098224e-05
 110    7.769317998878e-05
 111    -6.3483025390791e-05
 112    -4.4674244698951e-05
 113    1.9466813191342e-05
 114    7.0667679312589e-05
 115    -4.8634984915623e-05
 116    -9.9093101139722e-05
 117    0.00084705201426071
 118    -2.5039318446244e-05
 119    -1.078055309781e-05
 120    3.2303561731994e-05
 121    0.00028765890320483
 122    3.4305019142837e-05
 123    -0.00014931573838786
 124    -6.24401753656e-06
 125    1.1489630437322e-05
 126    1.5076578900375e-05
 127    -3.213619387282e-05
 128    5.0418775230087e-05
 129    -1.9645884674732e-05
 130    -0.00033088230088974
 131    7.8579338258451e-06
 132    5.9552734722976e-06
 133    2.9466247995528e-05
 134    2.5846781809046e-05
 135    -0.00011747366216821
 136    -1.3651116611057e-05
 137    -2.4806417056269e-05
 138    -2.7107299226546e-05
 139    -2.1657392680471e-05
 140    -3.9469381972483e-05
 141    0.0002978477005623
 142    7.813274747411e-06
 143    -2.7568321872661e-06
 144    -6.0730185290148e-06
 145    -0.00023120502631419
 146    5.6290241573116e-05
 147    6.1480645494679e-05
 148    -2.5084260690478e-06
 149    3.1726647284284e-06
 150    -4.0905124930217e-06
 151    1.2384719876722e-05
 152    -4.8710421791014e-06
 153    -9.7029028604483e-05
 154    -0.00010138725489896
 155    -2.6502753849424e-05
 156    2.8545967980192e-05
 157    1.9384315160794e-05
 158    -2.5817274826773e-05
 159    -8.7545857427316e-05
 160    -5.9140503249149e-05
 161    -7.2000586300028e-06
 162    6.5807017751004e-06
 163    5.0076705739855e-07
 164    -5.7123062565444e-06
 165    -0.00025376924675128
 166    -1.7314699883312e-05
 167    1.3428265337077e-05
 168    6.9842406613005e-06
 169    0.00023514632569776
 170    -0.0002106097803693
 171    -0.00013677367814256
 172    -2.5668371206423e-06
 173    1.0124517514818e-05
 174    -1.35891758838e-05
 175    3.1688337435984e-06
 176    -1.7891749233874e-05
 177    -1.6255027211214e-05
 178    8.5367478478211e-05
 179    -1.0174832131427e-06
 180    1.7867362570179e-06
 181    -4.816623919159e-06
 182    2.1462678441021e-05
 183    2.8342693384323e-05
 184    -7.2695187282004e-05
 185    -4.4951049972497e-06
 186    3.7707744308392e-06
 187    5.2572161607521e-06
 188    0.00012939802693083
 189    -0.00010203440983506
 190    -8.8372947803732e-05
 191    1.2558289080635e-06
 192    2.1514748529158e-06
 193    -7.6195848329751e-06
 194    -3.0258103144767e-06
 195    -5.4215403355525e-06
 196    -1.350430563216e-05
 197    -1.9114473984071e-05
 198    5.6609335804624e-06
 199    1.9354920597022e-06
 200    -3.3564191462578e-06
 201    -1.3508529852959e-05
 202    2.6977256830756e-06
 203    -1.3272791475948e-05
 204    9.8480707960791e-06
 205    1.1735603077158e-05
 206    7.7322022869542e-06
 207    6.7985604279718e-05
 208    -1.6019540479113e-05
 209    3.982341608746e-06
 210    1.5725983923837e-05
 211    4.796410458498e-06
 212    -3.5667196148262e-05
 213    0.00025876901881503
 214    6.0175407180035e-06
 215    -4.9479161885598e-06
 216    -4.9697346785532e-06
 217    0.00019513629164236
 218    -5.4148429476425e-05
 219    -7.7388764389164e-05
 220    -2.0528717495245e-06
 221    -1.6615291470372e-05
 222    5.8265335735547e-06
 223    9.435377199308e-06
 224    -1.4680360273082e-06
 225    2.6213921083014e-05
 226    5.5510719341753e-05
 227    -1.2452967276742e-05
 228    -2.0500390019594e-06
 229    -9.9081660234472e-07
 230    1.019668887738e-05
 231    5.4395916274272e-05
 232    -4.0227910893466e-06
 233    6.4006697754766e-06
 234    1.2097075611413e-05
 235    3.0970817522906e-06
 236    2.0099996746722e-06
 237    -7.8220595261408e-05
 238    2.5711447656208e-06
 239    2.5949790889268e-06
 240    -4.3431956366106e-06
 241    3.6094130471849e-05
 242    -6.3062563779558e-05
 243    1.7780446145966e-05
 244    1.9432786054935e-06
 245    1.8236475816013e-06
 246    -1.9266891460777e-06
 247    1.5670568123637e-07
 248    9.4388020556552e-07
 249    -2.0031824035572e-05
 250    1.1120145553788e-05
 251    -4.3670207639718e-06
 252    -6.7138816751776e-07
 253    2.4624631579566e-07
 254    -1.6659295263004e-05
 255    5.5570158343536e-05
 256    6.0401159920965e-08
 257    4.1826537596692e-06
 258    -8.0160403359002e-07
 259    -1.9304492998449e-05
 260    -2.7371375870418e-05
 261    7.1111584807741e-05
 262    -8.5530956242367e-06
 263    -3.7107443481217e-06