[Molden Format]
made by pyscf v[2.0.1]
[Atoms] (AU)
O   1   8     0.00000000000000     0.00000000000000     9.80791491072852
H   2   1     0.00000000000000     0.00000000000000     7.98451308882755
H   3   1    -0.05031916615174     1.78353065140343    10.18378660719519
O   4   8     0.00000000000000     0.00000000000000     2.31533471513237
C   5   6     0.00000000000000     0.00000000000000     0.00000000000000
C   6   6     2.01118073026938    -1.40227222164369    -1.50774939176400
C   7   6    -2.01249334291722     1.41331050329955    -1.50315905028694
H   8   1     3.32037363730244    -2.26721897153159    -0.13599698591495
C   9   6     3.45899267434009     0.28739631745591    -3.37437943254505
H   10   1     1.07662969841332    -2.94725144642667    -2.56541439481080
H   11   1    -2.67503415753480     0.18421555839588    -3.06194479365997
H   12   1    -1.07974048864772     3.03851734677796    -2.43674295017013
C   13   6    -4.21607110578555     2.32938802552922     0.11994162256091
H   14   1     4.24440173074564     1.93368664142019    -2.34976285512790
H   15   1     2.15020713235517     1.04714335134846    -4.81494497423699
C   16   6     5.60746363007797    -1.12419643481196    -4.70268606082550
H   17   1    -3.46838323670267     3.50951302338067     1.66946842715333
H   18   1    -5.11873485366228     0.68575958301209     1.04047743976495
C   19   6    -6.18314754751344     3.80909592987882    -1.39656589068747
H   20   1     6.93011263717176    -1.87550812453645    -3.26656317360070
C   21   6     7.06356622236532     0.52877932406334    -6.57829775293605
H   22   1     4.82318879258361    -2.78573437948532    -5.70504560381835
H   23   1    -6.91582688743803     2.61304780074712    -2.95074552451969
H   24   1    -5.26532430573853     5.45420349051338    -2.31005832200284
C   25   6    -8.39941882261433     4.73263980500213     0.21800571437956
H   26   1     7.83338371486801     2.19084139882824    -5.57093109900697
H   27   1     5.73544244039420     1.27376866537418    -8.01071492370229
C   28   6     9.21124858443101    -0.89699110072176    -7.88926949186242
H   29   1    -7.66272760055236     5.92277078003992     1.77035591474408
H   30   1    -9.31497248082589     3.08753015622020     1.12614408368786
C   31   6   -10.35481709231879     6.21833079391143    -1.30905206253246
H   32   1    10.58815905329501    -1.61074586756696    -6.49512691622620
H   33   1    10.23506248045667     0.32468009384095    -9.23072870921204
H   34   1     8.47665842847139    -2.53598436989925    -8.94921964622535
H   35   1    -9.48948872868064     7.90013588951020    -2.18823918416067
H   36   1   -11.93332513000955     6.86460487874102    -0.11255798845995
H   37   1   -11.15126291841033     5.04495968327630    -2.83849898862534
[GTO]
1 0
 s    8 1.00
                 11720  0.00070964594651845
                  1759  0.0054672722921914
                 400.8   0.027823118610189
                 113.7    0.10474773971146
                 37.03    0.28292084635691
                 13.27    0.44849523869833
                 5.025    0.27081688521277
                 1.013    0.01545029160744
 s    8 1.00
                 11720  -0.00031444341168873
                  1759  -0.0024821376810179
                 400.8  -0.012316355381583
                 113.7  -0.050538917343672
                 37.03   -0.13938490331632
                 13.27   -0.32507749481778
                 5.025   -0.22984830758785
                 1.013     1.0953793467883
 s    1 1.00
                0.3023                   1
 p    3 1.00
                  17.7   0.062679166281506
                 3.854    0.33353656587936
                 1.046    0.74123964163973
 p    1 1.00
                0.2753                   1
 d    1 1.00
                 1.185                   1

2 0
 s    3 1.00
                 13.01   0.033498726389998
                 1.962    0.23480080117413
                0.4446     0.8136829578829
 s    1 1.00
                 0.122                   1
 p    1 1.00
                 0.727                   1

3 0
 s    3 1.00
                 13.01   0.033498726389998
                 1.962    0.23480080117413
                0.4446     0.8136829578829
 s    1 1.00
                 0.122                   1
 p    1 1.00
                 0.727                   1

4 0
 s    8 1.00
                 11720  0.00070964594651845
                  1759  0.0054672722921914
                 400.8   0.027823118610189
                 113.7    0.10474773971146
                 37.03    0.28292084635691
                 13.27    0.44849523869833
                 5.025    0.27081688521277
                 1.013    0.01545029160744
 s    8 1.00
                 11720  -0.00031444341168873
                  1759  -0.0024821376810179
                 400.8  -0.012316355381583
                 113.7  -0.050538917343672
                 37.03   -0.13938490331632
                 13.27   -0.32507749481778
                 5.025   -0.22984830758785
                 1.013     1.0953793467883
 s    1 1.00
                0.3023                   1
 p    3 1.00
                  17.7   0.062679166281506
                 3.854    0.33353656587936
                 1.046    0.74123964163973
 p    1 1.00
                0.2753                   1
 d    1 1.00
                 1.185                   1

5 0
 s    8 1.00
                  6665  0.00069158396281299
                  1000  0.0053257961529341
                   228   0.027060721042034
                 64.71    0.10165684614077
                 21.06     0.2745748236174
                 7.495    0.44829431892377
                 2.797    0.28490261071525
                0.5215   0.015194859206082
 s    8 1.00
                  6665  -0.00029326965268655
                  1000  -0.0023180354739745
                   228  -0.011499786038565
                 64.71  -0.046826727009787
                 21.06   -0.12846616875047
                 7.495   -0.30126627246289
                 2.797   -0.25563070233011
                0.5215      1.093793361012
 s    1 1.00
                0.1596                   1
 p    3 1.00
                 9.439   0.056979251590039
                 2.002    0.31320721150073
                0.5456    0.76037674173753
 p    1 1.00
                0.1517                   1
 d    1 1.00
                  0.55                   1

6 0
 s    8 1.00
                  6665  0.00069158396281299
                  1000  0.0053257961529341
                   228   0.027060721042034
                 64.71    0.10165684614077
                 21.06     0.2745748236174
                 7.495    0.44829431892377
                 2.797    0.28490261071525
                0.5215   0.015194859206082
 s    8 1.00
                  6665  -0.00029326965268655
                  1000  -0.0023180354739745
                   228  -0.011499786038565
                 64.71  -0.046826727009787
                 21.06   -0.12846616875047
                 7.495   -0.30126627246289
                 2.797   -0.25563070233011
                0.5215      1.093793361012
 s    1 1.00
                0.1596                   1
 p    3 1.00
                 9.439   0.056979251590039
                 2.002    0.31320721150073
                0.5456    0.76037674173753
 p    1 1.00
                0.1517                   1
 d    1 1.00
                  0.55                   1

7 0
 s    8 1.00
                  6665  0.00069158396281299
                  1000  0.0053257961529341
                   228   0.027060721042034
                 64.71    0.10165684614077
                 21.06     0.2745748236174
                 7.495    0.44829431892377
                 2.797    0.28490261071525
                0.5215   0.015194859206082
 s    8 1.00
                  6665  -0.00029326965268655
                  1000  -0.0023180354739745
                   228  -0.011499786038565
                 64.71  -0.046826727009787
                 21.06   -0.12846616875047
                 7.495   -0.30126627246289
                 2.797   -0.25563070233011
                0.5215      1.093793361012
 s    1 1.00
                0.1596                   1
 p    3 1.00
                 9.439   0.056979251590039
                 2.002    0.31320721150073
                0.5456    0.76037674173753
 p    1 1.00
                0.1517                   1
 d    1 1.00
                  0.55                   1

8 0
 s    3 1.00
                 13.01   0.033498726389998
                 1.962    0.23480080117413
                0.4446     0.8136829578829
 s    1 1.00
                 0.122                   1
 p    1 1.00
                 0.727                   1

9 0
 s    8 1.00
                  6665  0.00069158396281299
                  1000  0.0053257961529341
                   228   0.027060721042034
                 64.71    0.10165684614077
                 21.06     0.2745748236174
                 7.495    0.44829431892377
                 2.797    0.28490261071525
                0.5215   0.015194859206082
 s    8 1.00
                  6665  -0.00029326965268655
                  1000  -0.0023180354739745
                   228  -0.011499786038565
                 64.71  -0.046826727009787
                 21.06   -0.12846616875047
                 7.495   -0.30126627246289
                 2.797   -0.25563070233011
                0.5215      1.093793361012
 s    1 1.00
                0.1596                   1
 p    3 1.00
                 9.439   0.056979251590039
                 2.002    0.31320721150073
                0.5456    0.76037674173753
 p    1 1.00
                0.1517                   1
 d    1 1.00
                  0.55                   1

10 0
 s    3 1.00
                 13.01   0.033498726389998
                 1.962    0.23480080117413
                0.4446     0.8136829578829
 s    1 1.00
                 0.122                   1
 p    1 1.00
                 0.727                   1

11 0
 s    3 1.00
                 13.01   0.033498726389998
                 1.962    0.23480080117413
                0.4446     0.8136829578829
 s    1 1.00
                 0.122                   1
 p    1 1.00
                 0.727                   1

12 0
 s    3 1.00
                 13.01   0.033498726389998
                 1.962    0.23480080117413
                0.4446     0.8136829578829
 s    1 1.00
                 0.122                   1
 p    1 1.00
                 0.727                   1

13 0
 s    8 1.00
                  6665  0.00069158396281299
                  1000  0.0053257961529341
                   228   0.027060721042034
                 64.71    0.10165684614077
                 21.06     0.2745748236174
                 7.495    0.44829431892377
                 2.797    0.28490261071525
                0.5215   0.015194859206082
 s    8 1.00
                  6665  -0.00029326965268655
                  1000  -0.0023180354739745
                   228  -0.011499786038565
                 64.71  -0.046826727009787
                 21.06   -0.12846616875047
                 7.495   -0.30126627246289
                 2.797   -0.25563070233011
                0.5215      1.093793361012
 s    1 1.00
                0.1596                   1
 p    3 1.00
                 9.439   0.056979251590039
                 2.002    0.31320721150073
                0.5456    0.76037674173753
 p    1 1.00
                0.1517                   1
 d    1 1.00
                  0.55                   1

14 0
 s    3 1.00
                 13.01   0.033498726389998
                 1.962    0.23480080117413
                0.4446     0.8136829578829
 s    1 1.00
                 0.122                   1
 p    1 1.00
                 0.727                   1

15 0
 s    3 1.00
                 13.01   0.033498726389998
                 1.962    0.23480080117413
                0.4446     0.8136829578829
 s    1 1.00
                 0.122                   1
 p    1 1.00
                 0.727                   1

16 0
 s    8 1.00
                  6665  0.00069158396281299
                  1000  0.0053257961529341
                   228   0.027060721042034
                 64.71    0.10165684614077
                 21.06     0.2745748236174
                 7.495    0.44829431892377
                 2.797    0.28490261071525
                0.5215   0.015194859206082
 s    8 1.00
                  6665  -0.00029326965268655
                  1000  -0.0023180354739745
                   228  -0.011499786038565
                 64.71  -0.046826727009787
                 21.06   -0.12846616875047
                 7.495   -0.30126627246289
                 2.797   -0.25563070233011
                0.5215      1.093793361012
 s    1 1.00
                0.1596                   1
 p    3 1.00
                 9.439   0.056979251590039
                 2.002    0.31320721150073
                0.5456    0.76037674173753
 p    1 1.00
                0.1517                   1
 d    1 1.00
                  0.55                   1

17 0
 s    3 1.00
                 13.01   0.033498726389998
                 1.962    0.23480080117413
                0.4446     0.8136829578829
 s    1 1.00
                 0.122                   1
 p    1 1.00
                 0.727                   1

18 0
 s    3 1.00
                 13.01   0.033498726389998
                 1.962    0.23480080117413
                0.4446     0.8136829578829
 s    1 1.00
                 0.122                   1
 p    1 1.00
                 0.727                   1

19 0
 s    8 1.00
                  6665  0.00069158396281299
                  1000  0.0053257961529341
                   228   0.027060721042034
                 64.71    0.10165684614077
                 21.06     0.2745748236174
                 7.495    0.44829431892377
                 2.797    0.28490261071525
                0.5215   0.015194859206082
 s    8 1.00
                  6665  -0.00029326965268655
                  1000  -0.0023180354739745
                   228  -0.011499786038565
                 64.71  -0.046826727009787
                 21.06   -0.12846616875047
                 7.495   -0.30126627246289
                 2.797   -0.25563070233011
                0.5215      1.093793361012
 s    1 1.00
                0.1596                   1
 p    3 1.00
                 9.439   0.056979251590039
                 2.002    0.31320721150073
                0.5456    0.76037674173753
 p    1 1.00
                0.1517                   1
 d    1 1.00
                  0.55                   1

20 0
 s    3 1.00
                 13.01   0.033498726389998
                 1.962    0.23480080117413
                0.4446     0.8136829578829
 s    1 1.00
                 0.122                   1
 p    1 1.00
                 0.727                   1

21 0
 s    8 1.00
                  6665  0.00069158396281299
                  1000  0.0053257961529341
                   228   0.027060721042034
                 64.71    0.10165684614077
                 21.06     0.2745748236174
                 7.495    0.44829431892377
                 2.797    0.28490261071525
                0.5215   0.015194859206082
 s    8 1.00
                  6665  -0.00029326965268655
                  1000  -0.0023180354739745
                   228  -0.011499786038565
                 64.71  -0.046826727009787
                 21.06   -0.12846616875047
                 7.495   -0.30126627246289
                 2.797   -0.25563070233011
                0.5215      1.093793361012
 s    1 1.00
                0.1596                   1
 p    3 1.00
                 9.439   0.056979251590039
                 2.002    0.31320721150073
                0.5456    0.76037674173753
 p    1 1.00
                0.1517                   1
 d    1 1.00
                  0.55                   1

22 0
 s    3 1.00
                 13.01   0.033498726389998
                 1.962    0.23480080117413
                0.4446     0.8136829578829
 s    1 1.00
                 0.122                   1
 p    1 1.00
                 0.727                   1

23 0
 s    3 1.00
                 13.01   0.033498726389998
                 1.962    0.23480080117413
                0.4446     0.8136829578829
 s    1 1.00
                 0.122                   1
 p    1 1.00
                 0.727                   1

24 0
 s    3 1.00
                 13.01   0.033498726389998
                 1.962    0.23480080117413
                0.4446     0.8136829578829
 s    1 1.00
                 0.122                   1
 p    1 1.00
                 0.727                   1

25 0
 s    8 1.00
                  6665  0.00069158396281299
                  1000  0.0053257961529341
                   228   0.027060721042034
                 64.71    0.10165684614077
                 21.06     0.2745748236174
                 7.495    0.44829431892377
                 2.797    0.28490261071525
                0.5215   0.015194859206082
 s    8 1.00
                  6665  -0.00029326965268655
                  1000  -0.0023180354739745
                   228  -0.011499786038565
                 64.71  -0.046826727009787
                 21.06   -0.12846616875047
                 7.495   -0.30126627246289
                 2.797   -0.25563070233011
                0.5215      1.093793361012
 s    1 1.00
                0.1596                   1
 p    3 1.00
                 9.439   0.056979251590039
                 2.002    0.31320721150073
                0.5456    0.76037674173753
 p    1 1.00
                0.1517                   1
 d    1 1.00
                  0.55                   1

26 0
 s    3 1.00
                 13.01   0.033498726389998
                 1.962    0.23480080117413
                0.4446     0.8136829578829
 s    1 1.00
                 0.122                   1
 p    1 1.00
                 0.727                   1

27 0
 s    3 1.00
                 13.01   0.033498726389998
                 1.962    0.23480080117413
                0.4446     0.8136829578829
 s    1 1.00
                 0.122                   1
 p    1 1.00
                 0.727                   1

28 0
 s    8 1.00
                  6665  0.00069158396281299
                  1000  0.0053257961529341
                   228   0.027060721042034
                 64.71    0.10165684614077
                 21.06     0.2745748236174
                 7.495    0.44829431892377
                 2.797    0.28490261071525
                0.5215   0.015194859206082
 s    8 1.00
                  6665  -0.00029326965268655
                  1000  -0.0023180354739745
                   228  -0.011499786038565
                 64.71  -0.046826727009787
                 21.06   -0.12846616875047
                 7.495   -0.30126627246289
                 2.797   -0.25563070233011
                0.5215      1.093793361012
 s    1 1.00
                0.1596                   1
 p    3 1.00
                 9.439   0.056979251590039
                 2.002    0.31320721150073
                0.5456    0.76037674173753
 p    1 1.00
                0.1517                   1
 d    1 1.00
                  0.55                   1

29 0
 s    3 1.00
                 13.01   0.033498726389998
                 1.962    0.23480080117413
                0.4446     0.8136829578829
 s    1 1.00
                 0.122                   1
 p    1 1.00
                 0.727                   1

30 0
 s    3 1.00
                 13.01   0.033498726389998
                 1.962    0.23480080117413
                0.4446     0.8136829578829
 s    1 1.00
                 0.122                   1
 p    1 1.00
                 0.727                   1

31 0
 s    8 1.00
                  6665  0.00069158396281299
                  1000  0.0053257961529341
                   228   0.027060721042034
                 64.71    0.10165684614077
                 21.06     0.2745748236174
                 7.495    0.44829431892377
                 2.797    0.28490261071525
                0.5215   0.015194859206082
 s    8 1.00
                  6665  -0.00029326965268655
                  1000  -0.0023180354739745
                   228  -0.011499786038565
                 64.71  -0.046826727009787
                 21.06   -0.12846616875047
                 7.495   -0.30126627246289
                 2.797   -0.25563070233011
                0.5215      1.093793361012
 s    1 1.00
                0.1596                   1
 p    3 1.00
                 9.439   0.056979251590039
                 2.002    0.31320721150073
                0.5456    0.76037674173753
 p    1 1.00
                0.1517                   1
 d    1 1.00
                  0.55                   1

32 0
 s    3 1.00
                 13.01   0.033498726389998
                 1.962    0.23480080117413
                0.4446     0.8136829578829
 s    1 1.00
                 0.122                   1
 p    1 1.00
                 0.727                   1

33 0
 s    3 1.00
                 13.01   0.033498726389998
                 1.962    0.23480080117413
                0.4446     0.8136829578829
 s    1 1.00
                 0.122                   1
 p    1 1.00
                 0.727                   1

34 0
 s    3 1.00
                 13.01   0.033498726389998
                 1.962    0.23480080117413
                0.4446     0.8136829578829
 s    1 1.00
                 0.122                   1
 p    1 1.00
                 0.727                   1

35 0
 s    3 1.00
                 13.01   0.033498726389998
                 1.962    0.23480080117413
                0.4446     0.8136829578829
 s    1 1.00
                 0.122                   1
 p    1 1.00
                 0.727                   1

36 0
 s    3 1.00
                 13.01   0.033498726389998
                 1.962    0.23480080117413
                0.4446     0.8136829578829
 s    1 1.00
                 0.122                   1
 p    1 1.00
                 0.727                   1

37 0
 s    3 1.00
                 13.01   0.033498726389998
                 1.962    0.23480080117413
                0.4446     0.8136829578829
 s    1 1.00
                 0.122                   1
 p    1 1.00
                 0.727                   1

[5d]
[7f]
[9g]

[MO]
 Sym= A
 Ene=               0
 Spin= Alpha
 Occup=    1.00000
   1    5.3104477479186e-05
   2    3.5713167969727e-05
   3    -0.00011899680762451
   4    9.0347259733328e-08
   5    -4.7740209359505e-06
   6    -3.9857693940606e-06
   7    -5.8899691314634e-07
   8    2.3306332875258e-05
   9    8.1596948183477e-05
  10    -1.27648902659e-05
  11    1.2862824620819e-09
  12    7.8519516913537e-07
  13    -4.1322698721533e-07
  14    -1.7392632589807e-08
  15    1.5483116734184e-05
  16    0.00017310298370192
  17    1.2811184114347e-07
  18    -1.5307684285233e-06
  19    3.2984846586822e-05
  20    7.5223000675182e-06
  21    -6.460322045632e-05
  22    -1.8149648995629e-07
  23    5.7137317254925e-06
  24    -2.5440161558476e-06
  25      -1.0013659581886
  26    -0.0019602903290437
  27    0.0068247430131905
  28    4.722280161935e-06
  29    -8.7408224034072e-06
  30    0.0016524866844681
  31    8.815594175727e-07
  32    1.0727116367101e-06
  33    -0.0018538717153038
  34    -0.00012289612293314
  35    2.958245767812e-06
  36    -1.3873836231426e-06
  37    -6.7315349700909e-05
  38    0.0001752995135554
  39    -0.00027767289576456
  40    -0.00038040207803562
  41    -0.0014371565964465
  42    -1.5378824076876e-05
  43    1.008659824113e-05
  44    1.6134070565486e-06
  45    -8.7429651934109e-05
  46    6.7768798242861e-05
  47    -0.0035769632735551
  48    0.00052854720398767
  49    8.7435024345375e-06
  50    -2.7560925830927e-06
  51    -2.9006950110654e-05
  52    0.00010794623519132
  53    8.4700869581188e-05
  54    0.00016550575145037
  55    -0.0013709586890675
  56    -7.8040795343641e-05
  57    7.0583771603565e-06
  58    3.5517945373397e-05
  59    0.00042309170094454
  60    -0.00047687299098803
  61    0.00093944600801802
  62    0.00011727786923839
  63    -0.00015016271088718
  64    0.00014303706067816
  65    -5.484749876279e-05
  66    0.00012931294459787
  67    4.1046033200268e-05
  68    9.7262335357427e-05
  69    -0.00052786465078918
  70    6.3029834903545e-05
  71    -4.0656161366061e-05
  72    6.0220345067958e-05
  73    -0.0010024404546545
  74    0.00077265294270303
  75    0.00063781235576758
  76      0.00014109634741
  77    0.0001203941749332
  78    -8.9621373296586e-05
  79    -5.8814266987367e-05
  80    0.00015167468024469
  81    6.3302259090969e-05
  82    -0.00020852522170406
  83    -6.6275143230117e-05
  84    4.866804046361e-05
  85    -4.8635738659911e-05
  86    -2.5105342678648e-05
  87    -4.8715893902342e-05
  88    0.00061009815273566
  89    1.6224604607659e-05
  90    1.6629948397748e-05
  91    -1.20754499114e-05
  92     -0.00025710236736
  93    -0.00063101052052595
  94    1.5753464892876e-05
  95    -1.8285029872552e-05
  96    -1.1207934534484e-05
  97    -7.3922690353022e-06
  98    2.0352938935283e-05
  99    4.6338635026658e-05
 100    3.8077676056015e-05
 101    0.00016009165803819
 102    -8.5671014094825e-06
 103    1.0001702425879e-05
 104    -7.5104781806753e-05
 105    1.9546806303258e-05
 106    0.00020320861190365
 107    6.4342604055068e-05
 108    -1.054523588994e-05
 109    -7.5007532032939e-05
 110    -7.5999328155602e-05
 111    6.1679942024855e-05
 112    4.5339863743093e-05
 113    -1.8819349226022e-05
 114    -7.0005966337997e-05
 115    5.2157075153656e-05
 116    9.9219517363654e-05
 117    -0.00083872201210776
 118    2.8219415313788e-05
 119    6.8688427772392e-06
 120    -3.4733212808447e-05
 121    -0.00029247071229335
 122    -3.1977267803836e-05
 123    0.00014122909084458
 124    9.1465031505839e-06
 125    -8.1843610351288e-06
 126    -1.817028245369e-05
 127    3.1557084468782e-05
 128    -4.9797034091605e-05
 129     1.92551946978e-05
 130    0.00032578771631563
 131    -7.6335439453254e-06
 132    -5.9282519671194e-06
 133    -2.9283859836537e-05
 134    -2.6099307756721e-05
 135    0.00011782496185231
 136    1.3516088799496e-05
 137    2.4343638511718e-05
 138    2.6817366414939e-05
 139    2.1267602618062e-05
 140    3.8553012540754e-05
 141    -0.00029300994735937
 142    -7.5231215335037e-06
 143    2.2720514198296e-06
 144    5.8254736347445e-06
 145    0.00022908149218886
 146    -5.4202799658334e-05
 147    -6.1519915716532e-05
 148    2.2566127200532e-06
 149    -3.6925414962814e-06
 150    4.1151445619054e-06
 151    -1.1582001104181e-05
 152    5.1757118122757e-06
 153    9.9704054033667e-05
 154    0.00011447903684657
 155    2.6241560325765e-05
 156    -2.9448536705748e-05
 157    -1.9591778188668e-05
 158    2.9841768065559e-05
 159    9.4534736006207e-05
 160    5.9629372483729e-05
 161    7.2181937231102e-06
 162    -6.1543150967334e-06
 163    7.8925285898956e-05
 164    9.9255441361773e-05
 165    0.00028795112806421
 166    3.5693657414114e-05
 167    -1.7351469658908e-05
 168    -0.00011951430455663
 169    -0.00022736520287478
 170    0.00021110060242067
 171    7.5634248906961e-05
 172    3.3938048885114e-06
 173    -7.8626813252377e-06
 174    1.4653159182701e-05
 175    -6.5650379309189e-06
 176    2.3506507454857e-05
 177    1.4608691570581e-05
 178    -8.6609922488866e-05
 179    8.5261576950834e-07
 180    -1.9438191213247e-06
 181    4.9442721515178e-06
 182    -1.7411715693761e-05
 183    -2.0307949439886e-05
 184    7.6543667885753e-05
 185    2.3598035211676e-05
 186    -1.3218971763248e-05
 187    -5.1406840442634e-06
 188    -0.00011830951894085
 189    9.6210138941747e-05
 190    8.631860140534e-05
 191    -1.6732283418632e-06
 192    -3.3633313356752e-06
 193    8.6325269970489e-06
 194    3.0350279540226e-06
 195    4.6855510743986e-06
 196    1.3725494735807e-05
 197    1.9088836234424e-05
 198    -5.6645954418057e-06
 199    -1.9507225479911e-06
 200    3.4315998621246e-06
 201    0.00013175574515641
 202    3.3880255485868e-05
 203    1.812187872148e-05
 204    -2.653652246756e-06
 205    -5.3677254599392e-06
 206    8.7281510959175e-05
 207    -4.0486223649172e-05
 208    1.1820007306435e-05
 209    -1.2545521648462e-05
 210    -1.4126944201938e-05
 211    1.0131238149138e-05
 212    3.0684756388996e-05
 213    -0.00025786416343865
 214    -3.4943073728145e-05
 215    1.280911675717e-05
 216    2.2176004734805e-05
 217    -0.00020961607707624
 218    5.8360908726873e-05
 219    8.6378324185924e-05
 220    4.0736427886977e-06
 221    1.4133124112204e-05
 222    -4.3819158924911e-06
 223    -9.9595925530531e-06
 224    2.6820898864241e-06
 225    -2.2114477172321e-05
 226    -5.3643787645942e-05
 227    1.2636722152018e-05
 228    1.4084671240867e-06
 229    8.5088069195087e-07
 230    -2.1116233210018e-05
 231    -6.0641956462738e-05
 232    3.9229905721763e-06
 233    -6.2000820437522e-06
 234    -1.2518039697398e-05
 235    -5.4200201533152e-06
 236    5.7299208287753e-06
 237    8.2721675184323e-05
 238    -1.8750747218313e-05
 239    5.0254038135452e-06
 240    1.1013456880779e-05
 241    -4.2946876252002e-05
 242    6.5842750992934e-05
 243    -1.4879998895706e-05
 244    -1.9938267188597e-06
 245    -2.9145730567278e-06
 246    2.9277730876935e-06
 247    -5.1586409336063e-08
 248    -1.587066628384e-06
 249    2.8835946053556e-05
 250    -2.7278538778102e-06
 251    3.4509127476886e-06
 252    5.5643486993115e-07
 253    1.8813382912346e-07
 254    2.9399900042991e-05
 255    -4.6982296970203e-05
 256    -2.4369760418861e-07
 257    -3.0812819105965e-06
 258    1.1250065921803e-06
 259    2.9920840581541e-06
 260    1.6730415900514e-05
 261    -8.5633690741781e-05
 262    6.409467517114e-06
 263    -2.5597164300689e-06