[Molden Format]
made by pyscf v[2.0.1]
[Atoms] (AU)
O   1   8     0.00000000000000     0.00000000000000    11.31969581038057
H   2   1     0.00000000000000     0.00000000000000     9.49629398847960
H   3   1    -0.05031916615174     1.78353065140343    11.69556750684724
O   4   8     0.00000000000000     0.00000000000000     2.31533471513237
C   5   6     0.00000000000000     0.00000000000000     0.00000000000000
C   6   6     2.01118073026938    -1.40227222164369    -1.50774939176400
C   7   6    -2.01249334291722     1.41331050329955    -1.50315905028694
H   8   1     3.32037363730244    -2.26721897153159    -0.13599698591495
C   9   6     3.45899267434009     0.28739631745591    -3.37437943254505
H   10   1     1.07662969841332    -2.94725144642667    -2.56541439481080
H   11   1    -2.67503415753480     0.18421555839588    -3.06194479365997
H   12   1    -1.07974048864772     3.03851734677796    -2.43674295017013
C   13   6    -4.21607110578555     2.32938802552922     0.11994162256091
H   14   1     4.24440173074564     1.93368664142019    -2.34976285512790
H   15   1     2.15020713235517     1.04714335134846    -4.81494497423699
C   16   6     5.60746363007797    -1.12419643481196    -4.70268606082550
H   17   1    -3.46838323670267     3.50951302338067     1.66946842715333
H   18   1    -5.11873485366228     0.68575958301209     1.04047743976495
C   19   6    -6.18314754751344     3.80909592987882    -1.39656589068747
H   20   1     6.93011263717176    -1.87550812453645    -3.26656317360070
C   21   6     7.06356622236532     0.52877932406334    -6.57829775293605
H   22   1     4.82318879258361    -2.78573437948532    -5.70504560381835
H   23   1    -6.91582688743803     2.61304780074712    -2.95074552451969
H   24   1    -5.26532430573853     5.45420349051338    -2.31005832200284
C   25   6    -8.39941882261433     4.73263980500213     0.21800571437956
H   26   1     7.83338371486801     2.19084139882824    -5.57093109900697
H   27   1     5.73544244039420     1.27376866537418    -8.01071492370229
C   28   6     9.21124858443101    -0.89699110072176    -7.88926949186242
H   29   1    -7.66272760055236     5.92277078003992     1.77035591474408
H   30   1    -9.31497248082589     3.08753015622020     1.12614408368786
C   31   6   -10.35481709231879     6.21833079391143    -1.30905206253246
H   32   1    10.58815905329501    -1.61074586756696    -6.49512691622620
H   33   1    10.23506248045667     0.32468009384095    -9.23072870921204
H   34   1     8.47665842847139    -2.53598436989925    -8.94921964622535
H   35   1    -9.48948872868064     7.90013588951020    -2.18823918416067
H   36   1   -11.93332513000955     6.86460487874102    -0.11255798845995
H   37   1   -11.15126291841033     5.04495968327630    -2.83849898862534
[GTO]
1 0
 s    8 1.00
                 11720  0.00070964594651845
                  1759  0.0054672722921914
                 400.8   0.027823118610189
                 113.7    0.10474773971146
                 37.03    0.28292084635691
                 13.27    0.44849523869833
                 5.025    0.27081688521277
                 1.013    0.01545029160744
 s    8 1.00
                 11720  -0.00031444341168873
                  1759  -0.0024821376810179
                 400.8  -0.012316355381583
                 113.7  -0.050538917343672
                 37.03   -0.13938490331632
                 13.27   -0.32507749481778
                 5.025   -0.22984830758785
                 1.013     1.0953793467883
 s    1 1.00
                0.3023                   1
 p    3 1.00
                  17.7   0.062679166281506
                 3.854    0.33353656587936
                 1.046    0.74123964163973
 p    1 1.00
                0.2753                   1
 d    1 1.00
                 1.185                   1

2 0
 s    3 1.00
                 13.01   0.033498726389998
                 1.962    0.23480080117413
                0.4446     0.8136829578829
 s    1 1.00
                 0.122                   1
 p    1 1.00
                 0.727                   1

3 0
 s    3 1.00
                 13.01   0.033498726389998
                 1.962    0.23480080117413
                0.4446     0.8136829578829
 s    1 1.00
                 0.122                   1
 p    1 1.00
                 0.727                   1

4 0
 s    8 1.00
                 11720  0.00070964594651845
                  1759  0.0054672722921914
                 400.8   0.027823118610189
                 113.7    0.10474773971146
                 37.03    0.28292084635691
                 13.27    0.44849523869833
                 5.025    0.27081688521277
                 1.013    0.01545029160744
 s    8 1.00
                 11720  -0.00031444341168873
                  1759  -0.0024821376810179
                 400.8  -0.012316355381583
                 113.7  -0.050538917343672
                 37.03   -0.13938490331632
                 13.27   -0.32507749481778
                 5.025   -0.22984830758785
                 1.013     1.0953793467883
 s    1 1.00
                0.3023                   1
 p    3 1.00
                  17.7   0.062679166281506
                 3.854    0.33353656587936
                 1.046    0.74123964163973
 p    1 1.00
                0.2753                   1
 d    1 1.00
                 1.185                   1

5 0
 s    8 1.00
                  6665  0.00069158396281299
                  1000  0.0053257961529341
                   228   0.027060721042034
                 64.71    0.10165684614077
                 21.06     0.2745748236174
                 7.495    0.44829431892377
                 2.797    0.28490261071525
                0.5215   0.015194859206082
 s    8 1.00
                  6665  -0.00029326965268655
                  1000  -0.0023180354739745
                   228  -0.011499786038565
                 64.71  -0.046826727009787
                 21.06   -0.12846616875047
                 7.495   -0.30126627246289
                 2.797   -0.25563070233011
                0.5215      1.093793361012
 s    1 1.00
                0.1596                   1
 p    3 1.00
                 9.439   0.056979251590039
                 2.002    0.31320721150073
                0.5456    0.76037674173753
 p    1 1.00
                0.1517                   1
 d    1 1.00
                  0.55                   1

6 0
 s    8 1.00
                  6665  0.00069158396281299
                  1000  0.0053257961529341
                   228   0.027060721042034
                 64.71    0.10165684614077
                 21.06     0.2745748236174
                 7.495    0.44829431892377
                 2.797    0.28490261071525
                0.5215   0.015194859206082
 s    8 1.00
                  6665  -0.00029326965268655
                  1000  -0.0023180354739745
                   228  -0.011499786038565
                 64.71  -0.046826727009787
                 21.06   -0.12846616875047
                 7.495   -0.30126627246289
                 2.797   -0.25563070233011
                0.5215      1.093793361012
 s    1 1.00
                0.1596                   1
 p    3 1.00
                 9.439   0.056979251590039
                 2.002    0.31320721150073
                0.5456    0.76037674173753
 p    1 1.00
                0.1517                   1
 d    1 1.00
                  0.55                   1

7 0
 s    8 1.00
                  6665  0.00069158396281299
                  1000  0.0053257961529341
                   228   0.027060721042034
                 64.71    0.10165684614077
                 21.06     0.2745748236174
                 7.495    0.44829431892377
                 2.797    0.28490261071525
                0.5215   0.015194859206082
 s    8 1.00
                  6665  -0.00029326965268655
                  1000  -0.0023180354739745
                   228  -0.011499786038565
                 64.71  -0.046826727009787
                 21.06   -0.12846616875047
                 7.495   -0.30126627246289
                 2.797   -0.25563070233011
                0.5215      1.093793361012
 s    1 1.00
                0.1596                   1
 p    3 1.00
                 9.439   0.056979251590039
                 2.002    0.31320721150073
                0.5456    0.76037674173753
 p    1 1.00
                0.1517                   1
 d    1 1.00
                  0.55                   1

8 0
 s    3 1.00
                 13.01   0.033498726389998
                 1.962    0.23480080117413
                0.4446     0.8136829578829
 s    1 1.00
                 0.122                   1
 p    1 1.00
                 0.727                   1

9 0
 s    8 1.00
                  6665  0.00069158396281299
                  1000  0.0053257961529341
                   228   0.027060721042034
                 64.71    0.10165684614077
                 21.06     0.2745748236174
                 7.495    0.44829431892377
                 2.797    0.28490261071525
                0.5215   0.015194859206082
 s    8 1.00
                  6665  -0.00029326965268655
                  1000  -0.0023180354739745
                   228  -0.011499786038565
                 64.71  -0.046826727009787
                 21.06   -0.12846616875047
                 7.495   -0.30126627246289
                 2.797   -0.25563070233011
                0.5215      1.093793361012
 s    1 1.00
                0.1596                   1
 p    3 1.00
                 9.439   0.056979251590039
                 2.002    0.31320721150073
                0.5456    0.76037674173753
 p    1 1.00
                0.1517                   1
 d    1 1.00
                  0.55                   1

10 0
 s    3 1.00
                 13.01   0.033498726389998
                 1.962    0.23480080117413
                0.4446     0.8136829578829
 s    1 1.00
                 0.122                   1
 p    1 1.00
                 0.727                   1

11 0
 s    3 1.00
                 13.01   0.033498726389998
                 1.962    0.23480080117413
                0.4446     0.8136829578829
 s    1 1.00
                 0.122                   1
 p    1 1.00
                 0.727                   1

12 0
 s    3 1.00
                 13.01   0.033498726389998
                 1.962    0.23480080117413
                0.4446     0.8136829578829
 s    1 1.00
                 0.122                   1
 p    1 1.00
                 0.727                   1

13 0
 s    8 1.00
                  6665  0.00069158396281299
                  1000  0.0053257961529341
                   228   0.027060721042034
                 64.71    0.10165684614077
                 21.06     0.2745748236174
                 7.495    0.44829431892377
                 2.797    0.28490261071525
                0.5215   0.015194859206082
 s    8 1.00
                  6665  -0.00029326965268655
                  1000  -0.0023180354739745
                   228  -0.011499786038565
                 64.71  -0.046826727009787
                 21.06   -0.12846616875047
                 7.495   -0.30126627246289
                 2.797   -0.25563070233011
                0.5215      1.093793361012
 s    1 1.00
                0.1596                   1
 p    3 1.00
                 9.439   0.056979251590039
                 2.002    0.31320721150073
                0.5456    0.76037674173753
 p    1 1.00
                0.1517                   1
 d    1 1.00
                  0.55                   1

14 0
 s    3 1.00
                 13.01   0.033498726389998
                 1.962    0.23480080117413
                0.4446     0.8136829578829
 s    1 1.00
                 0.122                   1
 p    1 1.00
                 0.727                   1

15 0
 s    3 1.00
                 13.01   0.033498726389998
                 1.962    0.23480080117413
                0.4446     0.8136829578829
 s    1 1.00
                 0.122                   1
 p    1 1.00
                 0.727                   1

16 0
 s    8 1.00
                  6665  0.00069158396281299
                  1000  0.0053257961529341
                   228   0.027060721042034
                 64.71    0.10165684614077
                 21.06     0.2745748236174
                 7.495    0.44829431892377
                 2.797    0.28490261071525
                0.5215   0.015194859206082
 s    8 1.00
                  6665  -0.00029326965268655
                  1000  -0.0023180354739745
                   228  -0.011499786038565
                 64.71  -0.046826727009787
                 21.06   -0.12846616875047
                 7.495   -0.30126627246289
                 2.797   -0.25563070233011
                0.5215      1.093793361012
 s    1 1.00
                0.1596                   1
 p    3 1.00
                 9.439   0.056979251590039
                 2.002    0.31320721150073
                0.5456    0.76037674173753
 p    1 1.00
                0.1517                   1
 d    1 1.00
                  0.55                   1

17 0
 s    3 1.00
                 13.01   0.033498726389998
                 1.962    0.23480080117413
                0.4446     0.8136829578829
 s    1 1.00
                 0.122                   1
 p    1 1.00
                 0.727                   1

18 0
 s    3 1.00
                 13.01   0.033498726389998
                 1.962    0.23480080117413
                0.4446     0.8136829578829
 s    1 1.00
                 0.122                   1
 p    1 1.00
                 0.727                   1

19 0
 s    8 1.00
                  6665  0.00069158396281299
                  1000  0.0053257961529341
                   228   0.027060721042034
                 64.71    0.10165684614077
                 21.06     0.2745748236174
                 7.495    0.44829431892377
                 2.797    0.28490261071525
                0.5215   0.015194859206082
 s    8 1.00
                  6665  -0.00029326965268655
                  1000  -0.0023180354739745
                   228  -0.011499786038565
                 64.71  -0.046826727009787
                 21.06   -0.12846616875047
                 7.495   -0.30126627246289
                 2.797   -0.25563070233011
                0.5215      1.093793361012
 s    1 1.00
                0.1596                   1
 p    3 1.00
                 9.439   0.056979251590039
                 2.002    0.31320721150073
                0.5456    0.76037674173753
 p    1 1.00
                0.1517                   1
 d    1 1.00
                  0.55                   1

20 0
 s    3 1.00
                 13.01   0.033498726389998
                 1.962    0.23480080117413
                0.4446     0.8136829578829
 s    1 1.00
                 0.122                   1
 p    1 1.00
                 0.727                   1

21 0
 s    8 1.00
                  6665  0.00069158396281299
                  1000  0.0053257961529341
                   228   0.027060721042034
                 64.71    0.10165684614077
                 21.06     0.2745748236174
                 7.495    0.44829431892377
                 2.797    0.28490261071525
                0.5215   0.015194859206082
 s    8 1.00
                  6665  -0.00029326965268655
                  1000  -0.0023180354739745
                   228  -0.011499786038565
                 64.71  -0.046826727009787
                 21.06   -0.12846616875047
                 7.495   -0.30126627246289
                 2.797   -0.25563070233011
                0.5215      1.093793361012
 s    1 1.00
                0.1596                   1
 p    3 1.00
                 9.439   0.056979251590039
                 2.002    0.31320721150073
                0.5456    0.76037674173753
 p    1 1.00
                0.1517                   1
 d    1 1.00
                  0.55                   1

22 0
 s    3 1.00
                 13.01   0.033498726389998
                 1.962    0.23480080117413
                0.4446     0.8136829578829
 s    1 1.00
                 0.122                   1
 p    1 1.00
                 0.727                   1

23 0
 s    3 1.00
                 13.01   0.033498726389998
                 1.962    0.23480080117413
                0.4446     0.8136829578829
 s    1 1.00
                 0.122                   1
 p    1 1.00
                 0.727                   1

24 0
 s    3 1.00
                 13.01   0.033498726389998
                 1.962    0.23480080117413
                0.4446     0.8136829578829
 s    1 1.00
                 0.122                   1
 p    1 1.00
                 0.727                   1

25 0
 s    8 1.00
                  6665  0.00069158396281299
                  1000  0.0053257961529341
                   228   0.027060721042034
                 64.71    0.10165684614077
                 21.06     0.2745748236174
                 7.495    0.44829431892377
                 2.797    0.28490261071525
                0.5215   0.015194859206082
 s    8 1.00
                  6665  -0.00029326965268655
                  1000  -0.0023180354739745
                   228  -0.011499786038565
                 64.71  -0.046826727009787
                 21.06   -0.12846616875047
                 7.495   -0.30126627246289
                 2.797   -0.25563070233011
                0.5215      1.093793361012
 s    1 1.00
                0.1596                   1
 p    3 1.00
                 9.439   0.056979251590039
                 2.002    0.31320721150073
                0.5456    0.76037674173753
 p    1 1.00
                0.1517                   1
 d    1 1.00
                  0.55                   1

26 0
 s    3 1.00
                 13.01   0.033498726389998
                 1.962    0.23480080117413
                0.4446     0.8136829578829
 s    1 1.00
                 0.122                   1
 p    1 1.00
                 0.727                   1

27 0
 s    3 1.00
                 13.01   0.033498726389998
                 1.962    0.23480080117413
                0.4446     0.8136829578829
 s    1 1.00
                 0.122                   1
 p    1 1.00
                 0.727                   1

28 0
 s    8 1.00
                  6665  0.00069158396281299
                  1000  0.0053257961529341
                   228   0.027060721042034
                 64.71    0.10165684614077
                 21.06     0.2745748236174
                 7.495    0.44829431892377
                 2.797    0.28490261071525
                0.5215   0.015194859206082
 s    8 1.00
                  6665  -0.00029326965268655
                  1000  -0.0023180354739745
                   228  -0.011499786038565
                 64.71  -0.046826727009787
                 21.06   -0.12846616875047
                 7.495   -0.30126627246289
                 2.797   -0.25563070233011
                0.5215      1.093793361012
 s    1 1.00
                0.1596                   1
 p    3 1.00
                 9.439   0.056979251590039
                 2.002    0.31320721150073
                0.5456    0.76037674173753
 p    1 1.00
                0.1517                   1
 d    1 1.00
                  0.55                   1

29 0
 s    3 1.00
                 13.01   0.033498726389998
                 1.962    0.23480080117413
                0.4446     0.8136829578829
 s    1 1.00
                 0.122                   1
 p    1 1.00
                 0.727                   1

30 0
 s    3 1.00
                 13.01   0.033498726389998
                 1.962    0.23480080117413
                0.4446     0.8136829578829
 s    1 1.00
                 0.122                   1
 p    1 1.00
                 0.727                   1

31 0
 s    8 1.00
                  6665  0.00069158396281299
                  1000  0.0053257961529341
                   228   0.027060721042034
                 64.71    0.10165684614077
                 21.06     0.2745748236174
                 7.495    0.44829431892377
                 2.797    0.28490261071525
                0.5215   0.015194859206082
 s    8 1.00
                  6665  -0.00029326965268655
                  1000  -0.0023180354739745
                   228  -0.011499786038565
                 64.71  -0.046826727009787
                 21.06   -0.12846616875047
                 7.495   -0.30126627246289
                 2.797   -0.25563070233011
                0.5215      1.093793361012
 s    1 1.00
                0.1596                   1
 p    3 1.00
                 9.439   0.056979251590039
                 2.002    0.31320721150073
                0.5456    0.76037674173753
 p    1 1.00
                0.1517                   1
 d    1 1.00
                  0.55                   1

32 0
 s    3 1.00
                 13.01   0.033498726389998
                 1.962    0.23480080117413
                0.4446     0.8136829578829
 s    1 1.00
                 0.122                   1
 p    1 1.00
                 0.727                   1

33 0
 s    3 1.00
                 13.01   0.033498726389998
                 1.962    0.23480080117413
                0.4446     0.8136829578829
 s    1 1.00
                 0.122                   1
 p    1 1.00
                 0.727                   1

34 0
 s    3 1.00
                 13.01   0.033498726389998
                 1.962    0.23480080117413
                0.4446     0.8136829578829
 s    1 1.00
                 0.122                   1
 p    1 1.00
                 0.727                   1

35 0
 s    3 1.00
                 13.01   0.033498726389998
                 1.962    0.23480080117413
                0.4446     0.8136829578829
 s    1 1.00
                 0.122                   1
 p    1 1.00
                 0.727                   1

36 0
 s    3 1.00
                 13.01   0.033498726389998
                 1.962    0.23480080117413
                0.4446     0.8136829578829
 s    1 1.00
                 0.122                   1
 p    1 1.00
                 0.727                   1

37 0
 s    3 1.00
                 13.01   0.033498726389998
                 1.962    0.23480080117413
                0.4446     0.8136829578829
 s    1 1.00
                 0.122                   1
 p    1 1.00
                 0.727                   1

[5d]
[7f]
[9g]

[MO]
 Sym= A
 Ene=               0
 Spin= Alpha
 Occup=    1.00000
   1    -2.3135013852325e-05
   2    -1.1548199812139e-05
   3    4.6072690939509e-05
   4    -4.4500215502456e-08
   5    1.7394629747337e-06
   6    -4.1857350956572e-07
   7    3.0215874089022e-07
   8    -1.0969213832391e-05
   9    -3.5205610902736e-05
  10    6.6798284549235e-06
  11    1.2001425105977e-08
  12    -5.1235172097551e-07
  13    5.1022701917721e-07
  14    2.8137363989835e-08
  15    -5.3555593607223e-06
  16    -6.9326790924974e-05
  17    -2.7888245872551e-08
  18    6.8634938312486e-07
  19    -2.1340697842068e-05
  20    -2.5048730332006e-06
  21    2.9056824543476e-05
  22    1.0716678226389e-07
  23    -3.7151970235725e-06
  24    9.6994532493827e-07
  25       1.0013579458088
  26    0.0019432855585036
  27    -0.0067546926932979
  28    -4.512398520363e-06
  29    7.3750023842813e-06
  30    -0.0016610031980701
  31    -3.6434958997038e-07
  32    -1.0770859377368e-06
  33    0.0018056262459816
  34    0.00013106247704437
  35    -3.0408440125395e-06
  36    1.3086264857779e-06
  37    6.7751372484356e-05
  38    -0.00017649019595807
  39    0.00027102802921234
  40    0.00036630567545369
  41    0.0013893121847968
  42    1.4799047380188e-05
  43    -9.932252019937e-06
  44    -1.6291370777958e-05
  45    8.2454158030766e-05
  46    -6.315378043754e-05
  47    0.0035263452174264
  48    -0.00054170092047626
  49    -8.6095762637036e-06
  50    2.4837147479099e-06
  51    2.8413531663421e-05
  52    -0.00010660256108808
  53    -8.5091469063625e-05
  54    -0.00016645231359224
  55    0.0013652123608976
  56    7.8084970191291e-05
  57    -7.5107099883071e-06
  58    -3.6407156888889e-05
  59    -0.00042313779554182
  60    0.00047548923281875
  61    -0.00091817477099825
  62    -0.00011806092099283
  63    0.00015028703766935
  64    -0.00014283442032488
  65    5.5324190872979e-05
  66    -0.00013080581042867
  67    -4.0654943060235e-05
  68    -9.9074956115516e-05
  69    0.00051007386932897
  70    -6.0638063750066e-05
  71    3.9661850857046e-05
  72    -6.2820087133711e-05
  73    0.00099758617457049
  74    -0.00076894598695747
  75    -0.00063253191587162
  76    -0.0001416127449031
  77    -0.00012057659586193
  78    8.9641282140995e-05
  79    5.9264744418366e-05
  80    -0.000152555373016
  81    -6.5610953049598e-05
  82    0.00020589329889113
  83    6.5806112100598e-05
  84    -4.8322734092466e-05
  85    4.9276145699344e-05
  86    2.4964490159946e-05
  87     4.89336476338e-05
  88    -0.0006010872257392
  89    -1.5939198182582e-05
  90    -1.7079142070873e-05
  91    1.2280327328942e-05
  92    0.00025553355104481
  93    0.00062042996411369
  94    -1.9971910282164e-05
  95    1.7908908945068e-05
  96    1.1094189187689e-05
  97    7.0582623949738e-06
  98    -2.0868920482052e-05
  99    -4.5179619312243e-05
 100    -3.6490395241878e-05
 101    -0.00015695132014851
 102    9.7841746063738e-06
 103    -9.6562632953306e-06
 104    7.3958145607886e-05
 105    -1.7634028056867e-05
 106    -0.00019972782322078
 107    -6.457209754226e-05
 108    1.1745800908217e-05
 109    7.4338167526468e-05
 110    7.7198801057421e-05
 111    -5.7411919710873e-05
 112    -4.5771670640138e-05
 113    1.8152694156069e-05
 114    6.9315532584043e-05
 115    -5.0025175106405e-05
 116    -0.00010173994791455
 117    0.00083832419602757
 118    -2.6465526577195e-05
 119    -9.7425005404982e-06
 120    3.2654542686596e-05
 121    0.00029963335420919
 122    2.857538500725e-05
 123    -0.00013155135187748
 124    -6.4264993490031e-06
 125    1.2680424269823e-05
 126    1.6071903577899e-05
 127    -3.2194101409373e-05
 128    4.9836538723325e-05
 129    -1.8826125455873e-05
 130    -0.00031936921362792
 131    7.399447549969e-06
 132    5.8372514573086e-06
 133    2.9096912956253e-05
 134    2.5937145566578e-05
 135    -0.00011875619353091
 136    -1.3409312665077e-05
 137    -2.3865045834015e-05
 138    -2.6463931985783e-05
 139    -2.0989147610715e-05
 140    -3.8287240417963e-05
 141    0.00028381226052433
 142    7.9724642422644e-06
 143    -2.4188279696084e-06
 144    -6.1894222067036e-06
 145    -0.00022928665082141
 146    5.0510874863362e-05
 147    6.4808580848842e-05
 148    -2.3442012953007e-06
 149    3.0222135318442e-06
 150    -3.3362784025952e-06
 151    1.1806419677624e-05
 152    -4.9809335886609e-06
 153    -9.7035904263271e-05
 154    -0.00011605990009302
 155    -2.5687374503637e-05
 156    3.0280513163352e-05
 157    2.0723537468356e-05
 158    -2.578778316252e-05
 159    -8.9910623471871e-05
 160    -5.9568469054839e-05
 161    -7.1015652772497e-06
 162    5.9940274039217e-06
 163    1.7339478668219e-06
 164    -8.1293126637394e-06
 165    -0.00023388458309062
 166    -1.6696043884627e-05
 167    1.3471866760018e-05
 168    6.7084416489426e-06
 169    0.00023941216866563
 170    -0.00021508349756299
 171    -0.00012996809138963
 172    -2.9662199484917e-06
 173    1.0204584880638e-05
 174    -1.372698022689e-05
 175    3.2409274774385e-06
 176    -1.833367637417e-05
 177    -1.5860355844348e-05
 178    8.2955107981338e-05
 179    -6.8740647441917e-07
 180    2.0342632233224e-06
 181    -5.0053880526585e-06
 182    2.1978571108216e-05
 183    2.7039753747832e-05
 184    -6.3457488765739e-05
 185    -4.6838769593147e-06
 186    3.5640435952646e-06
 187    5.4144355441234e-06
 188    0.00012586535706073
 189    -0.0001022213994495
 190    -8.3569338745769e-05
 191    1.2969453597998e-06
 192    1.9110426406906e-06
 193    -7.6908294471411e-06
 194    -3.0566036203247e-06
 195    -5.0180994731207e-06
 196    -1.3893985544377e-05
 197    -1.8425891608763e-05
 198    5.638235054057e-06
 199    1.9701783783438e-06
 200    -3.627725002017e-06
 201    -1.4075023630633e-05
 202    4.1763137121937e-06
 203    -1.296046046166e-05
 204    1.0055072599627e-05
 205    1.1766393859194e-05
 206    7.548438585999e-06
 207    6.8290735601098e-05
 208    -1.6214327167353e-05
 209    4.0339894421451e-06
 210    1.5501260789685e-05
 211    7.7187872091684e-06
 212    -3.6073738716304e-05
 213    0.00024761794181302
 214    6.5736961722814e-06
 215    -4.5069652381045e-06
 216    -4.609361234101e-06
 217    0.00019710184872435
 218    -5.5199988609056e-05
 219    -7.5179773636731e-05
 220    -1.9656183823473e-06
 221    -1.6851922958808e-05
 222    5.7846845778972e-06
 223    9.1804804787805e-06
 224    -1.313295144343e-06
 225    2.5308701086821e-05
 226    5.372007228277e-05
 227    -1.2198752545903e-05
 228    -1.8683297382731e-06
 229    -1.0101449015701e-06
 230    9.8330323174296e-06
 231    5.4467829110673e-05
 232    -3.9115972628311e-06
 233    6.2508269749972e-06
 234    1.1949973640576e-05
 235    1.7039432609037e-06
 236    1.8634553112549e-06
 237    -7.739971724062e-05
 238    2.8127225985541e-06
 239    2.5374056931322e-06
 240    -4.149094253891e-06
 241    3.5293344116825e-05
 242    -6.2079425302313e-05
 243    1.747534980587e-05
 244    1.8762814811404e-06
 245    1.762894703738e-06
 246    -1.9579449664411e-06
 247    1.7579384921804e-07
 248    9.2721212750792e-07
 249    -2.0264335421561e-05
 250    1.3826135383024e-05
 251    -4.478284511805e-06
 252    -8.1812169148501e-07
 253    -1.7913213636088e-08
 254    -1.7069432895641e-05
 255    5.5973621999919e-05
 256    -2.4164221637696e-07
 257    4.2153505571381e-06
 258    -8.3102411086929e-07
 259    -2.5363827741673e-05
 260    -2.9468655579617e-05
 261    7.6497903540558e-05
 262    -5.9969466523551e-06