[Molden Format]
made by pyscf v[2.0.1]
[Atoms] (AU)
O   1   8     0.00000000000000     0.00000000000000    11.31969581038057
H   2   1     0.00000000000000     0.00000000000000     9.49629398847960
H   3   1    -0.05031916615174     1.78353065140343    11.69556750684724
O   4   8     0.00000000000000     0.00000000000000     2.31533471513237
C   5   6     0.00000000000000     0.00000000000000     0.00000000000000
C   6   6     2.01118073026938    -1.40227222164369    -1.50774939176400
C   7   6    -2.01249334291722     1.41331050329955    -1.50315905028694
H   8   1     3.32037363730244    -2.26721897153159    -0.13599698591495
C   9   6     3.45899267434009     0.28739631745591    -3.37437943254505
H   10   1     1.07662969841332    -2.94725144642667    -2.56541439481080
H   11   1    -2.67503415753480     0.18421555839588    -3.06194479365997
H   12   1    -1.07974048864772     3.03851734677796    -2.43674295017013
C   13   6    -4.21607110578555     2.32938802552922     0.11994162256091
H   14   1     4.24440173074564     1.93368664142019    -2.34976285512790
H   15   1     2.15020713235517     1.04714335134846    -4.81494497423699
C   16   6     5.60746363007797    -1.12419643481196    -4.70268606082550
H   17   1    -3.46838323670267     3.50951302338067     1.66946842715333
H   18   1    -5.11873485366228     0.68575958301209     1.04047743976495
C   19   6    -6.18314754751344     3.80909592987882    -1.39656589068747
H   20   1     6.93011263717176    -1.87550812453645    -3.26656317360070
C   21   6     7.06356622236532     0.52877932406334    -6.57829775293605
H   22   1     4.82318879258361    -2.78573437948532    -5.70504560381835
H   23   1    -6.91582688743803     2.61304780074712    -2.95074552451969
H   24   1    -5.26532430573853     5.45420349051338    -2.31005832200284
C   25   6    -8.39941882261433     4.73263980500213     0.21800571437956
H   26   1     7.83338371486801     2.19084139882824    -5.57093109900697
H   27   1     5.73544244039420     1.27376866537418    -8.01071492370229
C   28   6     9.21124858443101    -0.89699110072176    -7.88926949186242
H   29   1    -7.66272760055236     5.92277078003992     1.77035591474408
H   30   1    -9.31497248082589     3.08753015622020     1.12614408368786
C   31   6   -10.35481709231879     6.21833079391143    -1.30905206253246
H   32   1    10.58815905329501    -1.61074586756696    -6.49512691622620
H   33   1    10.23506248045667     0.32468009384095    -9.23072870921204
H   34   1     8.47665842847139    -2.53598436989925    -8.94921964622535
H   35   1    -9.48948872868064     7.90013588951020    -2.18823918416067
H   36   1   -11.93332513000955     6.86460487874102    -0.11255798845995
H   37   1   -11.15126291841033     5.04495968327630    -2.83849898862534
[GTO]
1 0
 s    8 1.00
                 11720  0.00070964594651845
                  1759  0.0054672722921914
                 400.8   0.027823118610189
                 113.7    0.10474773971146
                 37.03    0.28292084635691
                 13.27    0.44849523869833
                 5.025    0.27081688521277
                 1.013    0.01545029160744
 s    8 1.00
                 11720  -0.00031444341168873
                  1759  -0.0024821376810179
                 400.8  -0.012316355381583
                 113.7  -0.050538917343672
                 37.03   -0.13938490331632
                 13.27   -0.32507749481778
                 5.025   -0.22984830758785
                 1.013     1.0953793467883
 s    1 1.00
                0.3023                   1
 p    3 1.00
                  17.7   0.062679166281506
                 3.854    0.33353656587936
                 1.046    0.74123964163973
 p    1 1.00
                0.2753                   1
 d    1 1.00
                 1.185                   1

2 0
 s    3 1.00
                 13.01   0.033498726389998
                 1.962    0.23480080117413
                0.4446     0.8136829578829
 s    1 1.00
                 0.122                   1
 p    1 1.00
                 0.727                   1

3 0
 s    3 1.00
                 13.01   0.033498726389998
                 1.962    0.23480080117413
                0.4446     0.8136829578829
 s    1 1.00
                 0.122                   1
 p    1 1.00
                 0.727                   1

4 0
 s    8 1.00
                 11720  0.00070964594651845
                  1759  0.0054672722921914
                 400.8   0.027823118610189
                 113.7    0.10474773971146
                 37.03    0.28292084635691
                 13.27    0.44849523869833
                 5.025    0.27081688521277
                 1.013    0.01545029160744
 s    8 1.00
                 11720  -0.00031444341168873
                  1759  -0.0024821376810179
                 400.8  -0.012316355381583
                 113.7  -0.050538917343672
                 37.03   -0.13938490331632
                 13.27   -0.32507749481778
                 5.025   -0.22984830758785
                 1.013     1.0953793467883
 s    1 1.00
                0.3023                   1
 p    3 1.00
                  17.7   0.062679166281506
                 3.854    0.33353656587936
                 1.046    0.74123964163973
 p    1 1.00
                0.2753                   1
 d    1 1.00
                 1.185                   1

5 0
 s    8 1.00
                  6665  0.00069158396281299
                  1000  0.0053257961529341
                   228   0.027060721042034
                 64.71    0.10165684614077
                 21.06     0.2745748236174
                 7.495    0.44829431892377
                 2.797    0.28490261071525
                0.5215   0.015194859206082
 s    8 1.00
                  6665  -0.00029326965268655
                  1000  -0.0023180354739745
                   228  -0.011499786038565
                 64.71  -0.046826727009787
                 21.06   -0.12846616875047
                 7.495   -0.30126627246289
                 2.797   -0.25563070233011
                0.5215      1.093793361012
 s    1 1.00
                0.1596                   1
 p    3 1.00
                 9.439   0.056979251590039
                 2.002    0.31320721150073
                0.5456    0.76037674173753
 p    1 1.00
                0.1517                   1
 d    1 1.00
                  0.55                   1

6 0
 s    8 1.00
                  6665  0.00069158396281299
                  1000  0.0053257961529341
                   228   0.027060721042034
                 64.71    0.10165684614077
                 21.06     0.2745748236174
                 7.495    0.44829431892377
                 2.797    0.28490261071525
                0.5215   0.015194859206082
 s    8 1.00
                  6665  -0.00029326965268655
                  1000  -0.0023180354739745
                   228  -0.011499786038565
                 64.71  -0.046826727009787
                 21.06   -0.12846616875047
                 7.495   -0.30126627246289
                 2.797   -0.25563070233011
                0.5215      1.093793361012
 s    1 1.00
                0.1596                   1
 p    3 1.00
                 9.439   0.056979251590039
                 2.002    0.31320721150073
                0.5456    0.76037674173753
 p    1 1.00
                0.1517                   1
 d    1 1.00
                  0.55                   1

7 0
 s    8 1.00
                  6665  0.00069158396281299
                  1000  0.0053257961529341
                   228   0.027060721042034
                 64.71    0.10165684614077
                 21.06     0.2745748236174
                 7.495    0.44829431892377
                 2.797    0.28490261071525
                0.5215   0.015194859206082
 s    8 1.00
                  6665  -0.00029326965268655
                  1000  -0.0023180354739745
                   228  -0.011499786038565
                 64.71  -0.046826727009787
                 21.06   -0.12846616875047
                 7.495   -0.30126627246289
                 2.797   -0.25563070233011
                0.5215      1.093793361012
 s    1 1.00
                0.1596                   1
 p    3 1.00
                 9.439   0.056979251590039
                 2.002    0.31320721150073
                0.5456    0.76037674173753
 p    1 1.00
                0.1517                   1
 d    1 1.00
                  0.55                   1

8 0
 s    3 1.00
                 13.01   0.033498726389998
                 1.962    0.23480080117413
                0.4446     0.8136829578829
 s    1 1.00
                 0.122                   1
 p    1 1.00
                 0.727                   1

9 0
 s    8 1.00
                  6665  0.00069158396281299
                  1000  0.0053257961529341
                   228   0.027060721042034
                 64.71    0.10165684614077
                 21.06     0.2745748236174
                 7.495    0.44829431892377
                 2.797    0.28490261071525
                0.5215   0.015194859206082
 s    8 1.00
                  6665  -0.00029326965268655
                  1000  -0.0023180354739745
                   228  -0.011499786038565
                 64.71  -0.046826727009787
                 21.06   -0.12846616875047
                 7.495   -0.30126627246289
                 2.797   -0.25563070233011
                0.5215      1.093793361012
 s    1 1.00
                0.1596                   1
 p    3 1.00
                 9.439   0.056979251590039
                 2.002    0.31320721150073
                0.5456    0.76037674173753
 p    1 1.00
                0.1517                   1
 d    1 1.00
                  0.55                   1

10 0
 s    3 1.00
                 13.01   0.033498726389998
                 1.962    0.23480080117413
                0.4446     0.8136829578829
 s    1 1.00
                 0.122                   1
 p    1 1.00
                 0.727                   1

11 0
 s    3 1.00
                 13.01   0.033498726389998
                 1.962    0.23480080117413
                0.4446     0.8136829578829
 s    1 1.00
                 0.122                   1
 p    1 1.00
                 0.727                   1

12 0
 s    3 1.00
                 13.01   0.033498726389998
                 1.962    0.23480080117413
                0.4446     0.8136829578829
 s    1 1.00
                 0.122                   1
 p    1 1.00
                 0.727                   1

13 0
 s    8 1.00
                  6665  0.00069158396281299
                  1000  0.0053257961529341
                   228   0.027060721042034
                 64.71    0.10165684614077
                 21.06     0.2745748236174
                 7.495    0.44829431892377
                 2.797    0.28490261071525
                0.5215   0.015194859206082
 s    8 1.00
                  6665  -0.00029326965268655
                  1000  -0.0023180354739745
                   228  -0.011499786038565
                 64.71  -0.046826727009787
                 21.06   -0.12846616875047
                 7.495   -0.30126627246289
                 2.797   -0.25563070233011
                0.5215      1.093793361012
 s    1 1.00
                0.1596                   1
 p    3 1.00
                 9.439   0.056979251590039
                 2.002    0.31320721150073
                0.5456    0.76037674173753
 p    1 1.00
                0.1517                   1
 d    1 1.00
                  0.55                   1

14 0
 s    3 1.00
                 13.01   0.033498726389998
                 1.962    0.23480080117413
                0.4446     0.8136829578829
 s    1 1.00
                 0.122                   1
 p    1 1.00
                 0.727                   1

15 0
 s    3 1.00
                 13.01   0.033498726389998
                 1.962    0.23480080117413
                0.4446     0.8136829578829
 s    1 1.00
                 0.122                   1
 p    1 1.00
                 0.727                   1

16 0
 s    8 1.00
                  6665  0.00069158396281299
                  1000  0.0053257961529341
                   228   0.027060721042034
                 64.71    0.10165684614077
                 21.06     0.2745748236174
                 7.495    0.44829431892377
                 2.797    0.28490261071525
                0.5215   0.015194859206082
 s    8 1.00
                  6665  -0.00029326965268655
                  1000  -0.0023180354739745
                   228  -0.011499786038565
                 64.71  -0.046826727009787
                 21.06   -0.12846616875047
                 7.495   -0.30126627246289
                 2.797   -0.25563070233011
                0.5215      1.093793361012
 s    1 1.00
                0.1596                   1
 p    3 1.00
                 9.439   0.056979251590039
                 2.002    0.31320721150073
                0.5456    0.76037674173753
 p    1 1.00
                0.1517                   1
 d    1 1.00
                  0.55                   1

17 0
 s    3 1.00
                 13.01   0.033498726389998
                 1.962    0.23480080117413
                0.4446     0.8136829578829
 s    1 1.00
                 0.122                   1
 p    1 1.00
                 0.727                   1

18 0
 s    3 1.00
                 13.01   0.033498726389998
                 1.962    0.23480080117413
                0.4446     0.8136829578829
 s    1 1.00
                 0.122                   1
 p    1 1.00
                 0.727                   1

19 0
 s    8 1.00
                  6665  0.00069158396281299
                  1000  0.0053257961529341
                   228   0.027060721042034
                 64.71    0.10165684614077
                 21.06     0.2745748236174
                 7.495    0.44829431892377
                 2.797    0.28490261071525
                0.5215   0.015194859206082
 s    8 1.00
                  6665  -0.00029326965268655
                  1000  -0.0023180354739745
                   228  -0.011499786038565
                 64.71  -0.046826727009787
                 21.06   -0.12846616875047
                 7.495   -0.30126627246289
                 2.797   -0.25563070233011
                0.5215      1.093793361012
 s    1 1.00
                0.1596                   1
 p    3 1.00
                 9.439   0.056979251590039
                 2.002    0.31320721150073
                0.5456    0.76037674173753
 p    1 1.00
                0.1517                   1
 d    1 1.00
                  0.55                   1

20 0
 s    3 1.00
                 13.01   0.033498726389998
                 1.962    0.23480080117413
                0.4446     0.8136829578829
 s    1 1.00
                 0.122                   1
 p    1 1.00
                 0.727                   1

21 0
 s    8 1.00
                  6665  0.00069158396281299
                  1000  0.0053257961529341
                   228   0.027060721042034
                 64.71    0.10165684614077
                 21.06     0.2745748236174
                 7.495    0.44829431892377
                 2.797    0.28490261071525
                0.5215   0.015194859206082
 s    8 1.00
                  6665  -0.00029326965268655
                  1000  -0.0023180354739745
                   228  -0.011499786038565
                 64.71  -0.046826727009787
                 21.06   -0.12846616875047
                 7.495   -0.30126627246289
                 2.797   -0.25563070233011
                0.5215      1.093793361012
 s    1 1.00
                0.1596                   1
 p    3 1.00
                 9.439   0.056979251590039
                 2.002    0.31320721150073
                0.5456    0.76037674173753
 p    1 1.00
                0.1517                   1
 d    1 1.00
                  0.55                   1

22 0
 s    3 1.00
                 13.01   0.033498726389998
                 1.962    0.23480080117413
                0.4446     0.8136829578829
 s    1 1.00
                 0.122                   1
 p    1 1.00
                 0.727                   1

23 0
 s    3 1.00
                 13.01   0.033498726389998
                 1.962    0.23480080117413
                0.4446     0.8136829578829
 s    1 1.00
                 0.122                   1
 p    1 1.00
                 0.727                   1

24 0
 s    3 1.00
                 13.01   0.033498726389998
                 1.962    0.23480080117413
                0.4446     0.8136829578829
 s    1 1.00
                 0.122                   1
 p    1 1.00
                 0.727                   1

25 0
 s    8 1.00
                  6665  0.00069158396281299
                  1000  0.0053257961529341
                   228   0.027060721042034
                 64.71    0.10165684614077
                 21.06     0.2745748236174
                 7.495    0.44829431892377
                 2.797    0.28490261071525
                0.5215   0.015194859206082
 s    8 1.00
                  6665  -0.00029326965268655
                  1000  -0.0023180354739745
                   228  -0.011499786038565
                 64.71  -0.046826727009787
                 21.06   -0.12846616875047
                 7.495   -0.30126627246289
                 2.797   -0.25563070233011
                0.5215      1.093793361012
 s    1 1.00
                0.1596                   1
 p    3 1.00
                 9.439   0.056979251590039
                 2.002    0.31320721150073
                0.5456    0.76037674173753
 p    1 1.00
                0.1517                   1
 d    1 1.00
                  0.55                   1

26 0
 s    3 1.00
                 13.01   0.033498726389998
                 1.962    0.23480080117413
                0.4446     0.8136829578829
 s    1 1.00
                 0.122                   1
 p    1 1.00
                 0.727                   1

27 0
 s    3 1.00
                 13.01   0.033498726389998
                 1.962    0.23480080117413
                0.4446     0.8136829578829
 s    1 1.00
                 0.122                   1
 p    1 1.00
                 0.727                   1

28 0
 s    8 1.00
                  6665  0.00069158396281299
                  1000  0.0053257961529341
                   228   0.027060721042034
                 64.71    0.10165684614077
                 21.06     0.2745748236174
                 7.495    0.44829431892377
                 2.797    0.28490261071525
                0.5215   0.015194859206082
 s    8 1.00
                  6665  -0.00029326965268655
                  1000  -0.0023180354739745
                   228  -0.011499786038565
                 64.71  -0.046826727009787
                 21.06   -0.12846616875047
                 7.495   -0.30126627246289
                 2.797   -0.25563070233011
                0.5215      1.093793361012
 s    1 1.00
                0.1596                   1
 p    3 1.00
                 9.439   0.056979251590039
                 2.002    0.31320721150073
                0.5456    0.76037674173753
 p    1 1.00
                0.1517                   1
 d    1 1.00
                  0.55                   1

29 0
 s    3 1.00
                 13.01   0.033498726389998
                 1.962    0.23480080117413
                0.4446     0.8136829578829
 s    1 1.00
                 0.122                   1
 p    1 1.00
                 0.727                   1

30 0
 s    3 1.00
                 13.01   0.033498726389998
                 1.962    0.23480080117413
                0.4446     0.8136829578829
 s    1 1.00
                 0.122                   1
 p    1 1.00
                 0.727                   1

31 0
 s    8 1.00
                  6665  0.00069158396281299
                  1000  0.0053257961529341
                   228   0.027060721042034
                 64.71    0.10165684614077
                 21.06     0.2745748236174
                 7.495    0.44829431892377
                 2.797    0.28490261071525
                0.5215   0.015194859206082
 s    8 1.00
                  6665  -0.00029326965268655
                  1000  -0.0023180354739745
                   228  -0.011499786038565
                 64.71  -0.046826727009787
                 21.06   -0.12846616875047
                 7.495   -0.30126627246289
                 2.797   -0.25563070233011
                0.5215      1.093793361012
 s    1 1.00
                0.1596                   1
 p    3 1.00
                 9.439   0.056979251590039
                 2.002    0.31320721150073
                0.5456    0.76037674173753
 p    1 1.00
                0.1517                   1
 d    1 1.00
                  0.55                   1

32 0
 s    3 1.00
                 13.01   0.033498726389998
                 1.962    0.23480080117413
                0.4446     0.8136829578829
 s    1 1.00
                 0.122                   1
 p    1 1.00
                 0.727                   1

33 0
 s    3 1.00
                 13.01   0.033498726389998
                 1.962    0.23480080117413
                0.4446     0.8136829578829
 s    1 1.00
                 0.122                   1
 p    1 1.00
                 0.727                   1

34 0
 s    3 1.00
                 13.01   0.033498726389998
                 1.962    0.23480080117413
                0.4446     0.8136829578829
 s    1 1.00
                 0.122                   1
 p    1 1.00
                 0.727                   1

35 0
 s    3 1.00
                 13.01   0.033498726389998
                 1.962    0.23480080117413
                0.4446     0.8136829578829
 s    1 1.00
                 0.122                   1
 p    1 1.00
                 0.727                   1

36 0
 s    3 1.00
                 13.01   0.033498726389998
                 1.962    0.23480080117413
                0.4446     0.8136829578829
 s    1 1.00
                 0.122                   1
 p    1 1.00
                 0.727                   1

37 0
 s    3 1.00
                 13.01   0.033498726389998
                 1.962    0.23480080117413
                0.4446     0.8136829578829
 s    1 1.00
                 0.122                   1
 p    1 1.00
                 0.727                   1

[5d]
[7f]
[9g]

[MO]
 Sym= A
 Ene=               0
 Spin= Alpha
 Occup=    1.00000
   1    2.3885266326543e-05
   2    1.1559023958549e-05
   3    -4.6116414379176e-05
   4    4.4596230582804e-08
   5    -1.7386239963175e-06
   6    4.1730708927329e-07
   7    -3.0278549950007e-07
   8    1.0974025593144e-05
   9    3.5230244207903e-05
  10    -6.6820010194051e-06
  11    -1.2035716102959e-08
  12    5.1241928425433e-07
  13    -5.1016700078587e-07
  14    -2.8151398739736e-08
  15    5.3588168589525e-06
  16    6.9403080248483e-05
  17    2.7464749605863e-08
  18    -6.8614789826701e-07
  19    2.1350511163546e-05
  20    2.5069669483542e-06
  21    -2.9071701729376e-05
  22    -1.0708186583958e-07
  23    3.7150881365209e-06
  24    -9.7098991957578e-07
  25       -1.001357829649
  26    -0.0019430412215675
  27    0.0067533750558852
  28    4.4520035757794e-06
  29    -7.4440904186339e-06
  30    0.0016610159938073
  31    9.6135248038344e-07
  32    5.0140146425425e-07
  33    -0.0018051554986384
  34    -0.00013111686058094
  35    3.0529081202379e-06
  36    -1.3113153921644e-06
  37    -6.7729967300909e-05
  38    0.00017645744705369
  39    -0.00027148850756927
  40    -0.00036678379247558
  41    -0.001385151810861
  42    -1.4892244514795e-05
  43    1.0059410458853e-05
  44    1.6122641241012e-05
  45    -8.8247107140681e-05
  46    6.7013996206055e-05
  47    -0.0035258286583061
  48    0.00054193617577778
  49    8.9540928315102e-06
  50    -2.7539900028163e-06
  51    -2.8374338310462e-05
  52    0.00010643381400892
  53    8.4897147712414e-05
  54    0.00016588272240495
  55    -0.001362320878261
  56    -7.7900933759689e-05
  57    7.1531749758925e-06
  58    3.6295004906831e-05
  59    0.00042217590501345
  60    -0.00047450976081154
  61    0.00092021400658387
  62    0.00011810494878902
  63    -0.00015041244269796
  64    0.00014290341364207
  65    -5.5279843253874e-05
  66    0.00013076447771274
  67    4.1847470544938e-05
  68    9.8700005751188e-05
  69    -0.00052528763506833
  70    6.2508443114139e-05
  71    -4.0131492960027e-05
  72    6.0597999383902e-05
  73    -0.00099573354508593
  74    0.00076896341193362
  75    0.00062751809513156
  76    0.00014205596864749
  77    0.00012011647174729
  78    -8.955939724289e-05
  79    -5.9260874981344e-05
  80    0.00015284027414583
  81    6.5538327251893e-05
  82    -0.00020548649393521
  83    -6.5850937091312e-05
  84    4.8323217839578e-05
  85    -4.9306017555916e-05
  86    -2.504103953364e-05
  87    -4.8639415162835e-05
  88    0.0006019270590446
  89     1.63593286414e-05
  90    1.6584466880071e-05
  91    -1.2467020388581e-05
  92    -0.00025484471731205
  93    -0.0006208803866311
  94    1.8611165780715e-05
  95    -1.7936941393066e-05
  96    -1.1041807225519e-05
  97    -7.0057659494147e-06
  98    2.0859728528796e-05
  99    4.5245920689197e-05
 100    3.6496337096516e-05
 101    0.00015739210546843
 102    -9.7236860209228e-06
 103    9.6474051291749e-06
 104    -7.4013186596817e-05
 105    1.8885808389057e-05
 106    0.00020079417795442
 107    6.4631816897564e-05
 108    -1.1832922890055e-05
 109    -7.4385797520646e-05
 110    -7.5794055110952e-05
 111    5.8353965436211e-05
 112    4.5934515037162e-05
 113    -1.8128914096625e-05
 114    -6.9343233286281e-05
 115    5.2868961597456e-05
 116    0.00010060896267498
 117    -0.0008335175603068
 118    2.8987291757042e-05
 119    6.3350568215376e-06
 120    -3.486940899789e-05
 121    -0.00029987142705236
 122    -2.8936233078117e-05
 123    0.00013056704327048
 124    9.2091713573885e-06
 125    -8.8099667256829e-06
 126    -1.8818079021085e-05
 127    3.165250838202e-05
 128    -4.9629914684937e-05
 129    1.8854351651105e-05
 130    0.00031991005536506
 131    -7.3931349672249e-06
 132    -5.8672197335328e-06
 133    -2.9090450525314e-05
 134    -2.615669149774e-05
 135    0.00011858229261142
 136    1.3394636909387e-05
 137    2.3850745281019e-05
 138    2.6511737779987e-05
 139    2.0934816547484e-05
 140    3.7963261452965e-05
 141    -0.00028575303075017
 142    -7.6143342896707e-06
 143    2.0971888897858e-06
 144    5.8875752277473e-06
 145    0.00022815859599323
 146    -5.1105488240995e-05
 147    -6.3293067354307e-05
 148    2.1714899219244e-06
 149    -3.6205205688041e-06
 150    3.7288369412266e-06
 151    -1.1287092254793e-05
 152    5.2345055374176e-06
 153    9.9946725149845e-05
 154    0.00012294321815207
 155    2.5767964908003e-05
 156    -3.0475772774946e-05
 157    -2.0421794080824e-05
 158    2.9901121637044e-05
 159    9.5602807819414e-05
 160    5.9928989301272e-05
 161    7.1744365592157e-06
 162    -5.764539992833e-06
 163    7.9951089645202e-05
 164    0.00010044890175706
 165    0.00027583091200161
 166    3.5332926381658e-05
 167    -1.7235731581301e-05
 168    -0.00011905100616614
 169    -0.00023041614376415
 170    0.00021439505865432
 171    7.1900736728951e-05
 172    3.6479724100543e-06
 173    -7.9413946903156e-06
 174    1.4765185735394e-05
 175    -6.6230879927076e-06
 176    2.3815652663496e-05
 177    1.4411982053931e-05
 178    -8.5255417592983e-05
 179    6.6318438361664e-07
 180    -2.0734924420714e-06
 181    5.0378641466149e-06
 182    -1.7002898527639e-05
 183    -1.9667816737676e-05
 184    7.166648767821e-05
 185    2.3630603958908e-05
 186    -1.3115080488922e-05
 187    -5.2395014825382e-06
 188    -0.00011650610698862
 189    9.6349158263622e-05
 190    8.374861997937e-05
 191    -1.7005939905073e-06
 192    -3.2309971016526e-06
 193    8.6675515515882e-06
 194    3.0581072049336e-06
 195    4.4706638877732e-06
 196    1.394437374988e-05
 197    1.8745851149199e-05
 198    -5.6546022356082e-06
 199    -1.9718496888238e-06
 200    3.5784917983296e-06
 201    0.00013172573075596
 202    3.3007174945895e-05
 203    1.7943272216146e-05
 204    -2.8162782800288e-06
 205    -5.4186145737044e-06
 206    8.7214758775969e-05
 207    -4.0809132946968e-05
 208    1.1963133785972e-05
 209    -1.2565979606706e-05
 210    -1.4019193712756e-05
 211    9.9956623762471e-06
 212    3.0289562495682e-05
 213    -0.0002524418327009
 214    -3.4542929413992e-05
 215    1.2745696811163e-05
 216    2.1984991283816e-05
 217    -0.00021035301272632
 218    5.8805234024014e-05
 219    8.5342022352889e-05
 220    4.0463616303683e-06
 221    1.4219113765715e-05
 222    -4.3723435169508e-06
 223    -9.90641085928e-06
 224    2.6129954902839e-06
 225    -2.1706669064573e-05
 226    -5.2752850314654e-05
 227    1.2505654692928e-05
 228    1.319052604494e-06
 229    8.6629883311365e-07
 230    -2.0889016759921e-05
 231    -6.0703460417174e-05
 232    3.8622525693178e-06
 233    -6.1213267210599e-06
 234    -1.2448067512765e-05
 235    -5.3875150796021e-06
 236    5.8179887801144e-06
 237    8.2325200632384e-05
 238    -1.8739626228005e-05
 239    5.046509581021e-06
 240    1.1014366200792e-05
 241    -4.2454814436508e-05
 242    6.5328789874404e-05
 243    -1.4669458479838e-05
 244    -1.9550644434244e-06
 245    -2.8750821961511e-06
 246    2.9342098138624e-06
 247    -5.7706837427874e-08
 248    -1.5784976975062e-06
 249    2.8879016652791e-05
 250    -4.3051626748411e-06
 251    3.5242734278827e-06
 252    6.6836358250904e-07
 253    3.3735474351027e-07
 254    2.9052145075765e-05
 255    -4.7177847460363e-05
 256    -1.1304003967601e-07
 257    -3.1521713315299e-06
 258    1.1608299625017e-06
 259    3.1897868106941e-06
 260    1.7191992528994e-05
 261    -8.8937117733483e-05
 262    6.4185103706824e-06
 263    -2.5748514435438e-06