[Molden Format]
made by pyscf v[2.0.1]
[Atoms] (AU)
O   1   8     0.00000000000000     0.00000000000000     9.80791491072852
H   2   1     0.00000000000000     0.00000000000000     7.98451308882755
H   3   1    -0.05031916615174     1.78353065140343    10.18378660719519
O   4   8     0.00000000000000     0.00000000000000     2.31533471513237
C   5   6     0.00000000000000     0.00000000000000     0.00000000000000
C   6   6     2.01118073026938    -1.40227222164369    -1.50774939176400
C   7   6    -2.01249334291722     1.41331050329955    -1.50315905028694
H   8   1     3.32037363730244    -2.26721897153159    -0.13599698591495
C   9   6     3.45899267434009     0.28739631745591    -3.37437943254505
H   10   1     1.07662969841332    -2.94725144642667    -2.56541439481080
H   11   1    -2.67503415753480     0.18421555839588    -3.06194479365997
H   12   1    -1.07974048864772     3.03851734677796    -2.43674295017013
C   13   6    -4.21607110578555     2.32938802552922     0.11994162256091
H   14   1     4.24440173074564     1.93368664142019    -2.34976285512790
H   15   1     2.15020713235517     1.04714335134846    -4.81494497423699
C   16   6     5.60746363007797    -1.12419643481196    -4.70268606082550
H   17   1    -3.46838323670267     3.50951302338067     1.66946842715333
H   18   1    -5.11873485366228     0.68575958301209     1.04047743976495
C   19   6    -6.18314754751344     3.80909592987882    -1.39656589068747
H   20   1     6.93011263717176    -1.87550812453645    -3.26656317360070
C   21   6     7.06356622236532     0.52877932406334    -6.57829775293605
H   22   1     4.82318879258361    -2.78573437948532    -5.70504560381835
H   23   1    -6.91582688743803     2.61304780074712    -2.95074552451969
H   24   1    -5.26532430573853     5.45420349051338    -2.31005832200284
C   25   6    -8.39941882261433     4.73263980500213     0.21800571437956
H   26   1     7.83338371486801     2.19084139882824    -5.57093109900697
H   27   1     5.73544244039420     1.27376866537418    -8.01071492370229
C   28   6     9.21124858443101    -0.89699110072176    -7.88926949186242
H   29   1    -7.66272760055236     5.92277078003992     1.77035591474408
H   30   1    -9.31497248082589     3.08753015622020     1.12614408368786
C   31   6   -10.35481709231879     6.21833079391143    -1.30905206253246
H   32   1    10.58815905329501    -1.61074586756696    -6.49512691622620
H   33   1    10.23506248045667     0.32468009384095    -9.23072870921204
H   34   1     8.47665842847139    -2.53598436989925    -8.94921964622535
H   35   1    -9.48948872868064     7.90013588951020    -2.18823918416067
H   36   1   -11.93332513000955     6.86460487874102    -0.11255798845995
H   37   1   -11.15126291841033     5.04495968327630    -2.83849898862534
[GTO]
1 0
 s    8 1.00
                 11720  0.00070964594651845
                  1759  0.0054672722921914
                 400.8   0.027823118610189
                 113.7    0.10474773971146
                 37.03    0.28292084635691
                 13.27    0.44849523869833
                 5.025    0.27081688521277
                 1.013    0.01545029160744
 s    8 1.00
                 11720  -0.00031444341168873
                  1759  -0.0024821376810179
                 400.8  -0.012316355381583
                 113.7  -0.050538917343672
                 37.03   -0.13938490331632
                 13.27   -0.32507749481778
                 5.025   -0.22984830758785
                 1.013     1.0953793467883
 s    1 1.00
                0.3023                   1
 p    3 1.00
                  17.7   0.062679166281506
                 3.854    0.33353656587936
                 1.046    0.74123964163973
 p    1 1.00
                0.2753                   1
 d    1 1.00
                 1.185                   1

2 0
 s    3 1.00
                 13.01   0.033498726389998
                 1.962    0.23480080117413
                0.4446     0.8136829578829
 s    1 1.00
                 0.122                   1
 p    1 1.00
                 0.727                   1

3 0
 s    3 1.00
                 13.01   0.033498726389998
                 1.962    0.23480080117413
                0.4446     0.8136829578829
 s    1 1.00
                 0.122                   1
 p    1 1.00
                 0.727                   1

4 0
 s    8 1.00
                 11720  0.00070964594651845
                  1759  0.0054672722921914
                 400.8   0.027823118610189
                 113.7    0.10474773971146
                 37.03    0.28292084635691
                 13.27    0.44849523869833
                 5.025    0.27081688521277
                 1.013    0.01545029160744
 s    8 1.00
                 11720  -0.00031444341168873
                  1759  -0.0024821376810179
                 400.8  -0.012316355381583
                 113.7  -0.050538917343672
                 37.03   -0.13938490331632
                 13.27   -0.32507749481778
                 5.025   -0.22984830758785
                 1.013     1.0953793467883
 s    1 1.00
                0.3023                   1
 p    3 1.00
                  17.7   0.062679166281506
                 3.854    0.33353656587936
                 1.046    0.74123964163973
 p    1 1.00
                0.2753                   1
 d    1 1.00
                 1.185                   1

5 0
 s    8 1.00
                  6665  0.00069158396281299
                  1000  0.0053257961529341
                   228   0.027060721042034
                 64.71    0.10165684614077
                 21.06     0.2745748236174
                 7.495    0.44829431892377
                 2.797    0.28490261071525
                0.5215   0.015194859206082
 s    8 1.00
                  6665  -0.00029326965268655
                  1000  -0.0023180354739745
                   228  -0.011499786038565
                 64.71  -0.046826727009787
                 21.06   -0.12846616875047
                 7.495   -0.30126627246289
                 2.797   -0.25563070233011
                0.5215      1.093793361012
 s    1 1.00
                0.1596                   1
 p    3 1.00
                 9.439   0.056979251590039
                 2.002    0.31320721150073
                0.5456    0.76037674173753
 p    1 1.00
                0.1517                   1
 d    1 1.00
                  0.55                   1

6 0
 s    8 1.00
                  6665  0.00069158396281299
                  1000  0.0053257961529341
                   228   0.027060721042034
                 64.71    0.10165684614077
                 21.06     0.2745748236174
                 7.495    0.44829431892377
                 2.797    0.28490261071525
                0.5215   0.015194859206082
 s    8 1.00
                  6665  -0.00029326965268655
                  1000  -0.0023180354739745
                   228  -0.011499786038565
                 64.71  -0.046826727009787
                 21.06   -0.12846616875047
                 7.495   -0.30126627246289
                 2.797   -0.25563070233011
                0.5215      1.093793361012
 s    1 1.00
                0.1596                   1
 p    3 1.00
                 9.439   0.056979251590039
                 2.002    0.31320721150073
                0.5456    0.76037674173753
 p    1 1.00
                0.1517                   1
 d    1 1.00
                  0.55                   1

7 0
 s    8 1.00
                  6665  0.00069158396281299
                  1000  0.0053257961529341
                   228   0.027060721042034
                 64.71    0.10165684614077
                 21.06     0.2745748236174
                 7.495    0.44829431892377
                 2.797    0.28490261071525
                0.5215   0.015194859206082
 s    8 1.00
                  6665  -0.00029326965268655
                  1000  -0.0023180354739745
                   228  -0.011499786038565
                 64.71  -0.046826727009787
                 21.06   -0.12846616875047
                 7.495   -0.30126627246289
                 2.797   -0.25563070233011
                0.5215      1.093793361012
 s    1 1.00
                0.1596                   1
 p    3 1.00
                 9.439   0.056979251590039
                 2.002    0.31320721150073
                0.5456    0.76037674173753
 p    1 1.00
                0.1517                   1
 d    1 1.00
                  0.55                   1

8 0
 s    3 1.00
                 13.01   0.033498726389998
                 1.962    0.23480080117413
                0.4446     0.8136829578829
 s    1 1.00
                 0.122                   1
 p    1 1.00
                 0.727                   1

9 0
 s    8 1.00
                  6665  0.00069158396281299
                  1000  0.0053257961529341
                   228   0.027060721042034
                 64.71    0.10165684614077
                 21.06     0.2745748236174
                 7.495    0.44829431892377
                 2.797    0.28490261071525
                0.5215   0.015194859206082
 s    8 1.00
                  6665  -0.00029326965268655
                  1000  -0.0023180354739745
                   228  -0.011499786038565
                 64.71  -0.046826727009787
                 21.06   -0.12846616875047
                 7.495   -0.30126627246289
                 2.797   -0.25563070233011
                0.5215      1.093793361012
 s    1 1.00
                0.1596                   1
 p    3 1.00
                 9.439   0.056979251590039
                 2.002    0.31320721150073
                0.5456    0.76037674173753
 p    1 1.00
                0.1517                   1
 d    1 1.00
                  0.55                   1

10 0
 s    3 1.00
                 13.01   0.033498726389998
                 1.962    0.23480080117413
                0.4446     0.8136829578829
 s    1 1.00
                 0.122                   1
 p    1 1.00
                 0.727                   1

11 0
 s    3 1.00
                 13.01   0.033498726389998
                 1.962    0.23480080117413
                0.4446     0.8136829578829
 s    1 1.00
                 0.122                   1
 p    1 1.00
                 0.727                   1

12 0
 s    3 1.00
                 13.01   0.033498726389998
                 1.962    0.23480080117413
                0.4446     0.8136829578829
 s    1 1.00
                 0.122                   1
 p    1 1.00
                 0.727                   1

13 0
 s    8 1.00
                  6665  0.00069158396281299
                  1000  0.0053257961529341
                   228   0.027060721042034
                 64.71    0.10165684614077
                 21.06     0.2745748236174
                 7.495    0.44829431892377
                 2.797    0.28490261071525
                0.5215   0.015194859206082
 s    8 1.00
                  6665  -0.00029326965268655
                  1000  -0.0023180354739745
                   228  -0.011499786038565
                 64.71  -0.046826727009787
                 21.06   -0.12846616875047
                 7.495   -0.30126627246289
                 2.797   -0.25563070233011
                0.5215      1.093793361012
 s    1 1.00
                0.1596                   1
 p    3 1.00
                 9.439   0.056979251590039
                 2.002    0.31320721150073
                0.5456    0.76037674173753
 p    1 1.00
                0.1517                   1
 d    1 1.00
                  0.55                   1

14 0
 s    3 1.00
                 13.01   0.033498726389998
                 1.962    0.23480080117413
                0.4446     0.8136829578829
 s    1 1.00
                 0.122                   1
 p    1 1.00
                 0.727                   1

15 0
 s    3 1.00
                 13.01   0.033498726389998
                 1.962    0.23480080117413
                0.4446     0.8136829578829
 s    1 1.00
                 0.122                   1
 p    1 1.00
                 0.727                   1

16 0
 s    8 1.00
                  6665  0.00069158396281299
                  1000  0.0053257961529341
                   228   0.027060721042034
                 64.71    0.10165684614077
                 21.06     0.2745748236174
                 7.495    0.44829431892377
                 2.797    0.28490261071525
                0.5215   0.015194859206082
 s    8 1.00
                  6665  -0.00029326965268655
                  1000  -0.0023180354739745
                   228  -0.011499786038565
                 64.71  -0.046826727009787
                 21.06   -0.12846616875047
                 7.495   -0.30126627246289
                 2.797   -0.25563070233011
                0.5215      1.093793361012
 s    1 1.00
                0.1596                   1
 p    3 1.00
                 9.439   0.056979251590039
                 2.002    0.31320721150073
                0.5456    0.76037674173753
 p    1 1.00
                0.1517                   1
 d    1 1.00
                  0.55                   1

17 0
 s    3 1.00
                 13.01   0.033498726389998
                 1.962    0.23480080117413
                0.4446     0.8136829578829
 s    1 1.00
                 0.122                   1
 p    1 1.00
                 0.727                   1

18 0
 s    3 1.00
                 13.01   0.033498726389998
                 1.962    0.23480080117413
                0.4446     0.8136829578829
 s    1 1.00
                 0.122                   1
 p    1 1.00
                 0.727                   1

19 0
 s    8 1.00
                  6665  0.00069158396281299
                  1000  0.0053257961529341
                   228   0.027060721042034
                 64.71    0.10165684614077
                 21.06     0.2745748236174
                 7.495    0.44829431892377
                 2.797    0.28490261071525
                0.5215   0.015194859206082
 s    8 1.00
                  6665  -0.00029326965268655
                  1000  -0.0023180354739745
                   228  -0.011499786038565
                 64.71  -0.046826727009787
                 21.06   -0.12846616875047
                 7.495   -0.30126627246289
                 2.797   -0.25563070233011
                0.5215      1.093793361012
 s    1 1.00
                0.1596                   1
 p    3 1.00
                 9.439   0.056979251590039
                 2.002    0.31320721150073
                0.5456    0.76037674173753
 p    1 1.00
                0.1517                   1
 d    1 1.00
                  0.55                   1

20 0
 s    3 1.00
                 13.01   0.033498726389998
                 1.962    0.23480080117413
                0.4446     0.8136829578829
 s    1 1.00
                 0.122                   1
 p    1 1.00
                 0.727                   1

21 0
 s    8 1.00
                  6665  0.00069158396281299
                  1000  0.0053257961529341
                   228   0.027060721042034
                 64.71    0.10165684614077
                 21.06     0.2745748236174
                 7.495    0.44829431892377
                 2.797    0.28490261071525
                0.5215   0.015194859206082
 s    8 1.00
                  6665  -0.00029326965268655
                  1000  -0.0023180354739745
                   228  -0.011499786038565
                 64.71  -0.046826727009787
                 21.06   -0.12846616875047
                 7.495   -0.30126627246289
                 2.797   -0.25563070233011
                0.5215      1.093793361012
 s    1 1.00
                0.1596                   1
 p    3 1.00
                 9.439   0.056979251590039
                 2.002    0.31320721150073
                0.5456    0.76037674173753
 p    1 1.00
                0.1517                   1
 d    1 1.00
                  0.55                   1

22 0
 s    3 1.00
                 13.01   0.033498726389998
                 1.962    0.23480080117413
                0.4446     0.8136829578829
 s    1 1.00
                 0.122                   1
 p    1 1.00
                 0.727                   1

23 0
 s    3 1.00
                 13.01   0.033498726389998
                 1.962    0.23480080117413
                0.4446     0.8136829578829
 s    1 1.00
                 0.122                   1
 p    1 1.00
                 0.727                   1

24 0
 s    3 1.00
                 13.01   0.033498726389998
                 1.962    0.23480080117413
                0.4446     0.8136829578829
 s    1 1.00
                 0.122                   1
 p    1 1.00
                 0.727                   1

25 0
 s    8 1.00
                  6665  0.00069158396281299
                  1000  0.0053257961529341
                   228   0.027060721042034
                 64.71    0.10165684614077
                 21.06     0.2745748236174
                 7.495    0.44829431892377
                 2.797    0.28490261071525
                0.5215   0.015194859206082
 s    8 1.00
                  6665  -0.00029326965268655
                  1000  -0.0023180354739745
                   228  -0.011499786038565
                 64.71  -0.046826727009787
                 21.06   -0.12846616875047
                 7.495   -0.30126627246289
                 2.797   -0.25563070233011
                0.5215      1.093793361012
 s    1 1.00
                0.1596                   1
 p    3 1.00
                 9.439   0.056979251590039
                 2.002    0.31320721150073
                0.5456    0.76037674173753
 p    1 1.00
                0.1517                   1
 d    1 1.00
                  0.55                   1

26 0
 s    3 1.00
                 13.01   0.033498726389998
                 1.962    0.23480080117413
                0.4446     0.8136829578829
 s    1 1.00
                 0.122                   1
 p    1 1.00
                 0.727                   1

27 0
 s    3 1.00
                 13.01   0.033498726389998
                 1.962    0.23480080117413
                0.4446     0.8136829578829
 s    1 1.00
                 0.122                   1
 p    1 1.00
                 0.727                   1

28 0
 s    8 1.00
                  6665  0.00069158396281299
                  1000  0.0053257961529341
                   228   0.027060721042034
                 64.71    0.10165684614077
                 21.06     0.2745748236174
                 7.495    0.44829431892377
                 2.797    0.28490261071525
                0.5215   0.015194859206082
 s    8 1.00
                  6665  -0.00029326965268655
                  1000  -0.0023180354739745
                   228  -0.011499786038565
                 64.71  -0.046826727009787
                 21.06   -0.12846616875047
                 7.495   -0.30126627246289
                 2.797   -0.25563070233011
                0.5215      1.093793361012
 s    1 1.00
                0.1596                   1
 p    3 1.00
                 9.439   0.056979251590039
                 2.002    0.31320721150073
                0.5456    0.76037674173753
 p    1 1.00
                0.1517                   1
 d    1 1.00
                  0.55                   1

29 0
 s    3 1.00
                 13.01   0.033498726389998
                 1.962    0.23480080117413
                0.4446     0.8136829578829
 s    1 1.00
                 0.122                   1
 p    1 1.00
                 0.727                   1

30 0
 s    3 1.00
                 13.01   0.033498726389998
                 1.962    0.23480080117413
                0.4446     0.8136829578829
 s    1 1.00
                 0.122                   1
 p    1 1.00
                 0.727                   1

31 0
 s    8 1.00
                  6665  0.00069158396281299
                  1000  0.0053257961529341
                   228   0.027060721042034
                 64.71    0.10165684614077
                 21.06     0.2745748236174
                 7.495    0.44829431892377
                 2.797    0.28490261071525
                0.5215   0.015194859206082
 s    8 1.00
                  6665  -0.00029326965268655
                  1000  -0.0023180354739745
                   228  -0.011499786038565
                 64.71  -0.046826727009787
                 21.06   -0.12846616875047
                 7.495   -0.30126627246289
                 2.797   -0.25563070233011
                0.5215      1.093793361012
 s    1 1.00
                0.1596                   1
 p    3 1.00
                 9.439   0.056979251590039
                 2.002    0.31320721150073
                0.5456    0.76037674173753
 p    1 1.00
                0.1517                   1
 d    1 1.00
                  0.55                   1

32 0
 s    3 1.00
                 13.01   0.033498726389998
                 1.962    0.23480080117413
                0.4446     0.8136829578829
 s    1 1.00
                 0.122                   1
 p    1 1.00
                 0.727                   1

33 0
 s    3 1.00
                 13.01   0.033498726389998
                 1.962    0.23480080117413
                0.4446     0.8136829578829
 s    1 1.00
                 0.122                   1
 p    1 1.00
                 0.727                   1

34 0
 s    3 1.00
                 13.01   0.033498726389998
                 1.962    0.23480080117413
                0.4446     0.8136829578829
 s    1 1.00
                 0.122                   1
 p    1 1.00
                 0.727                   1

35 0
 s    3 1.00
                 13.01   0.033498726389998
                 1.962    0.23480080117413
                0.4446     0.8136829578829
 s    1 1.00
                 0.122                   1
 p    1 1.00
                 0.727                   1

36 0
 s    3 1.00
                 13.01   0.033498726389998
                 1.962    0.23480080117413
                0.4446     0.8136829578829
 s    1 1.00
                 0.122                   1
 p    1 1.00
                 0.727                   1

37 0
 s    3 1.00
                 13.01   0.033498726389998
                 1.962    0.23480080117413
                0.4446     0.8136829578829
 s    1 1.00
                 0.122                   1
 p    1 1.00
                 0.727                   1

[5d]
[7f]
[9g]

[MO]
 Sym= A
 Ene=               0
 Spin= Alpha
 Occup=    1.00000
   1    -5.1608298863428e-05
   2    -3.5690761942846e-05
   3    0.00011892039767015
   4    -8.9800232195359e-08
   5    4.7773349003668e-06
   6    3.9827225222496e-06
   7    5.857382015973e-07
   8    -2.3307259541611e-05
   9    -8.1571986964569e-05
  10    1.2763207560561e-05
  11    -1.373867904806e-09
  12    -7.8546167301126e-07
  13    4.1391143706401e-07
  14    1.7303100204103e-08
  15    -1.5473531522095e-05
  16    -0.0001729998903472
  17    -1.305343244955e-07
  18    1.532743258839e-06
  19    -3.2974352909683e-05
  20    -7.518730598456e-06
  21    6.4620058221459e-05
  22    1.820042388381e-07
  23    -5.7185777689074e-06
  24    2.5420131739244e-06
  25       1.0013660737281
  26     0.001960533859313
  27    -0.0068260572319181
  28    -4.7824786838149e-06
  29    8.6709859157312e-06
  30    -0.001652474371042
  31    -2.8423482840259e-07
  32    -1.6496339707079e-06
  33    0.0018543351065129
  34    0.00012284202947215
  35    -2.94608573383e-06
  36    1.3845425985969e-06
  37    6.7336867238176e-05
  38    -0.00017533248600697
  39    0.00027721279948406
  40    0.00037992406971685
  41    0.0014413096560978
  42    1.5284531274988e-05
  43    -9.9571964161346e-06
  44    -1.7850884180858e-06
  45    8.1616110397153e-05
  46    -6.3893559051847e-05
  47     0.003577480754777
  48    -0.00052831162771308
  49    -8.3971999895906e-06
  50    2.4840502560815e-06
  51    2.9045625497216e-05
  52    -0.00010811442079568
  53    -8.4898021961631e-05
  54    -0.0001660812313047
  55    0.0013738749199478
  56    7.8226528686781e-05
  57    -7.4180157401464e-06
  58    -3.5630349930532e-05
  59    -0.00042406764561463
  60    0.0004778628953301
  61    -0.00093740211198701
  62    -0.00011723413614071
  63    0.00015003622275456
  64    -0.00014296758596013
  65    5.4892486690463e-05
  66    -0.0001293553499392
  67    -3.9850562655941e-05
  68    -9.7648784285218e-05
  69    0.00051266973693561
  70    -6.1150169075625e-05
  71    4.0183410574651e-05
  72    -6.2452884287183e-05
  73    0.0010042556692316
  74    -0.00077262250048161
  75    -0.00064281421740246
  76    -0.0001406532531112
  77    -0.00012085771658488
  78    8.9704782489891e-05
  79    5.8820956773477e-05
  80    -0.00015139196505946
  81    -6.3374243129544e-05
  82    0.00020893932652701
  83    6.6230144371198e-05
  84    -4.8667574398818e-05
  85    4.8605477106187e-05
  86    2.5029959361039e-05
  87    4.9011880442258e-05
  88    -0.00060926253105653
  89    -1.5803409747195e-05
  90    -1.7125971636166e-05
  91    1.1888046934412e-05
  92    0.00025778838546531
  93    0.00063056161081818
  94    -1.7118015850245e-05
  95    1.8257017361571e-05
  96    1.1261223713488e-05
  97    7.4447739647566e-06
  98    -2.0362671510942e-05
  99    -4.6271826569879e-05
 100    -3.8073206129766e-05
 101    -0.00015965185667265
 102    8.6283134579446e-06
 103    -1.0011090259071e-05
 104    7.504969875951e-05
 105    -1.8292019581353e-05
 106    -0.00020213439750304
 107    -6.4281676500785e-05
 108    1.0458560690936e-05
 109    7.4959253219244e-05
 110    7.7405961990832e-05
 111    -6.0712462498053e-05
 112    -4.5176799526425e-05
 113    1.8841639263241e-05
 114    6.9977995990664e-05
 115    -4.9309487291706e-05
 116    -0.00010035856118126
 117    0.00084339970992052
 118    -2.5681703060576e-05
 119    -1.0297277092963e-05
 120    3.2503846202891e-05
 121    0.00029219223005664
 122    3.1612022182462e-05
 123    -0.00014214573103667
 124    -6.3561981535424e-06
 125    1.2075210864714e-05
 126    1.5419349364314e-05
 127    -3.2094603588848e-05
 128    5.0005324374503e-05
 129    -1.9225875796157e-05
 130    -0.00032524557225622
 131    7.640429870694e-06
 132    5.8982344169232e-06
 133    2.9290142794587e-05
 134    2.5879345376399e-05
 135    -0.00011800255847012
 136    -1.3531143056372e-05
 137    -2.4358026563893e-05
 138    -2.6769445797423e-05
 139    -2.1329293690185e-05
 140    -3.8882898005703e-05
 141    0.00029107212102405
 142    7.8815957880319e-06
 143    -2.5936582497408e-06
 144    -6.1290656098848e-06
 145    -0.00023021227969096
 146    5.3609790815872e-05
 147    6.3047578528671e-05
 148    -2.4308493751904e-06
 149    3.091072337039e-06
 150    -3.7203496395376e-06
 151    1.2103066886353e-05
 152    -4.9201505734589e-06
 153    -9.6785265675272e-05
 154    -0.00010753923196568
 155    -2.615595854466e-05
 156    2.9251855413184e-05
 157    1.9894125511417e-05
 158    -2.5725418420528e-05
 159    -8.8836475996207e-05
 160    -5.9263069870609e-05
 161    -7.1458348195712e-06
 162    6.3827752872182e-06
 163    4.4978269948042e-07
 164    -6.6051344156452e-06
 165    -0.00024576369046062
 166    -1.716840071019e-05
 167    1.3434595680343e-05
 168    6.824912648125e-06
 169    0.00023650019390818
 170    -0.00021187229322047
 171    -0.00013387753273878
 172    -2.7301717084306e-06
 173    1.0111714152366e-05
 174    -1.3601993200265e-05
 175    3.2131770224822e-06
 176    -1.8015695501117e-05
 177    -1.6069140816139e-05
 178    8.4293012196389e-05
 179    -8.7697642178527e-07
 180    1.9041079583528e-06
 181    -4.9112843159827e-06
 182    2.1214864673512e-05
 183     2.77195182045e-05
 184    -6.8273957255427e-05
 185    -4.5689946653493e-06
 186    3.6560102191315e-06
 187    5.322490518354e-06
 188    0.00012771480220493
 189    -0.00010209756269252
 190    -8.6138503162331e-05
 191    1.2734560541521e-06
 192    2.0352680482489e-06
 193    -7.6472189146225e-06
 194    -3.0386189526343e-06
 195    -5.2292212711405e-06
 196    -1.3673132826915e-05
 197    -1.8759390975751e-05
 198    5.648291684779e-06
 199    1.9491378924743e-06
 200    -3.4813439660188e-06
 201    -1.3618849237785e-05
 202    3.4175292776486e-06
 203    -1.3115850245277e-05
 204    9.9231374274395e-06
 205    1.1747424332044e-05
 206    7.6255148108176e-06
 207    6.793090581573e-05
 208    -1.6074588141955e-05
 209    3.9893820417511e-06
 210    1.5607039611882e-05
 211    6.436546519308e-06
 212    -3.5514602217268e-05
 213    0.00025391061863468
 214    5.9617946446374e-06
 215    -4.8555215096008e-06
 216    -5.0715629761567e-06
 217    0.00019590024826342
 218    -5.4835282400884e-05
 219    -7.6442386214978e-05
 220    -2.0007908731636e-06
 221    -1.6679504359056e-05
 222    5.8169903904536e-06
 223    9.3611343744594e-06
 224    -1.4141348635504e-06
 225     2.57714916892e-05
 226    5.4639491318219e-05
 227    -1.2329226239377e-05
 228    -1.9623832726623e-06
 229    -9.9653872873731e-07
 230    1.0008931109656e-05
 231    5.4357935052204e-05
 232    -3.9710418309212e-06
 233    6.330582477105e-06
 234    1.2019665774846e-05
 235    3.2686263774951e-06
 236    1.953522360156e-06
 237    -7.7825339860185e-05
 238    2.6627061250164e-06
 239    2.6150839867929e-06
 240    -4.2961106622523e-06
 241    3.571350323799e-05
 242    -6.257243599561e-05
 243    1.7610506469201e-05
 244    1.9124672793042e-06
 245    1.7897194949516e-06
 246    -1.9417540426707e-06
 247    1.6451908398965e-07
 248    9.4059546803346e-07
 249    -2.0219514872859e-05
 250    1.232827662994e-05
 251    -4.4289811787921e-06
 252    -7.1393128110985e-07
 253    1.2342308475748e-07
 254    -1.667985175096e-05
 255    5.5668758268278e-05
 256    -6.7968443254235e-08
 257    4.2237781548059e-06
 258    -8.4035994388157e-07
 259    -2.1252003558173e-05
 260    -2.7780991593539e-05
 261    7.3839210745375e-05
 262    -7.8542421242097e-06