[Molden Format]
made by pyscf v[2.0.1]
[Atoms] (AU)
O   1   8     0.00000000000000     0.00000000000000     8.67407923598948
H   2   1     0.00000000000000     0.00000000000000     6.85067741408852
H   3   1    -0.05031916615174     1.78353065140343     9.04995093245615
O   4   8     0.00000000000000     0.00000000000000     2.31533471513237
C   5   6     0.00000000000000     0.00000000000000     0.00000000000000
C   6   6     2.01118073026938    -1.40227222164369    -1.50774939176400
C   7   6    -2.01249334291722     1.41331050329955    -1.50315905028694
H   8   1     3.32037363730244    -2.26721897153159    -0.13599698591495
C   9   6     3.45899267434009     0.28739631745591    -3.37437943254505
H   10   1     1.07662969841332    -2.94725144642667    -2.56541439481080
H   11   1    -2.67503415753480     0.18421555839588    -3.06194479365997
H   12   1    -1.07974048864772     3.03851734677796    -2.43674295017013
C   13   6    -4.21607110578555     2.32938802552922     0.11994162256091
H   14   1     4.24440173074564     1.93368664142019    -2.34976285512790
H   15   1     2.15020713235517     1.04714335134846    -4.81494497423699
C   16   6     5.60746363007797    -1.12419643481196    -4.70268606082550
H   17   1    -3.46838323670267     3.50951302338067     1.66946842715333
H   18   1    -5.11873485366228     0.68575958301209     1.04047743976495
C   19   6    -6.18314754751344     3.80909592987882    -1.39656589068747
H   20   1     6.93011263717176    -1.87550812453645    -3.26656317360070
C   21   6     7.06356622236532     0.52877932406334    -6.57829775293605
H   22   1     4.82318879258361    -2.78573437948532    -5.70504560381835
H   23   1    -6.91582688743803     2.61304780074712    -2.95074552451969
H   24   1    -5.26532430573853     5.45420349051338    -2.31005832200284
C   25   6    -8.39941882261433     4.73263980500213     0.21800571437956
H   26   1     7.83338371486801     2.19084139882824    -5.57093109900697
H   27   1     5.73544244039420     1.27376866537418    -8.01071492370229
C   28   6     9.21124858443101    -0.89699110072176    -7.88926949186242
H   29   1    -7.66272760055236     5.92277078003992     1.77035591474408
H   30   1    -9.31497248082589     3.08753015622020     1.12614408368786
C   31   6   -10.35481709231879     6.21833079391143    -1.30905206253246
H   32   1    10.58815905329501    -1.61074586756696    -6.49512691622620
H   33   1    10.23506248045667     0.32468009384095    -9.23072870921204
H   34   1     8.47665842847139    -2.53598436989925    -8.94921964622535
H   35   1    -9.48948872868064     7.90013588951020    -2.18823918416067
H   36   1   -11.93332513000955     6.86460487874102    -0.11255798845995
H   37   1   -11.15126291841033     5.04495968327630    -2.83849898862534
[GTO]
1 0
 s    8 1.00
                 11720  0.00070964594651845
                  1759  0.0054672722921914
                 400.8   0.027823118610189
                 113.7    0.10474773971146
                 37.03    0.28292084635691
                 13.27    0.44849523869833
                 5.025    0.27081688521277
                 1.013    0.01545029160744
 s    8 1.00
                 11720  -0.00031444341168873
                  1759  -0.0024821376810179
                 400.8  -0.012316355381583
                 113.7  -0.050538917343672
                 37.03   -0.13938490331632
                 13.27   -0.32507749481778
                 5.025   -0.22984830758785
                 1.013     1.0953793467883
 s    1 1.00
                0.3023                   1
 p    3 1.00
                  17.7   0.062679166281506
                 3.854    0.33353656587936
                 1.046    0.74123964163973
 p    1 1.00
                0.2753                   1
 d    1 1.00
                 1.185                   1

2 0
 s    3 1.00
                 13.01   0.033498726389998
                 1.962    0.23480080117413
                0.4446     0.8136829578829
 s    1 1.00
                 0.122                   1
 p    1 1.00
                 0.727                   1

3 0
 s    3 1.00
                 13.01   0.033498726389998
                 1.962    0.23480080117413
                0.4446     0.8136829578829
 s    1 1.00
                 0.122                   1
 p    1 1.00
                 0.727                   1

4 0
 s    8 1.00
                 11720  0.00070964594651845
                  1759  0.0054672722921914
                 400.8   0.027823118610189
                 113.7    0.10474773971146
                 37.03    0.28292084635691
                 13.27    0.44849523869833
                 5.025    0.27081688521277
                 1.013    0.01545029160744
 s    8 1.00
                 11720  -0.00031444341168873
                  1759  -0.0024821376810179
                 400.8  -0.012316355381583
                 113.7  -0.050538917343672
                 37.03   -0.13938490331632
                 13.27   -0.32507749481778
                 5.025   -0.22984830758785
                 1.013     1.0953793467883
 s    1 1.00
                0.3023                   1
 p    3 1.00
                  17.7   0.062679166281506
                 3.854    0.33353656587936
                 1.046    0.74123964163973
 p    1 1.00
                0.2753                   1
 d    1 1.00
                 1.185                   1

5 0
 s    8 1.00
                  6665  0.00069158396281299
                  1000  0.0053257961529341
                   228   0.027060721042034
                 64.71    0.10165684614077
                 21.06     0.2745748236174
                 7.495    0.44829431892377
                 2.797    0.28490261071525
                0.5215   0.015194859206082
 s    8 1.00
                  6665  -0.00029326965268655
                  1000  -0.0023180354739745
                   228  -0.011499786038565
                 64.71  -0.046826727009787
                 21.06   -0.12846616875047
                 7.495   -0.30126627246289
                 2.797   -0.25563070233011
                0.5215      1.093793361012
 s    1 1.00
                0.1596                   1
 p    3 1.00
                 9.439   0.056979251590039
                 2.002    0.31320721150073
                0.5456    0.76037674173753
 p    1 1.00
                0.1517                   1
 d    1 1.00
                  0.55                   1

6 0
 s    8 1.00
                  6665  0.00069158396281299
                  1000  0.0053257961529341
                   228   0.027060721042034
                 64.71    0.10165684614077
                 21.06     0.2745748236174
                 7.495    0.44829431892377
                 2.797    0.28490261071525
                0.5215   0.015194859206082
 s    8 1.00
                  6665  -0.00029326965268655
                  1000  -0.0023180354739745
                   228  -0.011499786038565
                 64.71  -0.046826727009787
                 21.06   -0.12846616875047
                 7.495   -0.30126627246289
                 2.797   -0.25563070233011
                0.5215      1.093793361012
 s    1 1.00
                0.1596                   1
 p    3 1.00
                 9.439   0.056979251590039
                 2.002    0.31320721150073
                0.5456    0.76037674173753
 p    1 1.00
                0.1517                   1
 d    1 1.00
                  0.55                   1

7 0
 s    8 1.00
                  6665  0.00069158396281299
                  1000  0.0053257961529341
                   228   0.027060721042034
                 64.71    0.10165684614077
                 21.06     0.2745748236174
                 7.495    0.44829431892377
                 2.797    0.28490261071525
                0.5215   0.015194859206082
 s    8 1.00
                  6665  -0.00029326965268655
                  1000  -0.0023180354739745
                   228  -0.011499786038565
                 64.71  -0.046826727009787
                 21.06   -0.12846616875047
                 7.495   -0.30126627246289
                 2.797   -0.25563070233011
                0.5215      1.093793361012
 s    1 1.00
                0.1596                   1
 p    3 1.00
                 9.439   0.056979251590039
                 2.002    0.31320721150073
                0.5456    0.76037674173753
 p    1 1.00
                0.1517                   1
 d    1 1.00
                  0.55                   1

8 0
 s    3 1.00
                 13.01   0.033498726389998
                 1.962    0.23480080117413
                0.4446     0.8136829578829
 s    1 1.00
                 0.122                   1
 p    1 1.00
                 0.727                   1

9 0
 s    8 1.00
                  6665  0.00069158396281299
                  1000  0.0053257961529341
                   228   0.027060721042034
                 64.71    0.10165684614077
                 21.06     0.2745748236174
                 7.495    0.44829431892377
                 2.797    0.28490261071525
                0.5215   0.015194859206082
 s    8 1.00
                  6665  -0.00029326965268655
                  1000  -0.0023180354739745
                   228  -0.011499786038565
                 64.71  -0.046826727009787
                 21.06   -0.12846616875047
                 7.495   -0.30126627246289
                 2.797   -0.25563070233011
                0.5215      1.093793361012
 s    1 1.00
                0.1596                   1
 p    3 1.00
                 9.439   0.056979251590039
                 2.002    0.31320721150073
                0.5456    0.76037674173753
 p    1 1.00
                0.1517                   1
 d    1 1.00
                  0.55                   1

10 0
 s    3 1.00
                 13.01   0.033498726389998
                 1.962    0.23480080117413
                0.4446     0.8136829578829
 s    1 1.00
                 0.122                   1
 p    1 1.00
                 0.727                   1

11 0
 s    3 1.00
                 13.01   0.033498726389998
                 1.962    0.23480080117413
                0.4446     0.8136829578829
 s    1 1.00
                 0.122                   1
 p    1 1.00
                 0.727                   1

12 0
 s    3 1.00
                 13.01   0.033498726389998
                 1.962    0.23480080117413
                0.4446     0.8136829578829
 s    1 1.00
                 0.122                   1
 p    1 1.00
                 0.727                   1

13 0
 s    8 1.00
                  6665  0.00069158396281299
                  1000  0.0053257961529341
                   228   0.027060721042034
                 64.71    0.10165684614077
                 21.06     0.2745748236174
                 7.495    0.44829431892377
                 2.797    0.28490261071525
                0.5215   0.015194859206082
 s    8 1.00
                  6665  -0.00029326965268655
                  1000  -0.0023180354739745
                   228  -0.011499786038565
                 64.71  -0.046826727009787
                 21.06   -0.12846616875047
                 7.495   -0.30126627246289
                 2.797   -0.25563070233011
                0.5215      1.093793361012
 s    1 1.00
                0.1596                   1
 p    3 1.00
                 9.439   0.056979251590039
                 2.002    0.31320721150073
                0.5456    0.76037674173753
 p    1 1.00
                0.1517                   1
 d    1 1.00
                  0.55                   1

14 0
 s    3 1.00
                 13.01   0.033498726389998
                 1.962    0.23480080117413
                0.4446     0.8136829578829
 s    1 1.00
                 0.122                   1
 p    1 1.00
                 0.727                   1

15 0
 s    3 1.00
                 13.01   0.033498726389998
                 1.962    0.23480080117413
                0.4446     0.8136829578829
 s    1 1.00
                 0.122                   1
 p    1 1.00
                 0.727                   1

16 0
 s    8 1.00
                  6665  0.00069158396281299
                  1000  0.0053257961529341
                   228   0.027060721042034
                 64.71    0.10165684614077
                 21.06     0.2745748236174
                 7.495    0.44829431892377
                 2.797    0.28490261071525
                0.5215   0.015194859206082
 s    8 1.00
                  6665  -0.00029326965268655
                  1000  -0.0023180354739745
                   228  -0.011499786038565
                 64.71  -0.046826727009787
                 21.06   -0.12846616875047
                 7.495   -0.30126627246289
                 2.797   -0.25563070233011
                0.5215      1.093793361012
 s    1 1.00
                0.1596                   1
 p    3 1.00
                 9.439   0.056979251590039
                 2.002    0.31320721150073
                0.5456    0.76037674173753
 p    1 1.00
                0.1517                   1
 d    1 1.00
                  0.55                   1

17 0
 s    3 1.00
                 13.01   0.033498726389998
                 1.962    0.23480080117413
                0.4446     0.8136829578829
 s    1 1.00
                 0.122                   1
 p    1 1.00
                 0.727                   1

18 0
 s    3 1.00
                 13.01   0.033498726389998
                 1.962    0.23480080117413
                0.4446     0.8136829578829
 s    1 1.00
                 0.122                   1
 p    1 1.00
                 0.727                   1

19 0
 s    8 1.00
                  6665  0.00069158396281299
                  1000  0.0053257961529341
                   228   0.027060721042034
                 64.71    0.10165684614077
                 21.06     0.2745748236174
                 7.495    0.44829431892377
                 2.797    0.28490261071525
                0.5215   0.015194859206082
 s    8 1.00
                  6665  -0.00029326965268655
                  1000  -0.0023180354739745
                   228  -0.011499786038565
                 64.71  -0.046826727009787
                 21.06   -0.12846616875047
                 7.495   -0.30126627246289
                 2.797   -0.25563070233011
                0.5215      1.093793361012
 s    1 1.00
                0.1596                   1
 p    3 1.00
                 9.439   0.056979251590039
                 2.002    0.31320721150073
                0.5456    0.76037674173753
 p    1 1.00
                0.1517                   1
 d    1 1.00
                  0.55                   1

20 0
 s    3 1.00
                 13.01   0.033498726389998
                 1.962    0.23480080117413
                0.4446     0.8136829578829
 s    1 1.00
                 0.122                   1
 p    1 1.00
                 0.727                   1

21 0
 s    8 1.00
                  6665  0.00069158396281299
                  1000  0.0053257961529341
                   228   0.027060721042034
                 64.71    0.10165684614077
                 21.06     0.2745748236174
                 7.495    0.44829431892377
                 2.797    0.28490261071525
                0.5215   0.015194859206082
 s    8 1.00
                  6665  -0.00029326965268655
                  1000  -0.0023180354739745
                   228  -0.011499786038565
                 64.71  -0.046826727009787
                 21.06   -0.12846616875047
                 7.495   -0.30126627246289
                 2.797   -0.25563070233011
                0.5215      1.093793361012
 s    1 1.00
                0.1596                   1
 p    3 1.00
                 9.439   0.056979251590039
                 2.002    0.31320721150073
                0.5456    0.76037674173753
 p    1 1.00
                0.1517                   1
 d    1 1.00
                  0.55                   1

22 0
 s    3 1.00
                 13.01   0.033498726389998
                 1.962    0.23480080117413
                0.4446     0.8136829578829
 s    1 1.00
                 0.122                   1
 p    1 1.00
                 0.727                   1

23 0
 s    3 1.00
                 13.01   0.033498726389998
                 1.962    0.23480080117413
                0.4446     0.8136829578829
 s    1 1.00
                 0.122                   1
 p    1 1.00
                 0.727                   1

24 0
 s    3 1.00
                 13.01   0.033498726389998
                 1.962    0.23480080117413
                0.4446     0.8136829578829
 s    1 1.00
                 0.122                   1
 p    1 1.00
                 0.727                   1

25 0
 s    8 1.00
                  6665  0.00069158396281299
                  1000  0.0053257961529341
                   228   0.027060721042034
                 64.71    0.10165684614077
                 21.06     0.2745748236174
                 7.495    0.44829431892377
                 2.797    0.28490261071525
                0.5215   0.015194859206082
 s    8 1.00
                  6665  -0.00029326965268655
                  1000  -0.0023180354739745
                   228  -0.011499786038565
                 64.71  -0.046826727009787
                 21.06   -0.12846616875047
                 7.495   -0.30126627246289
                 2.797   -0.25563070233011
                0.5215      1.093793361012
 s    1 1.00
                0.1596                   1
 p    3 1.00
                 9.439   0.056979251590039
                 2.002    0.31320721150073
                0.5456    0.76037674173753
 p    1 1.00
                0.1517                   1
 d    1 1.00
                  0.55                   1

26 0
 s    3 1.00
                 13.01   0.033498726389998
                 1.962    0.23480080117413
                0.4446     0.8136829578829
 s    1 1.00
                 0.122                   1
 p    1 1.00
                 0.727                   1

27 0
 s    3 1.00
                 13.01   0.033498726389998
                 1.962    0.23480080117413
                0.4446     0.8136829578829
 s    1 1.00
                 0.122                   1
 p    1 1.00
                 0.727                   1

28 0
 s    8 1.00
                  6665  0.00069158396281299
                  1000  0.0053257961529341
                   228   0.027060721042034
                 64.71    0.10165684614077
                 21.06     0.2745748236174
                 7.495    0.44829431892377
                 2.797    0.28490261071525
                0.5215   0.015194859206082
 s    8 1.00
                  6665  -0.00029326965268655
                  1000  -0.0023180354739745
                   228  -0.011499786038565
                 64.71  -0.046826727009787
                 21.06   -0.12846616875047
                 7.495   -0.30126627246289
                 2.797   -0.25563070233011
                0.5215      1.093793361012
 s    1 1.00
                0.1596                   1
 p    3 1.00
                 9.439   0.056979251590039
                 2.002    0.31320721150073
                0.5456    0.76037674173753
 p    1 1.00
                0.1517                   1
 d    1 1.00
                  0.55                   1

29 0
 s    3 1.00
                 13.01   0.033498726389998
                 1.962    0.23480080117413
                0.4446     0.8136829578829
 s    1 1.00
                 0.122                   1
 p    1 1.00
                 0.727                   1

30 0
 s    3 1.00
                 13.01   0.033498726389998
                 1.962    0.23480080117413
                0.4446     0.8136829578829
 s    1 1.00
                 0.122                   1
 p    1 1.00
                 0.727                   1

31 0
 s    8 1.00
                  6665  0.00069158396281299
                  1000  0.0053257961529341
                   228   0.027060721042034
                 64.71    0.10165684614077
                 21.06     0.2745748236174
                 7.495    0.44829431892377
                 2.797    0.28490261071525
                0.5215   0.015194859206082
 s    8 1.00
                  6665  -0.00029326965268655
                  1000  -0.0023180354739745
                   228  -0.011499786038565
                 64.71  -0.046826727009787
                 21.06   -0.12846616875047
                 7.495   -0.30126627246289
                 2.797   -0.25563070233011
                0.5215      1.093793361012
 s    1 1.00
                0.1596                   1
 p    3 1.00
                 9.439   0.056979251590039
                 2.002    0.31320721150073
                0.5456    0.76037674173753
 p    1 1.00
                0.1517                   1
 d    1 1.00
                  0.55                   1

32 0
 s    3 1.00
                 13.01   0.033498726389998
                 1.962    0.23480080117413
                0.4446     0.8136829578829
 s    1 1.00
                 0.122                   1
 p    1 1.00
                 0.727                   1

33 0
 s    3 1.00
                 13.01   0.033498726389998
                 1.962    0.23480080117413
                0.4446     0.8136829578829
 s    1 1.00
                 0.122                   1
 p    1 1.00
                 0.727                   1

34 0
 s    3 1.00
                 13.01   0.033498726389998
                 1.962    0.23480080117413
                0.4446     0.8136829578829
 s    1 1.00
                 0.122                   1
 p    1 1.00
                 0.727                   1

35 0
 s    3 1.00
                 13.01   0.033498726389998
                 1.962    0.23480080117413
                0.4446     0.8136829578829
 s    1 1.00
                 0.122                   1
 p    1 1.00
                 0.727                   1

36 0
 s    3 1.00
                 13.01   0.033498726389998
                 1.962    0.23480080117413
                0.4446     0.8136829578829
 s    1 1.00
                 0.122                   1
 p    1 1.00
                 0.727                   1

37 0
 s    3 1.00
                 13.01   0.033498726389998
                 1.962    0.23480080117413
                0.4446     0.8136829578829
 s    1 1.00
                 0.122                   1
 p    1 1.00
                 0.727                   1

[5d]
[7f]
[9g]

[MO]
 Sym= A
 Ene=               0
 Spin= Alpha
 Occup=    1.00000
   1    -7.3075998654261e-05
   2    -5.2606055714357e-05
   3    0.00013276633152076
   4    1.9072198882645e-08
   5    5.9387341001718e-06
   6    1.5769756966681e-05
   7    4.2675031732063e-07
   8    -2.5928058809138e-05
   9    -7.3513047697259e-05
  10    4.2452028131397e-06
  11    -9.8512271537148e-08
  12    3.6671010015949e-07
  13    5.7470771604945e-07
  14    1.0380662108308e-08
  15    -2.172979973262e-05
  16    -0.00021626254284525
  17    -4.0923745811078e-07
  18    2.2399854767048e-06
  19    1.4872067478139e-05
  20    -5.6448380858172e-06
  21    6.6792838267396e-05
  22    1.5008585492358e-07
  23    -2.5534470437629e-06
  24    -2.9329984198567e-07
  25       1.0013773466078
  26    0.0019863354020773
  27    -0.0069238283771936
  28    -5.0496629879772e-06
  29    1.0556393318583e-05
  30    -0.0016411625767184
  31    -9.229793924787e-07
  32    -2.0978405087404e-06
  33     0.001935374705637
  34    0.0001122379155284
  35    -2.8472644785201e-06
  36    1.4882842036562e-06
  37    6.6621342553672e-05
  38    -0.00017342770228889
  39    0.00028766367123977
  40    0.00040173147841578
  41    0.0015145121518298
  42    1.5980151610474e-05
  43    -1.0129459101813e-05
  44    1.9574894818679e-05
  45    8.8644855424679e-05
  46    -6.9584240954576e-05
  47    0.0036575885148201
  48    -0.00050969408895487
  49    -8.5838106295237e-06
  50    2.8831534480211e-06
  51    2.9838146638259e-05
  52    -0.00011012440263793
  53    -8.427569847218e-05
  54    -0.0001647214412927
  55    0.0013823862807409
  56    7.8363805345834e-05
  57    -6.9046714714329e-06
  58    -3.4408343975611e-05
  59    -0.00042622941798543
  60    0.00048072957978096
  61    -0.00096954021501457
  62    -0.00011627082542601
  63    0.00014991808801467
  64    -0.00014331895016364
  65    5.4283372922992e-05
  66    -0.00012736288100327
  67    -3.9956300133853e-05
  68    -9.5314695796101e-05
  69    0.00053407157423296
  70    -6.3756727885097e-05
  71    4.1463711061407e-05
  72    -5.9664453362328e-05
  73     0.001013294642674
  74    -0.00078031366413615
  75    -0.00065348430350733
  76    -0.00014004883914081
  77    -0.0001207948276149
  78    8.9688960484758e-05
  79    5.8383123602535e-05
  80    -0.00015032213228925
  81    -5.9958524600851e-05
  82    0.00021500711014099
  83    6.6892210846685e-05
  84    -4.9107841936728e-05
  85    4.7516105120394e-05
  86    2.5133693995828e-05
  87    4.873651790746e-05
  88    -0.0006213205659629
  89    -1.6080036352378e-05
  90    -1.674629027138e-05
  91    1.1538803092925e-05
  92    0.00026076633194253
  93    0.00064613380589199
  94    -1.133509073043e-05
  95    1.8862641616702e-05
  96    1.1442315665268e-05
  97    7.883783246463e-06
  98    -1.9627061616288e-05
  99    -4.8032557260239e-05
 100    -4.0394236838442e-05
 101    -0.00016456575116798
 102    6.9222554696037e-06
 103    -1.0556004944047e-05
 104    7.6826202901379e-05
 105    -2.0603513002567e-05
 106    -0.00020706745364405
 107    -6.4030378694249e-05
 108    8.7754218785946e-06
 109    7.6102370986234e-05
 110    7.6536936334055e-05
 111    -6.595581091656e-05
 112    -4.4539224435167e-05
 113    1.9808115229441e-05
 114    7.1138907597197e-05
 115    -5.1238472001132e-05
 116    -9.7506979837352e-05
 117    0.0008462831851694
 118    -2.7223255905321e-05
 119    -7.6354588954963e-06
 120     3.44281281744e-05
 121    0.00028597403702876
 122    3.6633977652156e-05
 123    -0.00015200768642286
 124    -8.9280037809416e-06
 125    7.2780955076927e-06
 126    1.7722263454277e-05
 127    -3.1658542840523e-05
 128    5.0531679762619e-05
 129    -1.9895898029061e-05
 130    -0.00033476761306527
 131    7.981015696397e-06
 132    6.0120738905098e-06
 133    2.9563693287261e-05
 134    2.6002357633175e-05
 135    -0.00011710513563689
 136    -1.3716067459969e-05
 137    -2.5045642687057e-05
 138    -2.7358717253376e-05
 139    -2.1776877904843e-05
 140    -3.9468873584777e-05
 141    0.00030357339038035
 142    7.4197579117381e-06
 143    -2.5435960566441e-06
 144    -5.7453708423978e-06
 145    -0.00023051813833715
 146    5.8431705638136e-05
 147    5.9063223917478e-05
 148    -2.372845539421e-06
 149    3.8286544315608e-06
 150    -4.7100328260154e-06
 151    1.2031748673522e-05
 152    -5.0899633810402e-06
 153    -0.0001002747473419
 154    -0.0001059530320631
 155    -2.6703715696682e-05
 156    2.8447140285941e-05
 157    1.8977573048791e-05
 158    -3.0038816424568e-05
 159    -9.2619593042883e-05
 160    -5.9490499434104e-05
 161    -7.3661154218237e-06
 162    6.4535963950835e-06
 163    -7.6815063699017e-05
 164    -9.72140605433e-05
 165    -0.00030045458065676
 166    -3.632956061362e-05
 167    1.7483789027578e-05
 168    0.00011977507993889
 169    0.00022491668968595
 170    -0.00020932761112765
 171    -8.022872065941e-05
 172    -3.1333774488256e-06
 173    7.8630037417067e-06
 174    -1.4634568393426e-05
 175    6.4869889195321e-06
 176    -2.334789922312e-05
 177    -1.4921500252199e-05
 178    8.8265457386519e-05
 179    -1.0788792502124e-06
 180    1.7540018640759e-06
 181    -4.788737441499e-06
 182    1.8012535775025e-05
 183    2.1383021604066e-05
 184    -8.3485895219983e-05
 185    -2.3321652216968e-05
 186    1.3287308708796e-05
 187    4.9825958657589e-06
 188    0.00012100386323091
 189    -9.6208008442715e-05
 190    -8.9910841526512e-05
 191    1.6357507113997e-06
 192    3.5340341653638e-06
 193    -8.5867889211956e-06
 194    -3.0048309382512e-06
 195    -4.9992436902797e-06
 196    -1.3438394167948e-05
 197    -1.9639738246403e-05
 198    5.6820912735455e-06
 199    1.9317322575432e-06
 200    -3.2358803628387e-06
 201    -0.00013121321616581
 202    -3.490905995559e-05
 203    -1.8354394816209e-05
 204    2.573398811431e-06
 205    5.3934074721681e-06
 206    -8.6842786972006e-05
 207    4.075826817888e-05
 208    -1.177253446592e-05
 209    1.2515037824456e-05
 210    1.4340140180079e-05
 211    -9.9852327300387e-06
 212    -3.0767013693006e-05
 213    0.00026531300597528
 214    3.5658829246234e-05
 215    -1.3085463928148e-05
 216    -2.2244480777067e-05
 217    0.00020882331849515
 218    -5.7299678635833e-05
 219    -8.8034951271363e-05
 220    -4.1160114248526e-06
 221    -1.4109393239032e-05
 222     4.39819358645e-06
 223    1.0057896655335e-05
 224    -2.7571002833535e-06
 225    2.2802215309426e-05
 226    5.5031950456513e-05
 227    -1.2829861723434e-05
 228    -1.5537081403637e-06
 229    -8.4435754607545e-07
 230    2.1362763977403e-05
 231    6.0689040170712e-05
 232    -4.002672441256e-06
 233    6.3098178112552e-06
 234    1.2642620474222e-05
 235    5.4526826382244e-06
 236    -5.534865406521e-06
 237    -8.3285097121641e-05
 238    1.8542119411037e-05
 239    -4.9195929489029e-06
 240    -1.0895524174042e-05
 241    4.3555392628199e-05
 242    -6.6533868770599e-05
 243    1.5234777223263e-05
 244    2.0430952920157e-06
 245     2.96182467877e-06
 246    -2.9014477374988e-06
 247    4.3498275914118e-08
 248    1.5784620198563e-06
 249    -2.8490153659325e-05
 250    1.0773872412207e-06
 251    -3.3464740083597e-06
 252    -5.2545969095571e-07
 253    -1.7936531966455e-08
 254    -2.9441214436101e-05
 255    4.7002350120625e-05
 256    4.4809721365822e-07
 257    3.0134482567327e-06
 258    -1.0596038132776e-06
 259    -2.9827341464605e-06
 260    -1.6442993955609e-05
 261    8.1209823357156e-05
 262    -6.4930993861177e-06