[Molden Format]
made by pyscf v[2.0.1]
[Atoms] (AU)
O   1   8     0.00000000000000     0.00000000000000     9.42996968581551
H   2   1     0.00000000000000     0.00000000000000     7.60656786391454
H   3   1    -0.05031916615174     1.78353065140343     9.80584138228218
O   4   8     0.00000000000000     0.00000000000000     2.31533471513237
C   5   6     0.00000000000000     0.00000000000000     0.00000000000000
C   6   6     2.01118073026938    -1.40227222164369    -1.50774939176400
C   7   6    -2.01249334291722     1.41331050329955    -1.50315905028694
H   8   1     3.32037363730244    -2.26721897153159    -0.13599698591495
C   9   6     3.45899267434009     0.28739631745591    -3.37437943254505
H   10   1     1.07662969841332    -2.94725144642667    -2.56541439481080
H   11   1    -2.67503415753480     0.18421555839588    -3.06194479365997
H   12   1    -1.07974048864772     3.03851734677796    -2.43674295017013
C   13   6    -4.21607110578555     2.32938802552922     0.11994162256091
H   14   1     4.24440173074564     1.93368664142019    -2.34976285512790
H   15   1     2.15020713235517     1.04714335134846    -4.81494497423699
C   16   6     5.60746363007797    -1.12419643481196    -4.70268606082550
H   17   1    -3.46838323670267     3.50951302338067     1.66946842715333
H   18   1    -5.11873485366228     0.68575958301209     1.04047743976495
C   19   6    -6.18314754751344     3.80909592987882    -1.39656589068747
H   20   1     6.93011263717176    -1.87550812453645    -3.26656317360070
C   21   6     7.06356622236532     0.52877932406334    -6.57829775293605
H   22   1     4.82318879258361    -2.78573437948532    -5.70504560381835
H   23   1    -6.91582688743803     2.61304780074712    -2.95074552451969
H   24   1    -5.26532430573853     5.45420349051338    -2.31005832200284
C   25   6    -8.39941882261433     4.73263980500213     0.21800571437956
H   26   1     7.83338371486801     2.19084139882824    -5.57093109900697
H   27   1     5.73544244039420     1.27376866537418    -8.01071492370229
C   28   6     9.21124858443101    -0.89699110072176    -7.88926949186242
H   29   1    -7.66272760055236     5.92277078003992     1.77035591474408
H   30   1    -9.31497248082589     3.08753015622020     1.12614408368786
C   31   6   -10.35481709231879     6.21833079391143    -1.30905206253246
H   32   1    10.58815905329501    -1.61074586756696    -6.49512691622620
H   33   1    10.23506248045667     0.32468009384095    -9.23072870921204
H   34   1     8.47665842847139    -2.53598436989925    -8.94921964622535
H   35   1    -9.48948872868064     7.90013588951020    -2.18823918416067
H   36   1   -11.93332513000955     6.86460487874102    -0.11255798845995
H   37   1   -11.15126291841033     5.04495968327630    -2.83849898862534
[GTO]
1 0
 s    8 1.00
                 11720  0.00070964594651845
                  1759  0.0054672722921914
                 400.8   0.027823118610189
                 113.7    0.10474773971146
                 37.03    0.28292084635691
                 13.27    0.44849523869833
                 5.025    0.27081688521277
                 1.013    0.01545029160744
 s    8 1.00
                 11720  -0.00031444341168873
                  1759  -0.0024821376810179
                 400.8  -0.012316355381583
                 113.7  -0.050538917343672
                 37.03   -0.13938490331632
                 13.27   -0.32507749481778
                 5.025   -0.22984830758785
                 1.013     1.0953793467883
 s    1 1.00
                0.3023                   1
 p    3 1.00
                  17.7   0.062679166281506
                 3.854    0.33353656587936
                 1.046    0.74123964163973
 p    1 1.00
                0.2753                   1
 d    1 1.00
                 1.185                   1

2 0
 s    3 1.00
                 13.01   0.033498726389998
                 1.962    0.23480080117413
                0.4446     0.8136829578829
 s    1 1.00
                 0.122                   1
 p    1 1.00
                 0.727                   1

3 0
 s    3 1.00
                 13.01   0.033498726389998
                 1.962    0.23480080117413
                0.4446     0.8136829578829
 s    1 1.00
                 0.122                   1
 p    1 1.00
                 0.727                   1

4 0
 s    8 1.00
                 11720  0.00070964594651845
                  1759  0.0054672722921914
                 400.8   0.027823118610189
                 113.7    0.10474773971146
                 37.03    0.28292084635691
                 13.27    0.44849523869833
                 5.025    0.27081688521277
                 1.013    0.01545029160744
 s    8 1.00
                 11720  -0.00031444341168873
                  1759  -0.0024821376810179
                 400.8  -0.012316355381583
                 113.7  -0.050538917343672
                 37.03   -0.13938490331632
                 13.27   -0.32507749481778
                 5.025   -0.22984830758785
                 1.013     1.0953793467883
 s    1 1.00
                0.3023                   1
 p    3 1.00
                  17.7   0.062679166281506
                 3.854    0.33353656587936
                 1.046    0.74123964163973
 p    1 1.00
                0.2753                   1
 d    1 1.00
                 1.185                   1

5 0
 s    8 1.00
                  6665  0.00069158396281299
                  1000  0.0053257961529341
                   228   0.027060721042034
                 64.71    0.10165684614077
                 21.06     0.2745748236174
                 7.495    0.44829431892377
                 2.797    0.28490261071525
                0.5215   0.015194859206082
 s    8 1.00
                  6665  -0.00029326965268655
                  1000  -0.0023180354739745
                   228  -0.011499786038565
                 64.71  -0.046826727009787
                 21.06   -0.12846616875047
                 7.495   -0.30126627246289
                 2.797   -0.25563070233011
                0.5215      1.093793361012
 s    1 1.00
                0.1596                   1
 p    3 1.00
                 9.439   0.056979251590039
                 2.002    0.31320721150073
                0.5456    0.76037674173753
 p    1 1.00
                0.1517                   1
 d    1 1.00
                  0.55                   1

6 0
 s    8 1.00
                  6665  0.00069158396281299
                  1000  0.0053257961529341
                   228   0.027060721042034
                 64.71    0.10165684614077
                 21.06     0.2745748236174
                 7.495    0.44829431892377
                 2.797    0.28490261071525
                0.5215   0.015194859206082
 s    8 1.00
                  6665  -0.00029326965268655
                  1000  -0.0023180354739745
                   228  -0.011499786038565
                 64.71  -0.046826727009787
                 21.06   -0.12846616875047
                 7.495   -0.30126627246289
                 2.797   -0.25563070233011
                0.5215      1.093793361012
 s    1 1.00
                0.1596                   1
 p    3 1.00
                 9.439   0.056979251590039
                 2.002    0.31320721150073
                0.5456    0.76037674173753
 p    1 1.00
                0.1517                   1
 d    1 1.00
                  0.55                   1

7 0
 s    8 1.00
                  6665  0.00069158396281299
                  1000  0.0053257961529341
                   228   0.027060721042034
                 64.71    0.10165684614077
                 21.06     0.2745748236174
                 7.495    0.44829431892377
                 2.797    0.28490261071525
                0.5215   0.015194859206082
 s    8 1.00
                  6665  -0.00029326965268655
                  1000  -0.0023180354739745
                   228  -0.011499786038565
                 64.71  -0.046826727009787
                 21.06   -0.12846616875047
                 7.495   -0.30126627246289
                 2.797   -0.25563070233011
                0.5215      1.093793361012
 s    1 1.00
                0.1596                   1
 p    3 1.00
                 9.439   0.056979251590039
                 2.002    0.31320721150073
                0.5456    0.76037674173753
 p    1 1.00
                0.1517                   1
 d    1 1.00
                  0.55                   1

8 0
 s    3 1.00
                 13.01   0.033498726389998
                 1.962    0.23480080117413
                0.4446     0.8136829578829
 s    1 1.00
                 0.122                   1
 p    1 1.00
                 0.727                   1

9 0
 s    8 1.00
                  6665  0.00069158396281299
                  1000  0.0053257961529341
                   228   0.027060721042034
                 64.71    0.10165684614077
                 21.06     0.2745748236174
                 7.495    0.44829431892377
                 2.797    0.28490261071525
                0.5215   0.015194859206082
 s    8 1.00
                  6665  -0.00029326965268655
                  1000  -0.0023180354739745
                   228  -0.011499786038565
                 64.71  -0.046826727009787
                 21.06   -0.12846616875047
                 7.495   -0.30126627246289
                 2.797   -0.25563070233011
                0.5215      1.093793361012
 s    1 1.00
                0.1596                   1
 p    3 1.00
                 9.439   0.056979251590039
                 2.002    0.31320721150073
                0.5456    0.76037674173753
 p    1 1.00
                0.1517                   1
 d    1 1.00
                  0.55                   1

10 0
 s    3 1.00
                 13.01   0.033498726389998
                 1.962    0.23480080117413
                0.4446     0.8136829578829
 s    1 1.00
                 0.122                   1
 p    1 1.00
                 0.727                   1

11 0
 s    3 1.00
                 13.01   0.033498726389998
                 1.962    0.23480080117413
                0.4446     0.8136829578829
 s    1 1.00
                 0.122                   1
 p    1 1.00
                 0.727                   1

12 0
 s    3 1.00
                 13.01   0.033498726389998
                 1.962    0.23480080117413
                0.4446     0.8136829578829
 s    1 1.00
                 0.122                   1
 p    1 1.00
                 0.727                   1

13 0
 s    8 1.00
                  6665  0.00069158396281299
                  1000  0.0053257961529341
                   228   0.027060721042034
                 64.71    0.10165684614077
                 21.06     0.2745748236174
                 7.495    0.44829431892377
                 2.797    0.28490261071525
                0.5215   0.015194859206082
 s    8 1.00
                  6665  -0.00029326965268655
                  1000  -0.0023180354739745
                   228  -0.011499786038565
                 64.71  -0.046826727009787
                 21.06   -0.12846616875047
                 7.495   -0.30126627246289
                 2.797   -0.25563070233011
                0.5215      1.093793361012
 s    1 1.00
                0.1596                   1
 p    3 1.00
                 9.439   0.056979251590039
                 2.002    0.31320721150073
                0.5456    0.76037674173753
 p    1 1.00
                0.1517                   1
 d    1 1.00
                  0.55                   1

14 0
 s    3 1.00
                 13.01   0.033498726389998
                 1.962    0.23480080117413
                0.4446     0.8136829578829
 s    1 1.00
                 0.122                   1
 p    1 1.00
                 0.727                   1

15 0
 s    3 1.00
                 13.01   0.033498726389998
                 1.962    0.23480080117413
                0.4446     0.8136829578829
 s    1 1.00
                 0.122                   1
 p    1 1.00
                 0.727                   1

16 0
 s    8 1.00
                  6665  0.00069158396281299
                  1000  0.0053257961529341
                   228   0.027060721042034
                 64.71    0.10165684614077
                 21.06     0.2745748236174
                 7.495    0.44829431892377
                 2.797    0.28490261071525
                0.5215   0.015194859206082
 s    8 1.00
                  6665  -0.00029326965268655
                  1000  -0.0023180354739745
                   228  -0.011499786038565
                 64.71  -0.046826727009787
                 21.06   -0.12846616875047
                 7.495   -0.30126627246289
                 2.797   -0.25563070233011
                0.5215      1.093793361012
 s    1 1.00
                0.1596                   1
 p    3 1.00
                 9.439   0.056979251590039
                 2.002    0.31320721150073
                0.5456    0.76037674173753
 p    1 1.00
                0.1517                   1
 d    1 1.00
                  0.55                   1

17 0
 s    3 1.00
                 13.01   0.033498726389998
                 1.962    0.23480080117413
                0.4446     0.8136829578829
 s    1 1.00
                 0.122                   1
 p    1 1.00
                 0.727                   1

18 0
 s    3 1.00
                 13.01   0.033498726389998
                 1.962    0.23480080117413
                0.4446     0.8136829578829
 s    1 1.00
                 0.122                   1
 p    1 1.00
                 0.727                   1

19 0
 s    8 1.00
                  6665  0.00069158396281299
                  1000  0.0053257961529341
                   228   0.027060721042034
                 64.71    0.10165684614077
                 21.06     0.2745748236174
                 7.495    0.44829431892377
                 2.797    0.28490261071525
                0.5215   0.015194859206082
 s    8 1.00
                  6665  -0.00029326965268655
                  1000  -0.0023180354739745
                   228  -0.011499786038565
                 64.71  -0.046826727009787
                 21.06   -0.12846616875047
                 7.495   -0.30126627246289
                 2.797   -0.25563070233011
                0.5215      1.093793361012
 s    1 1.00
                0.1596                   1
 p    3 1.00
                 9.439   0.056979251590039
                 2.002    0.31320721150073
                0.5456    0.76037674173753
 p    1 1.00
                0.1517                   1
 d    1 1.00
                  0.55                   1

20 0
 s    3 1.00
                 13.01   0.033498726389998
                 1.962    0.23480080117413
                0.4446     0.8136829578829
 s    1 1.00
                 0.122                   1
 p    1 1.00
                 0.727                   1

21 0
 s    8 1.00
                  6665  0.00069158396281299
                  1000  0.0053257961529341
                   228   0.027060721042034
                 64.71    0.10165684614077
                 21.06     0.2745748236174
                 7.495    0.44829431892377
                 2.797    0.28490261071525
                0.5215   0.015194859206082
 s    8 1.00
                  6665  -0.00029326965268655
                  1000  -0.0023180354739745
                   228  -0.011499786038565
                 64.71  -0.046826727009787
                 21.06   -0.12846616875047
                 7.495   -0.30126627246289
                 2.797   -0.25563070233011
                0.5215      1.093793361012
 s    1 1.00
                0.1596                   1
 p    3 1.00
                 9.439   0.056979251590039
                 2.002    0.31320721150073
                0.5456    0.76037674173753
 p    1 1.00
                0.1517                   1
 d    1 1.00
                  0.55                   1

22 0
 s    3 1.00
                 13.01   0.033498726389998
                 1.962    0.23480080117413
                0.4446     0.8136829578829
 s    1 1.00
                 0.122                   1
 p    1 1.00
                 0.727                   1

23 0
 s    3 1.00
                 13.01   0.033498726389998
                 1.962    0.23480080117413
                0.4446     0.8136829578829
 s    1 1.00
                 0.122                   1
 p    1 1.00
                 0.727                   1

24 0
 s    3 1.00
                 13.01   0.033498726389998
                 1.962    0.23480080117413
                0.4446     0.8136829578829
 s    1 1.00
                 0.122                   1
 p    1 1.00
                 0.727                   1

25 0
 s    8 1.00
                  6665  0.00069158396281299
                  1000  0.0053257961529341
                   228   0.027060721042034
                 64.71    0.10165684614077
                 21.06     0.2745748236174
                 7.495    0.44829431892377
                 2.797    0.28490261071525
                0.5215   0.015194859206082
 s    8 1.00
                  6665  -0.00029326965268655
                  1000  -0.0023180354739745
                   228  -0.011499786038565
                 64.71  -0.046826727009787
                 21.06   -0.12846616875047
                 7.495   -0.30126627246289
                 2.797   -0.25563070233011
                0.5215      1.093793361012
 s    1 1.00
                0.1596                   1
 p    3 1.00
                 9.439   0.056979251590039
                 2.002    0.31320721150073
                0.5456    0.76037674173753
 p    1 1.00
                0.1517                   1
 d    1 1.00
                  0.55                   1

26 0
 s    3 1.00
                 13.01   0.033498726389998
                 1.962    0.23480080117413
                0.4446     0.8136829578829
 s    1 1.00
                 0.122                   1
 p    1 1.00
                 0.727                   1

27 0
 s    3 1.00
                 13.01   0.033498726389998
                 1.962    0.23480080117413
                0.4446     0.8136829578829
 s    1 1.00
                 0.122                   1
 p    1 1.00
                 0.727                   1

28 0
 s    8 1.00
                  6665  0.00069158396281299
                  1000  0.0053257961529341
                   228   0.027060721042034
                 64.71    0.10165684614077
                 21.06     0.2745748236174
                 7.495    0.44829431892377
                 2.797    0.28490261071525
                0.5215   0.015194859206082
 s    8 1.00
                  6665  -0.00029326965268655
                  1000  -0.0023180354739745
                   228  -0.011499786038565
                 64.71  -0.046826727009787
                 21.06   -0.12846616875047
                 7.495   -0.30126627246289
                 2.797   -0.25563070233011
                0.5215      1.093793361012
 s    1 1.00
                0.1596                   1
 p    3 1.00
                 9.439   0.056979251590039
                 2.002    0.31320721150073
                0.5456    0.76037674173753
 p    1 1.00
                0.1517                   1
 d    1 1.00
                  0.55                   1

29 0
 s    3 1.00
                 13.01   0.033498726389998
                 1.962    0.23480080117413
                0.4446     0.8136829578829
 s    1 1.00
                 0.122                   1
 p    1 1.00
                 0.727                   1

30 0
 s    3 1.00
                 13.01   0.033498726389998
                 1.962    0.23480080117413
                0.4446     0.8136829578829
 s    1 1.00
                 0.122                   1
 p    1 1.00
                 0.727                   1

31 0
 s    8 1.00
                  6665  0.00069158396281299
                  1000  0.0053257961529341
                   228   0.027060721042034
                 64.71    0.10165684614077
                 21.06     0.2745748236174
                 7.495    0.44829431892377
                 2.797    0.28490261071525
                0.5215   0.015194859206082
 s    8 1.00
                  6665  -0.00029326965268655
                  1000  -0.0023180354739745
                   228  -0.011499786038565
                 64.71  -0.046826727009787
                 21.06   -0.12846616875047
                 7.495   -0.30126627246289
                 2.797   -0.25563070233011
                0.5215      1.093793361012
 s    1 1.00
                0.1596                   1
 p    3 1.00
                 9.439   0.056979251590039
                 2.002    0.31320721150073
                0.5456    0.76037674173753
 p    1 1.00
                0.1517                   1
 d    1 1.00
                  0.55                   1

32 0
 s    3 1.00
                 13.01   0.033498726389998
                 1.962    0.23480080117413
                0.4446     0.8136829578829
 s    1 1.00
                 0.122                   1
 p    1 1.00
                 0.727                   1

33 0
 s    3 1.00
                 13.01   0.033498726389998
                 1.962    0.23480080117413
                0.4446     0.8136829578829
 s    1 1.00
                 0.122                   1
 p    1 1.00
                 0.727                   1

34 0
 s    3 1.00
                 13.01   0.033498726389998
                 1.962    0.23480080117413
                0.4446     0.8136829578829
 s    1 1.00
                 0.122                   1
 p    1 1.00
                 0.727                   1

35 0
 s    3 1.00
                 13.01   0.033498726389998
                 1.962    0.23480080117413
                0.4446     0.8136829578829
 s    1 1.00
                 0.122                   1
 p    1 1.00
                 0.727                   1

36 0
 s    3 1.00
                 13.01   0.033498726389998
                 1.962    0.23480080117413
                0.4446     0.8136829578829
 s    1 1.00
                 0.122                   1
 p    1 1.00
                 0.727                   1

37 0
 s    3 1.00
                 13.01   0.033498726389998
                 1.962    0.23480080117413
                0.4446     0.8136829578829
 s    1 1.00
                 0.122                   1
 p    1 1.00
                 0.727                   1

[5d]
[7f]
[9g]

[MO]
 Sym= A
 Ene=               0
 Spin= Alpha
 Occup=    1.00000
   1    -6.1890551529843e-05
   2    -4.3214758224062e-05
   3    0.00013074802706605
   4    -8.078206071749e-08
   5    5.4664732627337e-06
   6    8.0104077586164e-06
   7    5.9508769327692e-07
   8    -2.5167686056912e-05
   9    -8.5749060008794e-05
  10    1.1193195747059e-05
  11    -2.0880158820082e-08
  12    -6.0087981238135e-07
  13    3.3634506327173e-07
  14      9.4756609827e-09
  15    -1.6600209531177e-05
  16    -0.00019456042912281
  17    -1.8970223005623e-07
  18    1.7515790064571e-06
  19    -2.2325487160189e-05
  20    -8.075856844359e-06
  21    6.944366804114e-05
  22    1.774876860473e-07
  23    -5.1331115314267e-06
  24    2.3727369967648e-06
  25       1.0013692456816
  26    0.0019674815484848
  27    -0.0068542569715955
  28    -4.81795525859e-06
  29    9.2317287241359e-06
  30    -0.0016495341284973
  31    -8.8967900456699e-07
  32    -1.3391171639713e-06
  33    0.0018771178245448
  34    0.0001196942473917
  35    -2.9252889332298e-06
  36    1.4205775066971e-06
  37    6.7143314138052e-05
  38    -0.00017482539290696
  39    0.00028059919632642
  40    0.00038666765936789
  41    0.0014595196543851
  42    1.5561236088754e-05
  43    -1.0094531073994e-05
  44    4.6091890056956e-06
  45    8.7693428626249e-05
  46    -6.8348895826583e-05
  47    0.0036000412379104
  48    -0.00052306494893655
  49    -8.6926559318027e-06
  50    2.7920376742542e-06
  51    2.9261017937029e-05
  52    -0.00010858606738222
  53    -8.4596210293033e-05
  54    -0.00016531117934229
  55    0.0013744245575992
  56    7.8134392365691e-05
  57    -7.0179778673144e-06
  58    -3.5188619530734e-05
  59    -0.0004238781295153
  60    0.00047801146520914
  61    -0.00094824280548232
  62    -0.00011696699581348
  63    0.00015008310099356
  64    -0.00014311906978806
  65    5.4674261400063e-05
  66    -0.00012872515148614
  67    -4.0742013899695e-05
  68    -9.6716025790794e-05
  69    0.00052983592425643
  70    -6.3249500622275e-05
  71    4.0885122328124e-05
  72    -6.0053849144065e-05
  73    0.0010055421344318
  74    -0.00077465934291876
  75    -0.00064226270910335
  76    -0.00014075888810075
  77    -0.00012051921633163
  78    8.9653349089225e-05
  79    5.8670052210346e-05
  80    -0.00015125850460722
  81    -6.2313773586109e-05
  82    0.0002103155324886
  83    6.6449353199705e-05
  84    -4.8799603918743e-05
  85    4.8316498181813e-05
  86    2.5129778364772e-05
  87    4.8747401446854e-05
  88    -0.00061360334999679
  89    -1.6177878878801e-05
  90    -1.6660674426378e-05
  91    1.1910251573888e-05
  92    0.00025820627991468
  93    0.00063549058471055
  94    -1.4441063257583e-05
  95    1.8451322225372e-05
  96    1.1282823358804e-05
  97    7.5453976105705e-06
  98    -2.0146510922512e-05
  99    -4.6827921405148e-05
 100    -3.8771731044363e-05
 101    -0.00016138053231135
 102    8.0860970048223e-06
 103    -1.0169422950919e-05
 104    7.5605761348128e-05
 105    -1.9861854885645e-05
 106    -0.00020434338597065
 107    -6.4248539297151e-05
 108    1.0012275413457e-05
 109    7.5301935114761e-05
 110    7.6117588244729e-05
 111    -6.3036501666691e-05
 112    -4.5100668215076e-05
 113    1.911502103398e-05
 114    7.0319417470502e-05
 115    -5.1817884274845e-05
 116    -9.8583533479675e-05
 117    0.00084026707941455
 118    -2.7916737659023e-05
 119    -7.0926728616671e-06
 120    3.4645995508105e-05
 121    0.00029010516861897
 122    3.3191608871523e-05
 123    -0.00014486851373159
 124    -9.1054928237335e-06
 125    7.9107832415279e-06
 126    1.7978706236297e-05
 127    -3.1561029493967e-05
 128    4.9959584148806e-05
 129    -1.9449127227743e-05
 130    -0.0003284182867291
 131    7.7350959833773e-06
 132    5.9556205789929e-06
 133    2.9367608312774e-05
 134    2.6085280149746e-05
 135    -0.00011754071837014
 136    -1.3572777036911e-05
 137    -2.4555844401877e-05
 138    -2.6968680609333e-05
 139    -2.1419845430412e-05
 140    -3.8824865249976e-05
 141    0.00029619035719919
 142    7.4896079878431e-06
 143    -2.3484833337315e-06
 144    -5.798274531342e-06
 145    -0.0002295328156728
 146    5.5478337588663e-05
 147    6.0767302927272e-05
 148    -2.2931234171122e-06
 149    3.7290046445171e-06
 150    -4.287508943604e-06
 151    1.1713816065078e-05
 152    -5.1526430594401e-06
 153    -9.9765764926835e-05
 154    -0.00011129042479083
 155    -2.6425964515177e-05
 156    2.9084693144004e-05
 157    1.9305545888293e-05
 158    -2.9874491904829e-05
 159    -9.3921516462125e-05
 160    -5.955503061152e-05
 161    -7.2319400215364e-06
 162    6.2592208364157e-06
 163    -7.8410858303253e-05
 164    -9.8740025294668e-05
 165    -0.00029186536016976
 166    -3.5844254017979e-05
 167    1.7361809276214e-05
 168    0.00011960885382179
 169    0.00022656086259569
 170    -0.00021032548743992
 171    -7.7014587645721e-05
 172    -3.3077645800554e-06
 173    7.8625216551525e-06
 174    -1.4635497270453e-05
 175    6.5459554021264e-06
 176    -2.343559962646e-05
 177    -1.4694891543089e-05
 178    8.7125015391109e-05
 179    -9.2092571723771e-07
 180    1.8881195574556e-06
 181    -4.9000745980424e-06
 182    1.7592232570919e-05
 183    2.0612086405111e-05
 184    -7.8621679953113e-05
 185    -2.3544767277971e-05
 186    1.3251597894944e-05
 187    5.096194145408e-06
 188    0.00011912017152995
 189    -9.6183326117731e-05
 190    -8.7391647893716e-05
 191    1.6628933296357e-06
 192    3.4172487862504e-06
 193    -8.6189047708817e-06
 194    -3.0261407779856e-06
 195    -4.7791438756992e-06
 196    -1.3645796540025e-05
 197    -1.9256889761722e-05
 198    5.6694911256058e-06
 199    1.9433334727203e-06
 200    -3.371427839492e-06
 201    -0.00013165048495802
 202    -3.4199609407868e-05
 203    -1.8198304063905e-05
 204    2.615513296816e-06
 205    5.3616736836078e-06
 206    -8.7232744239556e-05
 207    4.0466915921474e-05
 208    -1.1790569373219e-05
 209    1.2538918267327e-05
 210    1.4180184762953e-05
 211    -1.0124154868291e-05
 212    -3.0791942063077e-05
 213    0.00026011051416983
 214    3.5110239014266e-05
 215    -1.2850664082466e-05
 216    -2.2203217951059e-05
 217    0.0002092793544086
 218    -5.8058835260177e-05
 219    -8.6810036856064e-05
 220    -4.0845724813083e-06
 221    -1.4103942572002e-05
 222    4.3840384946964e-06
 223    9.9821829630002e-06
 224    -2.7050941711486e-06
 225    2.2308711028815e-05
 226    5.4039301745725e-05
 227    -1.2694619051109e-05
 228    -1.4492319940916e-06
 229    -8.4737499505653e-07
 230    2.1203624690043e-05
 231    6.0647233637239e-05
 232    -3.947918828158e-06
 233    6.2329885738836e-06
 234    1.2552564795839e-05
 235    5.431301465672e-06
 236    -5.6806930517284e-06
 237    -8.2899407318531e-05
 238    1.8716829636731e-05
 239    -5.0038192445534e-06
 240    -1.0992978947214e-05
 241    4.3133385615133e-05
 242    -6.6060274628544e-05
 243    1.4977395049351e-05
 244    2.0088139349408e-06
 245    2.9299660221759e-06
 246    -2.9223087907596e-06
 247    4.9916564143329e-08
 248    1.5865049743445e-06
 249    -2.8761013880185e-05
 250    2.1160011704009e-06
 251    -3.4184878410622e-06
 252    -5.2614889362421e-07
 253    -1.2638944017139e-07
 254    -2.9472128060162e-05
 255    4.6920680308578e-05
 256    3.0032573873039e-07
 257    3.0530091284577e-06
 258    -1.1049902776009e-06
 259    -2.9574790734993e-06
 260    -1.65995259305e-05
 261    8.4278908017993e-05
 262    -6.4197758017865e-06