[Molden Format]
made by pyscf v[2.0.1]
[Atoms] (AU)
O   1   8     0.00000000000000     0.00000000000000     7.16229833633744
H   2   1     0.00000000000000     0.00000000000000     5.33889651443647
H   3   1    -0.05031916615174     1.78353065140343     7.53817003280410
O   4   8     0.00000000000000     0.00000000000000     2.31533471513237
C   5   6     0.00000000000000     0.00000000000000     0.00000000000000
C   6   6     2.01118073026938    -1.40227222164369    -1.50774939176400
C   7   6    -2.01249334291722     1.41331050329955    -1.50315905028694
H   8   1     3.32037363730244    -2.26721897153159    -0.13599698591495
C   9   6     3.45899267434009     0.28739631745591    -3.37437943254505
H   10   1     1.07662969841332    -2.94725144642667    -2.56541439481080
H   11   1    -2.67503415753480     0.18421555839588    -3.06194479365997
H   12   1    -1.07974048864772     3.03851734677796    -2.43674295017013
C   13   6    -4.21607110578555     2.32938802552922     0.11994162256091
H   14   1     4.24440173074564     1.93368664142019    -2.34976285512790
H   15   1     2.15020713235517     1.04714335134846    -4.81494497423699
C   16   6     5.60746363007797    -1.12419643481196    -4.70268606082550
H   17   1    -3.46838323670267     3.50951302338067     1.66946842715333
H   18   1    -5.11873485366228     0.68575958301209     1.04047743976495
C   19   6    -6.18314754751344     3.80909592987882    -1.39656589068747
H   20   1     6.93011263717176    -1.87550812453645    -3.26656317360070
C   21   6     7.06356622236532     0.52877932406334    -6.57829775293605
H   22   1     4.82318879258361    -2.78573437948532    -5.70504560381835
H   23   1    -6.91582688743803     2.61304780074712    -2.95074552451969
H   24   1    -5.26532430573853     5.45420349051338    -2.31005832200284
C   25   6    -8.39941882261433     4.73263980500213     0.21800571437956
H   26   1     7.83338371486801     2.19084139882824    -5.57093109900697
H   27   1     5.73544244039420     1.27376866537418    -8.01071492370229
C   28   6     9.21124858443101    -0.89699110072176    -7.88926949186242
H   29   1    -7.66272760055236     5.92277078003992     1.77035591474408
H   30   1    -9.31497248082589     3.08753015622020     1.12614408368786
C   31   6   -10.35481709231879     6.21833079391143    -1.30905206253246
H   32   1    10.58815905329501    -1.61074586756696    -6.49512691622620
H   33   1    10.23506248045667     0.32468009384095    -9.23072870921204
H   34   1     8.47665842847139    -2.53598436989925    -8.94921964622535
H   35   1    -9.48948872868064     7.90013588951020    -2.18823918416067
H   36   1   -11.93332513000955     6.86460487874102    -0.11255798845995
H   37   1   -11.15126291841033     5.04495968327630    -2.83849898862534
[GTO]
1 0
 s    8 1.00
                 11720  0.00070964594651845
                  1759  0.0054672722921914
                 400.8   0.027823118610189
                 113.7    0.10474773971146
                 37.03    0.28292084635691
                 13.27    0.44849523869833
                 5.025    0.27081688521277
                 1.013    0.01545029160744
 s    8 1.00
                 11720  -0.00031444341168873
                  1759  -0.0024821376810179
                 400.8  -0.012316355381583
                 113.7  -0.050538917343672
                 37.03   -0.13938490331632
                 13.27   -0.32507749481778
                 5.025   -0.22984830758785
                 1.013     1.0953793467883
 s    1 1.00
                0.3023                   1
 p    3 1.00
                  17.7   0.062679166281506
                 3.854    0.33353656587936
                 1.046    0.74123964163973
 p    1 1.00
                0.2753                   1
 d    1 1.00
                 1.185                   1

2 0
 s    3 1.00
                 13.01   0.033498726389998
                 1.962    0.23480080117413
                0.4446     0.8136829578829
 s    1 1.00
                 0.122                   1
 p    1 1.00
                 0.727                   1

3 0
 s    3 1.00
                 13.01   0.033498726389998
                 1.962    0.23480080117413
                0.4446     0.8136829578829
 s    1 1.00
                 0.122                   1
 p    1 1.00
                 0.727                   1

4 0
 s    8 1.00
                 11720  0.00070964594651845
                  1759  0.0054672722921914
                 400.8   0.027823118610189
                 113.7    0.10474773971146
                 37.03    0.28292084635691
                 13.27    0.44849523869833
                 5.025    0.27081688521277
                 1.013    0.01545029160744
 s    8 1.00
                 11720  -0.00031444341168873
                  1759  -0.0024821376810179
                 400.8  -0.012316355381583
                 113.7  -0.050538917343672
                 37.03   -0.13938490331632
                 13.27   -0.32507749481778
                 5.025   -0.22984830758785
                 1.013     1.0953793467883
 s    1 1.00
                0.3023                   1
 p    3 1.00
                  17.7   0.062679166281506
                 3.854    0.33353656587936
                 1.046    0.74123964163973
 p    1 1.00
                0.2753                   1
 d    1 1.00
                 1.185                   1

5 0
 s    8 1.00
                  6665  0.00069158396281299
                  1000  0.0053257961529341
                   228   0.027060721042034
                 64.71    0.10165684614077
                 21.06     0.2745748236174
                 7.495    0.44829431892377
                 2.797    0.28490261071525
                0.5215   0.015194859206082
 s    8 1.00
                  6665  -0.00029326965268655
                  1000  -0.0023180354739745
                   228  -0.011499786038565
                 64.71  -0.046826727009787
                 21.06   -0.12846616875047
                 7.495   -0.30126627246289
                 2.797   -0.25563070233011
                0.5215      1.093793361012
 s    1 1.00
                0.1596                   1
 p    3 1.00
                 9.439   0.056979251590039
                 2.002    0.31320721150073
                0.5456    0.76037674173753
 p    1 1.00
                0.1517                   1
 d    1 1.00
                  0.55                   1

6 0
 s    8 1.00
                  6665  0.00069158396281299
                  1000  0.0053257961529341
                   228   0.027060721042034
                 64.71    0.10165684614077
                 21.06     0.2745748236174
                 7.495    0.44829431892377
                 2.797    0.28490261071525
                0.5215   0.015194859206082
 s    8 1.00
                  6665  -0.00029326965268655
                  1000  -0.0023180354739745
                   228  -0.011499786038565
                 64.71  -0.046826727009787
                 21.06   -0.12846616875047
                 7.495   -0.30126627246289
                 2.797   -0.25563070233011
                0.5215      1.093793361012
 s    1 1.00
                0.1596                   1
 p    3 1.00
                 9.439   0.056979251590039
                 2.002    0.31320721150073
                0.5456    0.76037674173753
 p    1 1.00
                0.1517                   1
 d    1 1.00
                  0.55                   1

7 0
 s    8 1.00
                  6665  0.00069158396281299
                  1000  0.0053257961529341
                   228   0.027060721042034
                 64.71    0.10165684614077
                 21.06     0.2745748236174
                 7.495    0.44829431892377
                 2.797    0.28490261071525
                0.5215   0.015194859206082
 s    8 1.00
                  6665  -0.00029326965268655
                  1000  -0.0023180354739745
                   228  -0.011499786038565
                 64.71  -0.046826727009787
                 21.06   -0.12846616875047
                 7.495   -0.30126627246289
                 2.797   -0.25563070233011
                0.5215      1.093793361012
 s    1 1.00
                0.1596                   1
 p    3 1.00
                 9.439   0.056979251590039
                 2.002    0.31320721150073
                0.5456    0.76037674173753
 p    1 1.00
                0.1517                   1
 d    1 1.00
                  0.55                   1

8 0
 s    3 1.00
                 13.01   0.033498726389998
                 1.962    0.23480080117413
                0.4446     0.8136829578829
 s    1 1.00
                 0.122                   1
 p    1 1.00
                 0.727                   1

9 0
 s    8 1.00
                  6665  0.00069158396281299
                  1000  0.0053257961529341
                   228   0.027060721042034
                 64.71    0.10165684614077
                 21.06     0.2745748236174
                 7.495    0.44829431892377
                 2.797    0.28490261071525
                0.5215   0.015194859206082
 s    8 1.00
                  6665  -0.00029326965268655
                  1000  -0.0023180354739745
                   228  -0.011499786038565
                 64.71  -0.046826727009787
                 21.06   -0.12846616875047
                 7.495   -0.30126627246289
                 2.797   -0.25563070233011
                0.5215      1.093793361012
 s    1 1.00
                0.1596                   1
 p    3 1.00
                 9.439   0.056979251590039
                 2.002    0.31320721150073
                0.5456    0.76037674173753
 p    1 1.00
                0.1517                   1
 d    1 1.00
                  0.55                   1

10 0
 s    3 1.00
                 13.01   0.033498726389998
                 1.962    0.23480080117413
                0.4446     0.8136829578829
 s    1 1.00
                 0.122                   1
 p    1 1.00
                 0.727                   1

11 0
 s    3 1.00
                 13.01   0.033498726389998
                 1.962    0.23480080117413
                0.4446     0.8136829578829
 s    1 1.00
                 0.122                   1
 p    1 1.00
                 0.727                   1

12 0
 s    3 1.00
                 13.01   0.033498726389998
                 1.962    0.23480080117413
                0.4446     0.8136829578829
 s    1 1.00
                 0.122                   1
 p    1 1.00
                 0.727                   1

13 0
 s    8 1.00
                  6665  0.00069158396281299
                  1000  0.0053257961529341
                   228   0.027060721042034
                 64.71    0.10165684614077
                 21.06     0.2745748236174
                 7.495    0.44829431892377
                 2.797    0.28490261071525
                0.5215   0.015194859206082
 s    8 1.00
                  6665  -0.00029326965268655
                  1000  -0.0023180354739745
                   228  -0.011499786038565
                 64.71  -0.046826727009787
                 21.06   -0.12846616875047
                 7.495   -0.30126627246289
                 2.797   -0.25563070233011
                0.5215      1.093793361012
 s    1 1.00
                0.1596                   1
 p    3 1.00
                 9.439   0.056979251590039
                 2.002    0.31320721150073
                0.5456    0.76037674173753
 p    1 1.00
                0.1517                   1
 d    1 1.00
                  0.55                   1

14 0
 s    3 1.00
                 13.01   0.033498726389998
                 1.962    0.23480080117413
                0.4446     0.8136829578829
 s    1 1.00
                 0.122                   1
 p    1 1.00
                 0.727                   1

15 0
 s    3 1.00
                 13.01   0.033498726389998
                 1.962    0.23480080117413
                0.4446     0.8136829578829
 s    1 1.00
                 0.122                   1
 p    1 1.00
                 0.727                   1

16 0
 s    8 1.00
                  6665  0.00069158396281299
                  1000  0.0053257961529341
                   228   0.027060721042034
                 64.71    0.10165684614077
                 21.06     0.2745748236174
                 7.495    0.44829431892377
                 2.797    0.28490261071525
                0.5215   0.015194859206082
 s    8 1.00
                  6665  -0.00029326965268655
                  1000  -0.0023180354739745
                   228  -0.011499786038565
                 64.71  -0.046826727009787
                 21.06   -0.12846616875047
                 7.495   -0.30126627246289
                 2.797   -0.25563070233011
                0.5215      1.093793361012
 s    1 1.00
                0.1596                   1
 p    3 1.00
                 9.439   0.056979251590039
                 2.002    0.31320721150073
                0.5456    0.76037674173753
 p    1 1.00
                0.1517                   1
 d    1 1.00
                  0.55                   1

17 0
 s    3 1.00
                 13.01   0.033498726389998
                 1.962    0.23480080117413
                0.4446     0.8136829578829
 s    1 1.00
                 0.122                   1
 p    1 1.00
                 0.727                   1

18 0
 s    3 1.00
                 13.01   0.033498726389998
                 1.962    0.23480080117413
                0.4446     0.8136829578829
 s    1 1.00
                 0.122                   1
 p    1 1.00
                 0.727                   1

19 0
 s    8 1.00
                  6665  0.00069158396281299
                  1000  0.0053257961529341
                   228   0.027060721042034
                 64.71    0.10165684614077
                 21.06     0.2745748236174
                 7.495    0.44829431892377
                 2.797    0.28490261071525
                0.5215   0.015194859206082
 s    8 1.00
                  6665  -0.00029326965268655
                  1000  -0.0023180354739745
                   228  -0.011499786038565
                 64.71  -0.046826727009787
                 21.06   -0.12846616875047
                 7.495   -0.30126627246289
                 2.797   -0.25563070233011
                0.5215      1.093793361012
 s    1 1.00
                0.1596                   1
 p    3 1.00
                 9.439   0.056979251590039
                 2.002    0.31320721150073
                0.5456    0.76037674173753
 p    1 1.00
                0.1517                   1
 d    1 1.00
                  0.55                   1

20 0
 s    3 1.00
                 13.01   0.033498726389998
                 1.962    0.23480080117413
                0.4446     0.8136829578829
 s    1 1.00
                 0.122                   1
 p    1 1.00
                 0.727                   1

21 0
 s    8 1.00
                  6665  0.00069158396281299
                  1000  0.0053257961529341
                   228   0.027060721042034
                 64.71    0.10165684614077
                 21.06     0.2745748236174
                 7.495    0.44829431892377
                 2.797    0.28490261071525
                0.5215   0.015194859206082
 s    8 1.00
                  6665  -0.00029326965268655
                  1000  -0.0023180354739745
                   228  -0.011499786038565
                 64.71  -0.046826727009787
                 21.06   -0.12846616875047
                 7.495   -0.30126627246289
                 2.797   -0.25563070233011
                0.5215      1.093793361012
 s    1 1.00
                0.1596                   1
 p    3 1.00
                 9.439   0.056979251590039
                 2.002    0.31320721150073
                0.5456    0.76037674173753
 p    1 1.00
                0.1517                   1
 d    1 1.00
                  0.55                   1

22 0
 s    3 1.00
                 13.01   0.033498726389998
                 1.962    0.23480080117413
                0.4446     0.8136829578829
 s    1 1.00
                 0.122                   1
 p    1 1.00
                 0.727                   1

23 0
 s    3 1.00
                 13.01   0.033498726389998
                 1.962    0.23480080117413
                0.4446     0.8136829578829
 s    1 1.00
                 0.122                   1
 p    1 1.00
                 0.727                   1

24 0
 s    3 1.00
                 13.01   0.033498726389998
                 1.962    0.23480080117413
                0.4446     0.8136829578829
 s    1 1.00
                 0.122                   1
 p    1 1.00
                 0.727                   1

25 0
 s    8 1.00
                  6665  0.00069158396281299
                  1000  0.0053257961529341
                   228   0.027060721042034
                 64.71    0.10165684614077
                 21.06     0.2745748236174
                 7.495    0.44829431892377
                 2.797    0.28490261071525
                0.5215   0.015194859206082
 s    8 1.00
                  6665  -0.00029326965268655
                  1000  -0.0023180354739745
                   228  -0.011499786038565
                 64.71  -0.046826727009787
                 21.06   -0.12846616875047
                 7.495   -0.30126627246289
                 2.797   -0.25563070233011
                0.5215      1.093793361012
 s    1 1.00
                0.1596                   1
 p    3 1.00
                 9.439   0.056979251590039
                 2.002    0.31320721150073
                0.5456    0.76037674173753
 p    1 1.00
                0.1517                   1
 d    1 1.00
                  0.55                   1

26 0
 s    3 1.00
                 13.01   0.033498726389998
                 1.962    0.23480080117413
                0.4446     0.8136829578829
 s    1 1.00
                 0.122                   1
 p    1 1.00
                 0.727                   1

27 0
 s    3 1.00
                 13.01   0.033498726389998
                 1.962    0.23480080117413
                0.4446     0.8136829578829
 s    1 1.00
                 0.122                   1
 p    1 1.00
                 0.727                   1

28 0
 s    8 1.00
                  6665  0.00069158396281299
                  1000  0.0053257961529341
                   228   0.027060721042034
                 64.71    0.10165684614077
                 21.06     0.2745748236174
                 7.495    0.44829431892377
                 2.797    0.28490261071525
                0.5215   0.015194859206082
 s    8 1.00
                  6665  -0.00029326965268655
                  1000  -0.0023180354739745
                   228  -0.011499786038565
                 64.71  -0.046826727009787
                 21.06   -0.12846616875047
                 7.495   -0.30126627246289
                 2.797   -0.25563070233011
                0.5215      1.093793361012
 s    1 1.00
                0.1596                   1
 p    3 1.00
                 9.439   0.056979251590039
                 2.002    0.31320721150073
                0.5456    0.76037674173753
 p    1 1.00
                0.1517                   1
 d    1 1.00
                  0.55                   1

29 0
 s    3 1.00
                 13.01   0.033498726389998
                 1.962    0.23480080117413
                0.4446     0.8136829578829
 s    1 1.00
                 0.122                   1
 p    1 1.00
                 0.727                   1

30 0
 s    3 1.00
                 13.01   0.033498726389998
                 1.962    0.23480080117413
                0.4446     0.8136829578829
 s    1 1.00
                 0.122                   1
 p    1 1.00
                 0.727                   1

31 0
 s    8 1.00
                  6665  0.00069158396281299
                  1000  0.0053257961529341
                   228   0.027060721042034
                 64.71    0.10165684614077
                 21.06     0.2745748236174
                 7.495    0.44829431892377
                 2.797    0.28490261071525
                0.5215   0.015194859206082
 s    8 1.00
                  6665  -0.00029326965268655
                  1000  -0.0023180354739745
                   228  -0.011499786038565
                 64.71  -0.046826727009787
                 21.06   -0.12846616875047
                 7.495   -0.30126627246289
                 2.797   -0.25563070233011
                0.5215      1.093793361012
 s    1 1.00
                0.1596                   1
 p    3 1.00
                 9.439   0.056979251590039
                 2.002    0.31320721150073
                0.5456    0.76037674173753
 p    1 1.00
                0.1517                   1
 d    1 1.00
                  0.55                   1

32 0
 s    3 1.00
                 13.01   0.033498726389998
                 1.962    0.23480080117413
                0.4446     0.8136829578829
 s    1 1.00
                 0.122                   1
 p    1 1.00
                 0.727                   1

33 0
 s    3 1.00
                 13.01   0.033498726389998
                 1.962    0.23480080117413
                0.4446     0.8136829578829
 s    1 1.00
                 0.122                   1
 p    1 1.00
                 0.727                   1

34 0
 s    3 1.00
                 13.01   0.033498726389998
                 1.962    0.23480080117413
                0.4446     0.8136829578829
 s    1 1.00
                 0.122                   1
 p    1 1.00
                 0.727                   1

35 0
 s    3 1.00
                 13.01   0.033498726389998
                 1.962    0.23480080117413
                0.4446     0.8136829578829
 s    1 1.00
                 0.122                   1
 p    1 1.00
                 0.727                   1

36 0
 s    3 1.00
                 13.01   0.033498726389998
                 1.962    0.23480080117413
                0.4446     0.8136829578829
 s    1 1.00
                 0.122                   1
 p    1 1.00
                 0.727                   1

37 0
 s    3 1.00
                 13.01   0.033498726389998
                 1.962    0.23480080117413
                0.4446     0.8136829578829
 s    1 1.00
                 0.122                   1
 p    1 1.00
                 0.727                   1

[5d]
[7f]
[9g]

[MO]
 Sym= A
 Ene=               0
 Spin= Alpha
 Occup=    1.00000
   1    6.5626880579655e-05
   2    1.0322218796571e-05
   3    -3.6042578835922e-05
   4    -7.9128340213826e-07
   5    -2.5506006025827e-06
   6    -8.6132568101966e-06
   7    1.218242944943e-06
   8    1.7812416835718e-05
   9    -2.9474327635073e-05
  10    1.5652408781374e-05
  11    3.1767778414429e-07
  12    -2.9300904265842e-06
  13    -2.9052555356369e-06
  14    -1.0051201487757e-07
  15    3.6088036402721e-05
  16    0.00018804126022171
  17    1.3456214669242e-06
  18    -4.0697680029469e-06
  19    -3.5102637358577e-05
  20    -1.3856970635836e-05
  21    -1.9099923356966e-05
  22    -1.977464485922e-07
  23    -4.0166964352979e-06
  24    9.3532969326551e-06
  25      -1.0014027345028
  26    -0.0020697449051429
  27    0.0070477314403486
  28    5.6568176439245e-06
  29    -1.525498379133e-05
  30    0.0015975827824065
  31    -4.5760151770746e-07
  32    4.647854268505e-06
  33    -0.0020618108339292
  34    -0.00010892127348862
  35    2.7086893314513e-06
  36    -1.3937170316813e-06
  37    -6.369896298329e-05
  38    0.00016621953956696
  39    -0.00029927372687421
  40    -0.00042648594097091
  41    -0.0016426287209099
  42    -1.653055251488e-05
  43    1.014849859514e-05
  44    -4.6726302600905e-05
  45    -8.2057995580563e-05
  46    6.5751875358363e-05
  47    -0.0037719236511278
  48    0.00048500837719206
  49    8.0853303328552e-06
  50    -2.4676767458704e-06
  51    -3.1306428596403e-05
  52    0.00011414332977187
  53    8.3790412824384e-05
  54    0.00016412310949856
  55    -0.0013975795683628
  56    -7.9250019951148e-05
  57    7.2282756821054e-06
  58    3.3618798834298e-05
  59    0.00043002604631061
  60    -0.00048592108920704
  61    0.0010048757959615
  62    0.00011505307404261
  63    -0.0001502199027111
  64    0.00014410831795918
  65    -5.3846023415582e-05
  66    0.00012530015395023
  67    3.6696818299244e-05
  68    9.2241958269083e-05
  69    -0.00051333597166411
  70    6.3031845700645e-05
  71    -4.2279525269867e-05
  72    6.1736228146176e-05
  73     -0.00103038315777
  74    0.0007912302452811
  75    0.00068472682881591
  76    0.00013847970510105
  77    0.0001221213925767
  78    -9.0043961044326e-05
  79    -5.7922473373211e-05
  80    0.00014850066582446
  81    5.6678836438777e-05
  82    -0.00022376958894498
  83    -6.7865392921671e-05
  84    4.9810024248122e-05
  85    -4.6353407479535e-05
  86    -2.4863236741576e-05
  87    -4.869881117072e-05
  88    0.00063048753254332
  89    1.5537971281561e-05
  90    1.7413394651404e-05
  91    -1.1007952762904e-05
  92    -0.00026552330518032
  93    -0.00066288420119386
  94    9.6689198154641e-06
  95    -1.9567633551606e-05
  96    -1.1601454490054e-05
  97    -8.4190957225977e-06
  98    1.8543175858831e-05
  99    5.0336792786714e-05
 100    4.2538992729238e-05
 101    0.00016959743034274
 102    -4.8258152510434e-06
 103    1.1050334181331e-05
 104    -7.8953665393628e-05
 105    2.0113983759386e-05
 106    0.00021060132728589
 107    6.3547986410503e-05
 108    -6.4355853812588e-06
 109    -7.799561108683e-05
 110    -7.952380408791e-05
 111    7.006740087857e-05
 112    4.342785700803e-05
 113    -2.1030534719708e-05
 114    -7.2868367922203e-05
 115    4.870610718708e-05
 116    9.9091247335404e-05
 117    -0.00087680597989449
 118    2.3662549691405e-05
 119    1.1971083916344e-05
 120    -3.1843884719684e-05
 121    -0.00028345516290635
 122    -4.1946144301625e-05
 123    0.00016481933784773
 124    5.5718466693822e-06
 125    -9.9939022723249e-06
 126    -1.4891569327931e-05
 127    3.2643299187526e-05
 128    -5.2154012857927e-05
 129    2.0084841698023e-05
 130    0.00034490597185736
 131    -8.382582938948e-06
 132    -5.9734294112463e-06
 133    -2.9938211645603e-05
 134    -2.514505285749e-05
 135    0.00011751127859415
 136    1.4125195862009e-05
 137    2.5785973692188e-05
 138    2.7854708478101e-05
 139    2.2260239233244e-05
 140    4.0587613819391e-05
 141    -0.00031202103491799
 142    -7.6419098108509e-06
 143    3.2943645532966e-06
 144    6.0480073393961e-06
 145    0.00023093493108507
 146    -6.279409398445e-05
 147    -5.7832876018228e-05
 148    2.6040091350605e-06
 149    -3.5502920456569e-06
 150    5.1314463570453e-06
 151    -1.3005525193939e-05
 152    4.6089562687231e-06
 153    9.9219949041476e-05
 154    9.4181960118666e-05
 155    2.6722708312762e-05
 156    -2.75949488334e-05
 157    -1.9644121259621e-05
 158    2.6576160658522e-05
 159    8.6736659983388e-05
 160    5.9465909830469e-05
 161    7.920962743502e-06
 162    -7.2431676007293e-06
 163    -4.8680436919513e-06
 164    2.550156559632e-06
 165    0.00027662965562812
 166    1.7467867541458e-05
 167    -1.4187670546022e-05
 168    -7.105683180664e-06
 169    -0.0002309466667388
 170    0.00020929077792245
 171    0.00014469683294396
 172    2.1210927557227e-06
 173    -1.0145209077059e-05
 174    1.3678663122491e-05
 175    -2.8615768119783e-06
 176    1.7754924733552e-05
 177    1.690195049249e-05
 178    -8.7425599396691e-05
 179    1.4412516747329e-06
 180    -1.4337361272033e-06
 181    4.502220626594e-06
 182    -2.1575519226324e-05
 183    -2.9763544761187e-05
 184    8.3836364381421e-05
 185    4.3799388396739e-06
 186    -4.1118176574268e-06
 187    -5.2725139659374e-06
 188    -0.0001331421996147
 189    0.0001023951373764
 190    9.4685043066449e-05
 191    -1.1292879390796e-06
 192    -2.4502395019139e-06
 193    7.5576427752318e-06
 194    2.9632159665181e-06
 195    5.8825783353461e-06
 196    1.2652398377004e-05
 197    1.9616403297107e-05
 198    -5.6357204279894e-06
 199    -1.935725767926e-06
 200    3.0810495649888e-06
 201    1.3112781887651e-05
 202    -6.744229485826e-07
 203    1.3538813142674e-05
 204    -9.7282092606936e-06
 205    -1.178300518156e-05
 206    -9.3864427666783e-06
 207    -6.9769521846335e-05
 208    1.5981105816919e-05
 209    -3.8728881826876e-06
 210    -1.6172139353354e-05
 211    7.8222269723261e-06
 212    3.7536631432736e-05
 213    -0.00026865523807448
 214    -8.7221475068828e-06
 215    3.6398634935739e-06
 216    4.9706908014106e-06
 217    -0.00019679471078229
 218    5.2342589041718e-05
 219    8.0210494486572e-05
 220    2.0502684452925e-06
 221    1.6844359322838e-05
 222    -5.6393870763425e-06
 223    -9.2867681128118e-06
 224    1.5905831395977e-06
 225    -2.7410975147079e-05
 226    -5.8136530464745e-05
 227    1.2774581144581e-05
 228    2.2984386533207e-06
 229    9.6667517742412e-07
 230    -1.0547383895394e-05
 231    -5.4494211785185e-05
 232     4.16726872829e-06
 233    -6.598038286195e-06
 234    -1.2348708623881e-05
 235    2.1455083704547e-06
 236    -1.777177891437e-06
 237    8.0066340070348e-05
 238    -2.738473006147e-06
 239    -2.3799381679198e-06
 240    3.5803727559309e-06
 241    -3.7859187629636e-05
 242    6.4144110711429e-05
 243    -1.844361639509e-05
 244    -2.0463976153357e-06
 245    -1.9754626084738e-06
 246    1.8828917899995e-06
 247    -1.015903221212e-07
 248    -9.3818407044484e-07
 249    1.936404157877e-05
 250    -9.5005947416079e-06
 251    4.2343586399811e-06
 252    7.4606459310136e-07
 253    -3.7838957481921e-07
 254     1.85320113987e-05
 255    -5.7021280816506e-05
 256    -2.5763211257988e-07
 257    -3.9995562019035e-06
 258    6.3299754770402e-07
 259    2.2833011581897e-05
 260    2.6499339015092e-05
 261    -6.6096017943074e-05
 262    1.3752314836547e-06
 263    -4.9214456619712e-06