[Molden Format]
made by pyscf v[2.0.1]
[Atoms] (AU)
O   1   8     0.00000000000000     0.00000000000000     7.91818878616346
H   2   1     0.00000000000000     0.00000000000000     6.09478696426249
H   3   1    -0.05031916615174     1.78353065140343     8.29406048263013
O   4   8     0.00000000000000     0.00000000000000     2.31533471513237
C   5   6     0.00000000000000     0.00000000000000     0.00000000000000
C   6   6     2.01118073026938    -1.40227222164369    -1.50774939176400
C   7   6    -2.01249334291722     1.41331050329955    -1.50315905028694
H   8   1     3.32037363730244    -2.26721897153159    -0.13599698591495
C   9   6     3.45899267434009     0.28739631745591    -3.37437943254505
H   10   1     1.07662969841332    -2.94725144642667    -2.56541439481080
H   11   1    -2.67503415753480     0.18421555839588    -3.06194479365997
H   12   1    -1.07974048864772     3.03851734677796    -2.43674295017013
C   13   6    -4.21607110578555     2.32938802552922     0.11994162256091
H   14   1     4.24440173074564     1.93368664142019    -2.34976285512790
H   15   1     2.15020713235517     1.04714335134846    -4.81494497423699
C   16   6     5.60746363007797    -1.12419643481196    -4.70268606082550
H   17   1    -3.46838323670267     3.50951302338067     1.66946842715333
H   18   1    -5.11873485366228     0.68575958301209     1.04047743976495
C   19   6    -6.18314754751344     3.80909592987882    -1.39656589068747
H   20   1     6.93011263717176    -1.87550812453645    -3.26656317360070
C   21   6     7.06356622236532     0.52877932406334    -6.57829775293605
H   22   1     4.82318879258361    -2.78573437948532    -5.70504560381835
H   23   1    -6.91582688743803     2.61304780074712    -2.95074552451969
H   24   1    -5.26532430573853     5.45420349051338    -2.31005832200284
C   25   6    -8.39941882261433     4.73263980500213     0.21800571437956
H   26   1     7.83338371486801     2.19084139882824    -5.57093109900697
H   27   1     5.73544244039420     1.27376866537418    -8.01071492370229
C   28   6     9.21124858443101    -0.89699110072176    -7.88926949186242
H   29   1    -7.66272760055236     5.92277078003992     1.77035591474408
H   30   1    -9.31497248082589     3.08753015622020     1.12614408368786
C   31   6   -10.35481709231879     6.21833079391143    -1.30905206253246
H   32   1    10.58815905329501    -1.61074586756696    -6.49512691622620
H   33   1    10.23506248045667     0.32468009384095    -9.23072870921204
H   34   1     8.47665842847139    -2.53598436989925    -8.94921964622535
H   35   1    -9.48948872868064     7.90013588951020    -2.18823918416067
H   36   1   -11.93332513000955     6.86460487874102    -0.11255798845995
H   37   1   -11.15126291841033     5.04495968327630    -2.83849898862534
[GTO]
1 0
 s    8 1.00
                 11720  0.00070964594651845
                  1759  0.0054672722921914
                 400.8   0.027823118610189
                 113.7    0.10474773971146
                 37.03    0.28292084635691
                 13.27    0.44849523869833
                 5.025    0.27081688521277
                 1.013    0.01545029160744
 s    8 1.00
                 11720  -0.00031444341168873
                  1759  -0.0024821376810179
                 400.8  -0.012316355381583
                 113.7  -0.050538917343672
                 37.03   -0.13938490331632
                 13.27   -0.32507749481778
                 5.025   -0.22984830758785
                 1.013     1.0953793467883
 s    1 1.00
                0.3023                   1
 p    3 1.00
                  17.7   0.062679166281506
                 3.854    0.33353656587936
                 1.046    0.74123964163973
 p    1 1.00
                0.2753                   1
 d    1 1.00
                 1.185                   1

2 0
 s    3 1.00
                 13.01   0.033498726389998
                 1.962    0.23480080117413
                0.4446     0.8136829578829
 s    1 1.00
                 0.122                   1
 p    1 1.00
                 0.727                   1

3 0
 s    3 1.00
                 13.01   0.033498726389998
                 1.962    0.23480080117413
                0.4446     0.8136829578829
 s    1 1.00
                 0.122                   1
 p    1 1.00
                 0.727                   1

4 0
 s    8 1.00
                 11720  0.00070964594651845
                  1759  0.0054672722921914
                 400.8   0.027823118610189
                 113.7    0.10474773971146
                 37.03    0.28292084635691
                 13.27    0.44849523869833
                 5.025    0.27081688521277
                 1.013    0.01545029160744
 s    8 1.00
                 11720  -0.00031444341168873
                  1759  -0.0024821376810179
                 400.8  -0.012316355381583
                 113.7  -0.050538917343672
                 37.03   -0.13938490331632
                 13.27   -0.32507749481778
                 5.025   -0.22984830758785
                 1.013     1.0953793467883
 s    1 1.00
                0.3023                   1
 p    3 1.00
                  17.7   0.062679166281506
                 3.854    0.33353656587936
                 1.046    0.74123964163973
 p    1 1.00
                0.2753                   1
 d    1 1.00
                 1.185                   1

5 0
 s    8 1.00
                  6665  0.00069158396281299
                  1000  0.0053257961529341
                   228   0.027060721042034
                 64.71    0.10165684614077
                 21.06     0.2745748236174
                 7.495    0.44829431892377
                 2.797    0.28490261071525
                0.5215   0.015194859206082
 s    8 1.00
                  6665  -0.00029326965268655
                  1000  -0.0023180354739745
                   228  -0.011499786038565
                 64.71  -0.046826727009787
                 21.06   -0.12846616875047
                 7.495   -0.30126627246289
                 2.797   -0.25563070233011
                0.5215      1.093793361012
 s    1 1.00
                0.1596                   1
 p    3 1.00
                 9.439   0.056979251590039
                 2.002    0.31320721150073
                0.5456    0.76037674173753
 p    1 1.00
                0.1517                   1
 d    1 1.00
                  0.55                   1

6 0
 s    8 1.00
                  6665  0.00069158396281299
                  1000  0.0053257961529341
                   228   0.027060721042034
                 64.71    0.10165684614077
                 21.06     0.2745748236174
                 7.495    0.44829431892377
                 2.797    0.28490261071525
                0.5215   0.015194859206082
 s    8 1.00
                  6665  -0.00029326965268655
                  1000  -0.0023180354739745
                   228  -0.011499786038565
                 64.71  -0.046826727009787
                 21.06   -0.12846616875047
                 7.495   -0.30126627246289
                 2.797   -0.25563070233011
                0.5215      1.093793361012
 s    1 1.00
                0.1596                   1
 p    3 1.00
                 9.439   0.056979251590039
                 2.002    0.31320721150073
                0.5456    0.76037674173753
 p    1 1.00
                0.1517                   1
 d    1 1.00
                  0.55                   1

7 0
 s    8 1.00
                  6665  0.00069158396281299
                  1000  0.0053257961529341
                   228   0.027060721042034
                 64.71    0.10165684614077
                 21.06     0.2745748236174
                 7.495    0.44829431892377
                 2.797    0.28490261071525
                0.5215   0.015194859206082
 s    8 1.00
                  6665  -0.00029326965268655
                  1000  -0.0023180354739745
                   228  -0.011499786038565
                 64.71  -0.046826727009787
                 21.06   -0.12846616875047
                 7.495   -0.30126627246289
                 2.797   -0.25563070233011
                0.5215      1.093793361012
 s    1 1.00
                0.1596                   1
 p    3 1.00
                 9.439   0.056979251590039
                 2.002    0.31320721150073
                0.5456    0.76037674173753
 p    1 1.00
                0.1517                   1
 d    1 1.00
                  0.55                   1

8 0
 s    3 1.00
                 13.01   0.033498726389998
                 1.962    0.23480080117413
                0.4446     0.8136829578829
 s    1 1.00
                 0.122                   1
 p    1 1.00
                 0.727                   1

9 0
 s    8 1.00
                  6665  0.00069158396281299
                  1000  0.0053257961529341
                   228   0.027060721042034
                 64.71    0.10165684614077
                 21.06     0.2745748236174
                 7.495    0.44829431892377
                 2.797    0.28490261071525
                0.5215   0.015194859206082
 s    8 1.00
                  6665  -0.00029326965268655
                  1000  -0.0023180354739745
                   228  -0.011499786038565
                 64.71  -0.046826727009787
                 21.06   -0.12846616875047
                 7.495   -0.30126627246289
                 2.797   -0.25563070233011
                0.5215      1.093793361012
 s    1 1.00
                0.1596                   1
 p    3 1.00
                 9.439   0.056979251590039
                 2.002    0.31320721150073
                0.5456    0.76037674173753
 p    1 1.00
                0.1517                   1
 d    1 1.00
                  0.55                   1

10 0
 s    3 1.00
                 13.01   0.033498726389998
                 1.962    0.23480080117413
                0.4446     0.8136829578829
 s    1 1.00
                 0.122                   1
 p    1 1.00
                 0.727                   1

11 0
 s    3 1.00
                 13.01   0.033498726389998
                 1.962    0.23480080117413
                0.4446     0.8136829578829
 s    1 1.00
                 0.122                   1
 p    1 1.00
                 0.727                   1

12 0
 s    3 1.00
                 13.01   0.033498726389998
                 1.962    0.23480080117413
                0.4446     0.8136829578829
 s    1 1.00
                 0.122                   1
 p    1 1.00
                 0.727                   1

13 0
 s    8 1.00
                  6665  0.00069158396281299
                  1000  0.0053257961529341
                   228   0.027060721042034
                 64.71    0.10165684614077
                 21.06     0.2745748236174
                 7.495    0.44829431892377
                 2.797    0.28490261071525
                0.5215   0.015194859206082
 s    8 1.00
                  6665  -0.00029326965268655
                  1000  -0.0023180354739745
                   228  -0.011499786038565
                 64.71  -0.046826727009787
                 21.06   -0.12846616875047
                 7.495   -0.30126627246289
                 2.797   -0.25563070233011
                0.5215      1.093793361012
 s    1 1.00
                0.1596                   1
 p    3 1.00
                 9.439   0.056979251590039
                 2.002    0.31320721150073
                0.5456    0.76037674173753
 p    1 1.00
                0.1517                   1
 d    1 1.00
                  0.55                   1

14 0
 s    3 1.00
                 13.01   0.033498726389998
                 1.962    0.23480080117413
                0.4446     0.8136829578829
 s    1 1.00
                 0.122                   1
 p    1 1.00
                 0.727                   1

15 0
 s    3 1.00
                 13.01   0.033498726389998
                 1.962    0.23480080117413
                0.4446     0.8136829578829
 s    1 1.00
                 0.122                   1
 p    1 1.00
                 0.727                   1

16 0
 s    8 1.00
                  6665  0.00069158396281299
                  1000  0.0053257961529341
                   228   0.027060721042034
                 64.71    0.10165684614077
                 21.06     0.2745748236174
                 7.495    0.44829431892377
                 2.797    0.28490261071525
                0.5215   0.015194859206082
 s    8 1.00
                  6665  -0.00029326965268655
                  1000  -0.0023180354739745
                   228  -0.011499786038565
                 64.71  -0.046826727009787
                 21.06   -0.12846616875047
                 7.495   -0.30126627246289
                 2.797   -0.25563070233011
                0.5215      1.093793361012
 s    1 1.00
                0.1596                   1
 p    3 1.00
                 9.439   0.056979251590039
                 2.002    0.31320721150073
                0.5456    0.76037674173753
 p    1 1.00
                0.1517                   1
 d    1 1.00
                  0.55                   1

17 0
 s    3 1.00
                 13.01   0.033498726389998
                 1.962    0.23480080117413
                0.4446     0.8136829578829
 s    1 1.00
                 0.122                   1
 p    1 1.00
                 0.727                   1

18 0
 s    3 1.00
                 13.01   0.033498726389998
                 1.962    0.23480080117413
                0.4446     0.8136829578829
 s    1 1.00
                 0.122                   1
 p    1 1.00
                 0.727                   1

19 0
 s    8 1.00
                  6665  0.00069158396281299
                  1000  0.0053257961529341
                   228   0.027060721042034
                 64.71    0.10165684614077
                 21.06     0.2745748236174
                 7.495    0.44829431892377
                 2.797    0.28490261071525
                0.5215   0.015194859206082
 s    8 1.00
                  6665  -0.00029326965268655
                  1000  -0.0023180354739745
                   228  -0.011499786038565
                 64.71  -0.046826727009787
                 21.06   -0.12846616875047
                 7.495   -0.30126627246289
                 2.797   -0.25563070233011
                0.5215      1.093793361012
 s    1 1.00
                0.1596                   1
 p    3 1.00
                 9.439   0.056979251590039
                 2.002    0.31320721150073
                0.5456    0.76037674173753
 p    1 1.00
                0.1517                   1
 d    1 1.00
                  0.55                   1

20 0
 s    3 1.00
                 13.01   0.033498726389998
                 1.962    0.23480080117413
                0.4446     0.8136829578829
 s    1 1.00
                 0.122                   1
 p    1 1.00
                 0.727                   1

21 0
 s    8 1.00
                  6665  0.00069158396281299
                  1000  0.0053257961529341
                   228   0.027060721042034
                 64.71    0.10165684614077
                 21.06     0.2745748236174
                 7.495    0.44829431892377
                 2.797    0.28490261071525
                0.5215   0.015194859206082
 s    8 1.00
                  6665  -0.00029326965268655
                  1000  -0.0023180354739745
                   228  -0.011499786038565
                 64.71  -0.046826727009787
                 21.06   -0.12846616875047
                 7.495   -0.30126627246289
                 2.797   -0.25563070233011
                0.5215      1.093793361012
 s    1 1.00
                0.1596                   1
 p    3 1.00
                 9.439   0.056979251590039
                 2.002    0.31320721150073
                0.5456    0.76037674173753
 p    1 1.00
                0.1517                   1
 d    1 1.00
                  0.55                   1

22 0
 s    3 1.00
                 13.01   0.033498726389998
                 1.962    0.23480080117413
                0.4446     0.8136829578829
 s    1 1.00
                 0.122                   1
 p    1 1.00
                 0.727                   1

23 0
 s    3 1.00
                 13.01   0.033498726389998
                 1.962    0.23480080117413
                0.4446     0.8136829578829
 s    1 1.00
                 0.122                   1
 p    1 1.00
                 0.727                   1

24 0
 s    3 1.00
                 13.01   0.033498726389998
                 1.962    0.23480080117413
                0.4446     0.8136829578829
 s    1 1.00
                 0.122                   1
 p    1 1.00
                 0.727                   1

25 0
 s    8 1.00
                  6665  0.00069158396281299
                  1000  0.0053257961529341
                   228   0.027060721042034
                 64.71    0.10165684614077
                 21.06     0.2745748236174
                 7.495    0.44829431892377
                 2.797    0.28490261071525
                0.5215   0.015194859206082
 s    8 1.00
                  6665  -0.00029326965268655
                  1000  -0.0023180354739745
                   228  -0.011499786038565
                 64.71  -0.046826727009787
                 21.06   -0.12846616875047
                 7.495   -0.30126627246289
                 2.797   -0.25563070233011
                0.5215      1.093793361012
 s    1 1.00
                0.1596                   1
 p    3 1.00
                 9.439   0.056979251590039
                 2.002    0.31320721150073
                0.5456    0.76037674173753
 p    1 1.00
                0.1517                   1
 d    1 1.00
                  0.55                   1

26 0
 s    3 1.00
                 13.01   0.033498726389998
                 1.962    0.23480080117413
                0.4446     0.8136829578829
 s    1 1.00
                 0.122                   1
 p    1 1.00
                 0.727                   1

27 0
 s    3 1.00
                 13.01   0.033498726389998
                 1.962    0.23480080117413
                0.4446     0.8136829578829
 s    1 1.00
                 0.122                   1
 p    1 1.00
                 0.727                   1

28 0
 s    8 1.00
                  6665  0.00069158396281299
                  1000  0.0053257961529341
                   228   0.027060721042034
                 64.71    0.10165684614077
                 21.06     0.2745748236174
                 7.495    0.44829431892377
                 2.797    0.28490261071525
                0.5215   0.015194859206082
 s    8 1.00
                  6665  -0.00029326965268655
                  1000  -0.0023180354739745
                   228  -0.011499786038565
                 64.71  -0.046826727009787
                 21.06   -0.12846616875047
                 7.495   -0.30126627246289
                 2.797   -0.25563070233011
                0.5215      1.093793361012
 s    1 1.00
                0.1596                   1
 p    3 1.00
                 9.439   0.056979251590039
                 2.002    0.31320721150073
                0.5456    0.76037674173753
 p    1 1.00
                0.1517                   1
 d    1 1.00
                  0.55                   1

29 0
 s    3 1.00
                 13.01   0.033498726389998
                 1.962    0.23480080117413
                0.4446     0.8136829578829
 s    1 1.00
                 0.122                   1
 p    1 1.00
                 0.727                   1

30 0
 s    3 1.00
                 13.01   0.033498726389998
                 1.962    0.23480080117413
                0.4446     0.8136829578829
 s    1 1.00
                 0.122                   1
 p    1 1.00
                 0.727                   1

31 0
 s    8 1.00
                  6665  0.00069158396281299
                  1000  0.0053257961529341
                   228   0.027060721042034
                 64.71    0.10165684614077
                 21.06     0.2745748236174
                 7.495    0.44829431892377
                 2.797    0.28490261071525
                0.5215   0.015194859206082
 s    8 1.00
                  6665  -0.00029326965268655
                  1000  -0.0023180354739745
                   228  -0.011499786038565
                 64.71  -0.046826727009787
                 21.06   -0.12846616875047
                 7.495   -0.30126627246289
                 2.797   -0.25563070233011
                0.5215      1.093793361012
 s    1 1.00
                0.1596                   1
 p    3 1.00
                 9.439   0.056979251590039
                 2.002    0.31320721150073
                0.5456    0.76037674173753
 p    1 1.00
                0.1517                   1
 d    1 1.00
                  0.55                   1

32 0
 s    3 1.00
                 13.01   0.033498726389998
                 1.962    0.23480080117413
                0.4446     0.8136829578829
 s    1 1.00
                 0.122                   1
 p    1 1.00
                 0.727                   1

33 0
 s    3 1.00
                 13.01   0.033498726389998
                 1.962    0.23480080117413
                0.4446     0.8136829578829
 s    1 1.00
                 0.122                   1
 p    1 1.00
                 0.727                   1

34 0
 s    3 1.00
                 13.01   0.033498726389998
                 1.962    0.23480080117413
                0.4446     0.8136829578829
 s    1 1.00
                 0.122                   1
 p    1 1.00
                 0.727                   1

35 0
 s    3 1.00
                 13.01   0.033498726389998
                 1.962    0.23480080117413
                0.4446     0.8136829578829
 s    1 1.00
                 0.122                   1
 p    1 1.00
                 0.727                   1

36 0
 s    3 1.00
                 13.01   0.033498726389998
                 1.962    0.23480080117413
                0.4446     0.8136829578829
 s    1 1.00
                 0.122                   1
 p    1 1.00
                 0.727                   1

37 0
 s    3 1.00
                 13.01   0.033498726389998
                 1.962    0.23480080117413
                0.4446     0.8136829578829
 s    1 1.00
                 0.122                   1
 p    1 1.00
                 0.727                   1

[5d]
[7f]
[9g]

[MO]
 Sym= A
 Ene=               0
 Spin= Alpha
 Occup=    1.00000
   1    6.7171606756459e-05
   2    4.4001326404151e-05
   3    -0.00013871539981942
   4    -2.7668965529697e-07
   5    -5.2625082255184e-06
   6    -5.3993947013854e-06
   7    8.7155115328423e-08
   8    2.3758582580313e-05
   9    5.5004967845614e-05
  10    -6.084532549188e-06
  11    2.2109204671522e-07
  12    -1.8497033301537e-06
  13    -1.2044534071189e-06
  14    -2.4476110498735e-08
  15    5.8721662065625e-05
  16    0.00023106787254851
  17    8.1390655602006e-07
  18    -2.8318075154596e-06
  19    -1.3548318601154e-05
  20    4.6699885371215e-07
  21    -5.363259246505e-05
  22    -1.499980433906e-07
  23    -5.4329958909982e-07
  24    5.1055923521978e-06
  25      -1.0013869365337
  26    -0.0020127347686808
  27    0.0069970037355445
  28    5.4241870823343e-06
  29    -1.2491490468774e-05
  30    0.0016270807671521
  31    2.5100787526647e-07
  32    3.7730100062208e-06
  33    -0.0020073566174009
  34    -0.00010532772764035
  35    2.7604614910284e-06
  36    -1.5347726670517e-06
  37    -6.5666833019842e-05
  38    0.00017094571832679
  39    -0.00029523248342029
  40    -0.00041818035718721
  41    -0.0015824893205827
  42    -1.6261773180535e-05
  43    1.0004998833023e-05
  44    -3.5971869768156e-05
  45    -8.4831641028155e-05
  46    6.7356939416012e-05
  47    -0.0037270390970819
  48    0.00049431735821676
  49    8.203505218688e-06
  50    -2.7445213624691e-06
  51    -3.0490427428753e-05
  52    0.0001119977597128
  53    8.398246113318e-05
  54    0.00016440608928022
  55    -0.0013932382540841
  56    -7.8847115119483e-05
  57    7.1200749556112e-06
  58    3.3698456300528e-05
  59    0.00043085948328503
  60    -0.00048508749048498
  61    0.00099206992426814
  62    0.00011555183283687
  63    -0.00014964228575163
  64    0.00014348262879543
  65    -5.394049712962e-05
  66    0.00012597835684146
  67    3.7780196962847e-05
  68    9.3988180575778e-05
  69    -0.00052312312333779
  70    6.2392919353189e-05
  71    -4.1639160149755e-05
  72    6.1488764713109e-05
  73    -0.0010252348372203
  74    0.0007879324681562
  75    0.00067214967127399
  76    0.00013897427291346
  77    0.0001214674542079
  78    -8.9752466309588e-05
  79    -5.81345887794e-05
  80    0.00014915402870968
  81    5.7403042297002e-05
  82    -0.00022200166442066
  83    -6.7332433723831e-05
  84    4.942060205732e-05
  85    -4.6495077792996e-05
  86    -2.5002266877187e-05
  87    -4.8920568749865e-05
  88    0.00062827822749863
  89    1.5593446815311e-05
  90    1.7354469517365e-05
  91    -1.0987710232969e-05
  92    -0.00026430050046561
  93    -0.00065746166319107
  94    9.3227207581995e-06
  95    -1.9319987365717e-05
  96    -1.1637097503536e-05
  97    -8.258883284527e-06
  98    1.9022430443821e-05
  99    4.9380941548996e-05
 100    4.2105814855311e-05
 101    0.00016783174255229
 102    -5.6917166067283e-06
 103    1.0981955966872e-05
 104    -7.8193645114844e-05
 105    2.0131223868507e-05
 106    0.0002091822637603
 107    6.3768682248177e-05
 108    -7.3300602861389e-06
 109    -7.7095458331515e-05
 110    -7.8580779703968e-05
 111    6.8052680367516e-05
 112    4.3791530312018e-05
 113    -2.05992059587e-05
 114    -7.2136317791925e-05
 115    4.7893420529728e-05
 116    9.7683733299257e-05
 117    -0.00085859106791186
 118    2.3990803932045e-05
 119    1.1624664109215e-05
 120    -3.1846932870055e-05
 121    -0.00028413542977128
 122    -3.9228387139553e-05
 123    0.00015912877492875
 124    5.8581500912169e-06
 125    -1.0306095851273e-05
 126    -1.4943046375842e-05
 127    3.2434584871201e-05
 128    -5.1641228745143e-05
 129    2.0334380708746e-05
 130    0.00034132718304022
 131    -8.2486340082915e-06
 132    -6.0201985327368e-06
 133    -2.9773719378253e-05
 134    -2.5629866356697e-05
 135    0.00011718036145938
 136    1.3897565169999e-05
 137    2.5570891759302e-05
 138    2.7797073279316e-05
 139    2.2231235568275e-05
 140    4.0520193451086e-05
 141    -0.0003096968205487
 142    -7.7083863501797e-06
 143    3.0928108496721e-06
 144    5.9972373894643e-06
 145    0.00023253655232108
 146    -6.0893110017664e-05
 147    -5.8814224482812e-05
 148    2.6192914685264e-06
 149    -3.382543957479e-06
 150    4.8194353686523e-06
 151    -1.2894859621262e-05
 152    4.7511004421332e-06
 153    9.8367170047666e-05
 154    9.4264402352149e-05
 155    2.684314625673e-05
 156    -2.7715706819907e-05
 157    -1.9188403852675e-05
 158    2.6304955837196e-05
 159    8.5432915929894e-05
 160    5.9240325658171e-05
 161    7.4647105830905e-06
 162    -6.8432672352725e-06
 163    -2.4179973471175e-06
 164    4.6553341253714e-06
 165    0.00026599068184217
 166    1.7153331560899e-05
 167    -1.3442807858015e-05
 168    -7.3038668051311e-06
 169    -0.00023404221047066
 170    0.00021065619190986
 171    0.00014147950263172
 172    2.3130515488601e-06
 173    -1.0281571134221e-05
 174    1.3733180191724e-05
 175    -3.0176177678293e-06
 176    1.7873812194106e-05
 177    1.6635016977833e-05
 178    -8.6945889944141e-05
 179    1.2474968716503e-06
 180    -1.5625791579583e-06
 181    4.6129426851585e-06
 182    -2.3775933236817e-05
 183    -2.9509256789663e-05
 184    8.0702961441187e-05
 185    4.358749752696e-06
 186    -4.0329477219367e-06
 187    -5.1482552668736e-06
 188    -0.00013224760327765
 189    0.00010207482186631
 190    9.2389746410628e-05
 191    -1.2128446943159e-06
 192    -2.3515607088863e-06
 193    7.5790476040979e-06
 194    2.9943258089142e-06
 195    5.7629137809112e-06
 196    1.3136467699779e-05
 197    1.9729265490135e-05
 198    -5.6784088443062e-06
 199    -1.9267754864864e-06
 200    3.1523009281892e-06
 201    1.3677910380583e-05
 202    -1.3372372932741e-06
 203    1.3553476315404e-05
 204    -9.7716871720443e-06
 205    -1.1741965764415e-05
 206    -8.0611714953307e-06
 207    -6.8832655412707e-05
 208    1.6015188063369e-05
 209    -4.0095640780779e-06
 210    -1.5995407451317e-05
 211    -1.8067667781717e-06
 212    3.7486609741848e-05
 213    -0.00026572760908481
 214    -7.2528963156279e-06
 215    5.1100486486019e-06
 216    4.0510085130734e-06
 217    -0.00019510801778606
 218    5.2896329577569e-05
 219    7.8871588619976e-05
 220    2.1541521692109e-06
 221    1.6726129315774e-05
 222    -5.8564042987019e-06
 223    -9.4571659081881e-06
 224    1.4631891380144e-06
 225    -2.7086072148247e-05
 226    -5.7228101348838e-05
 227    1.2679088608408e-05
 228    2.2224648483745e-06
 229    9.9202453561422e-07
 230    -1.0563566575587e-05
 231    -5.4656689424657e-05
 232    4.1073293427955e-06
 233    -6.5230525916391e-06
 234    -1.2271616462124e-05
 235    -1.1237099781184e-06
 236    -2.2237603744541e-06
 237    7.8912119425656e-05
 238    -2.5635387556518e-06
 239    -2.5353822747587e-06
 240    4.2780437736725e-06
 241    -3.6948326168734e-05
 242    6.387109738816e-05
 243    -1.8141647534312e-05
 244    -2.0001396670935e-06
 245    -1.898527240503e-06
 246    1.8987304858143e-06
 247    -1.3483632321465e-07
 248    -9.3725360805722e-07
 249    1.9852380973565e-05
 250    -9.5381220142113e-06
 251    4.2341301720355e-06
 252    6.716940635723e-07
 253    -4.500213347925e-07
 254    1.7289800291366e-05
 255    -5.592211263943e-05
 256    -2.3361812388917e-07
 257    -4.0422147741863e-06
 258    6.7137209279528e-07
 259    1.8418221432532e-05
 260    2.9369834110592e-05
 261    -6.5551837394073e-05
 262    8.1955642351301e-06