[Molden Format]
made by pyscf v[2.0.1]
[Atoms] (AU)
O   1   8     0.00000000000000     0.00000000000000    10.94175058546756
H   2   1     0.00000000000000     0.00000000000000     9.11834876356659
H   3   1    -0.05031916615174     1.78353065140343    11.31762228193423
O   4   8     0.00000000000000     0.00000000000000     2.31533471513237
C   5   6     0.00000000000000     0.00000000000000     0.00000000000000
C   6   6     2.01118073026938    -1.40227222164369    -1.50774939176400
C   7   6    -2.01249334291722     1.41331050329955    -1.50315905028694
H   8   1     3.32037363730244    -2.26721897153159    -0.13599698591495
C   9   6     3.45899267434009     0.28739631745591    -3.37437943254505
H   10   1     1.07662969841332    -2.94725144642667    -2.56541439481080
H   11   1    -2.67503415753480     0.18421555839588    -3.06194479365997
H   12   1    -1.07974048864772     3.03851734677796    -2.43674295017013
C   13   6    -4.21607110578555     2.32938802552922     0.11994162256091
H   14   1     4.24440173074564     1.93368664142019    -2.34976285512790
H   15   1     2.15020713235517     1.04714335134846    -4.81494497423699
C   16   6     5.60746363007797    -1.12419643481196    -4.70268606082550
H   17   1    -3.46838323670267     3.50951302338067     1.66946842715333
H   18   1    -5.11873485366228     0.68575958301209     1.04047743976495
C   19   6    -6.18314754751344     3.80909592987882    -1.39656589068747
H   20   1     6.93011263717176    -1.87550812453645    -3.26656317360070
C   21   6     7.06356622236532     0.52877932406334    -6.57829775293605
H   22   1     4.82318879258361    -2.78573437948532    -5.70504560381835
H   23   1    -6.91582688743803     2.61304780074712    -2.95074552451969
H   24   1    -5.26532430573853     5.45420349051338    -2.31005832200284
C   25   6    -8.39941882261433     4.73263980500213     0.21800571437956
H   26   1     7.83338371486801     2.19084139882824    -5.57093109900697
H   27   1     5.73544244039420     1.27376866537418    -8.01071492370229
C   28   6     9.21124858443101    -0.89699110072176    -7.88926949186242
H   29   1    -7.66272760055236     5.92277078003992     1.77035591474408
H   30   1    -9.31497248082589     3.08753015622020     1.12614408368786
C   31   6   -10.35481709231879     6.21833079391143    -1.30905206253246
H   32   1    10.58815905329501    -1.61074586756696    -6.49512691622620
H   33   1    10.23506248045667     0.32468009384095    -9.23072870921204
H   34   1     8.47665842847139    -2.53598436989925    -8.94921964622535
H   35   1    -9.48948872868064     7.90013588951020    -2.18823918416067
H   36   1   -11.93332513000955     6.86460487874102    -0.11255798845995
H   37   1   -11.15126291841033     5.04495968327630    -2.83849898862534
[GTO]
1 0
 s    8 1.00
                 11720  0.00070964594651845
                  1759  0.0054672722921914
                 400.8   0.027823118610189
                 113.7    0.10474773971146
                 37.03    0.28292084635691
                 13.27    0.44849523869833
                 5.025    0.27081688521277
                 1.013    0.01545029160744
 s    8 1.00
                 11720  -0.00031444341168873
                  1759  -0.0024821376810179
                 400.8  -0.012316355381583
                 113.7  -0.050538917343672
                 37.03   -0.13938490331632
                 13.27   -0.32507749481778
                 5.025   -0.22984830758785
                 1.013     1.0953793467883
 s    1 1.00
                0.3023                   1
 p    3 1.00
                  17.7   0.062679166281506
                 3.854    0.33353656587936
                 1.046    0.74123964163973
 p    1 1.00
                0.2753                   1
 d    1 1.00
                 1.185                   1

2 0
 s    3 1.00
                 13.01   0.033498726389998
                 1.962    0.23480080117413
                0.4446     0.8136829578829
 s    1 1.00
                 0.122                   1
 p    1 1.00
                 0.727                   1

3 0
 s    3 1.00
                 13.01   0.033498726389998
                 1.962    0.23480080117413
                0.4446     0.8136829578829
 s    1 1.00
                 0.122                   1
 p    1 1.00
                 0.727                   1

4 0
 s    8 1.00
                 11720  0.00070964594651845
                  1759  0.0054672722921914
                 400.8   0.027823118610189
                 113.7    0.10474773971146
                 37.03    0.28292084635691
                 13.27    0.44849523869833
                 5.025    0.27081688521277
                 1.013    0.01545029160744
 s    8 1.00
                 11720  -0.00031444341168873
                  1759  -0.0024821376810179
                 400.8  -0.012316355381583
                 113.7  -0.050538917343672
                 37.03   -0.13938490331632
                 13.27   -0.32507749481778
                 5.025   -0.22984830758785
                 1.013     1.0953793467883
 s    1 1.00
                0.3023                   1
 p    3 1.00
                  17.7   0.062679166281506
                 3.854    0.33353656587936
                 1.046    0.74123964163973
 p    1 1.00
                0.2753                   1
 d    1 1.00
                 1.185                   1

5 0
 s    8 1.00
                  6665  0.00069158396281299
                  1000  0.0053257961529341
                   228   0.027060721042034
                 64.71    0.10165684614077
                 21.06     0.2745748236174
                 7.495    0.44829431892377
                 2.797    0.28490261071525
                0.5215   0.015194859206082
 s    8 1.00
                  6665  -0.00029326965268655
                  1000  -0.0023180354739745
                   228  -0.011499786038565
                 64.71  -0.046826727009787
                 21.06   -0.12846616875047
                 7.495   -0.30126627246289
                 2.797   -0.25563070233011
                0.5215      1.093793361012
 s    1 1.00
                0.1596                   1
 p    3 1.00
                 9.439   0.056979251590039
                 2.002    0.31320721150073
                0.5456    0.76037674173753
 p    1 1.00
                0.1517                   1
 d    1 1.00
                  0.55                   1

6 0
 s    8 1.00
                  6665  0.00069158396281299
                  1000  0.0053257961529341
                   228   0.027060721042034
                 64.71    0.10165684614077
                 21.06     0.2745748236174
                 7.495    0.44829431892377
                 2.797    0.28490261071525
                0.5215   0.015194859206082
 s    8 1.00
                  6665  -0.00029326965268655
                  1000  -0.0023180354739745
                   228  -0.011499786038565
                 64.71  -0.046826727009787
                 21.06   -0.12846616875047
                 7.495   -0.30126627246289
                 2.797   -0.25563070233011
                0.5215      1.093793361012
 s    1 1.00
                0.1596                   1
 p    3 1.00
                 9.439   0.056979251590039
                 2.002    0.31320721150073
                0.5456    0.76037674173753
 p    1 1.00
                0.1517                   1
 d    1 1.00
                  0.55                   1

7 0
 s    8 1.00
                  6665  0.00069158396281299
                  1000  0.0053257961529341
                   228   0.027060721042034
                 64.71    0.10165684614077
                 21.06     0.2745748236174
                 7.495    0.44829431892377
                 2.797    0.28490261071525
                0.5215   0.015194859206082
 s    8 1.00
                  6665  -0.00029326965268655
                  1000  -0.0023180354739745
                   228  -0.011499786038565
                 64.71  -0.046826727009787
                 21.06   -0.12846616875047
                 7.495   -0.30126627246289
                 2.797   -0.25563070233011
                0.5215      1.093793361012
 s    1 1.00
                0.1596                   1
 p    3 1.00
                 9.439   0.056979251590039
                 2.002    0.31320721150073
                0.5456    0.76037674173753
 p    1 1.00
                0.1517                   1
 d    1 1.00
                  0.55                   1

8 0
 s    3 1.00
                 13.01   0.033498726389998
                 1.962    0.23480080117413
                0.4446     0.8136829578829
 s    1 1.00
                 0.122                   1
 p    1 1.00
                 0.727                   1

9 0
 s    8 1.00
                  6665  0.00069158396281299
                  1000  0.0053257961529341
                   228   0.027060721042034
                 64.71    0.10165684614077
                 21.06     0.2745748236174
                 7.495    0.44829431892377
                 2.797    0.28490261071525
                0.5215   0.015194859206082
 s    8 1.00
                  6665  -0.00029326965268655
                  1000  -0.0023180354739745
                   228  -0.011499786038565
                 64.71  -0.046826727009787
                 21.06   -0.12846616875047
                 7.495   -0.30126627246289
                 2.797   -0.25563070233011
                0.5215      1.093793361012
 s    1 1.00
                0.1596                   1
 p    3 1.00
                 9.439   0.056979251590039
                 2.002    0.31320721150073
                0.5456    0.76037674173753
 p    1 1.00
                0.1517                   1
 d    1 1.00
                  0.55                   1

10 0
 s    3 1.00
                 13.01   0.033498726389998
                 1.962    0.23480080117413
                0.4446     0.8136829578829
 s    1 1.00
                 0.122                   1
 p    1 1.00
                 0.727                   1

11 0
 s    3 1.00
                 13.01   0.033498726389998
                 1.962    0.23480080117413
                0.4446     0.8136829578829
 s    1 1.00
                 0.122                   1
 p    1 1.00
                 0.727                   1

12 0
 s    3 1.00
                 13.01   0.033498726389998
                 1.962    0.23480080117413
                0.4446     0.8136829578829
 s    1 1.00
                 0.122                   1
 p    1 1.00
                 0.727                   1

13 0
 s    8 1.00
                  6665  0.00069158396281299
                  1000  0.0053257961529341
                   228   0.027060721042034
                 64.71    0.10165684614077
                 21.06     0.2745748236174
                 7.495    0.44829431892377
                 2.797    0.28490261071525
                0.5215   0.015194859206082
 s    8 1.00
                  6665  -0.00029326965268655
                  1000  -0.0023180354739745
                   228  -0.011499786038565
                 64.71  -0.046826727009787
                 21.06   -0.12846616875047
                 7.495   -0.30126627246289
                 2.797   -0.25563070233011
                0.5215      1.093793361012
 s    1 1.00
                0.1596                   1
 p    3 1.00
                 9.439   0.056979251590039
                 2.002    0.31320721150073
                0.5456    0.76037674173753
 p    1 1.00
                0.1517                   1
 d    1 1.00
                  0.55                   1

14 0
 s    3 1.00
                 13.01   0.033498726389998
                 1.962    0.23480080117413
                0.4446     0.8136829578829
 s    1 1.00
                 0.122                   1
 p    1 1.00
                 0.727                   1

15 0
 s    3 1.00
                 13.01   0.033498726389998
                 1.962    0.23480080117413
                0.4446     0.8136829578829
 s    1 1.00
                 0.122                   1
 p    1 1.00
                 0.727                   1

16 0
 s    8 1.00
                  6665  0.00069158396281299
                  1000  0.0053257961529341
                   228   0.027060721042034
                 64.71    0.10165684614077
                 21.06     0.2745748236174
                 7.495    0.44829431892377
                 2.797    0.28490261071525
                0.5215   0.015194859206082
 s    8 1.00
                  6665  -0.00029326965268655
                  1000  -0.0023180354739745
                   228  -0.011499786038565
                 64.71  -0.046826727009787
                 21.06   -0.12846616875047
                 7.495   -0.30126627246289
                 2.797   -0.25563070233011
                0.5215      1.093793361012
 s    1 1.00
                0.1596                   1
 p    3 1.00
                 9.439   0.056979251590039
                 2.002    0.31320721150073
                0.5456    0.76037674173753
 p    1 1.00
                0.1517                   1
 d    1 1.00
                  0.55                   1

17 0
 s    3 1.00
                 13.01   0.033498726389998
                 1.962    0.23480080117413
                0.4446     0.8136829578829
 s    1 1.00
                 0.122                   1
 p    1 1.00
                 0.727                   1

18 0
 s    3 1.00
                 13.01   0.033498726389998
                 1.962    0.23480080117413
                0.4446     0.8136829578829
 s    1 1.00
                 0.122                   1
 p    1 1.00
                 0.727                   1

19 0
 s    8 1.00
                  6665  0.00069158396281299
                  1000  0.0053257961529341
                   228   0.027060721042034
                 64.71    0.10165684614077
                 21.06     0.2745748236174
                 7.495    0.44829431892377
                 2.797    0.28490261071525
                0.5215   0.015194859206082
 s    8 1.00
                  6665  -0.00029326965268655
                  1000  -0.0023180354739745
                   228  -0.011499786038565
                 64.71  -0.046826727009787
                 21.06   -0.12846616875047
                 7.495   -0.30126627246289
                 2.797   -0.25563070233011
                0.5215      1.093793361012
 s    1 1.00
                0.1596                   1
 p    3 1.00
                 9.439   0.056979251590039
                 2.002    0.31320721150073
                0.5456    0.76037674173753
 p    1 1.00
                0.1517                   1
 d    1 1.00
                  0.55                   1

20 0
 s    3 1.00
                 13.01   0.033498726389998
                 1.962    0.23480080117413
                0.4446     0.8136829578829
 s    1 1.00
                 0.122                   1
 p    1 1.00
                 0.727                   1

21 0
 s    8 1.00
                  6665  0.00069158396281299
                  1000  0.0053257961529341
                   228   0.027060721042034
                 64.71    0.10165684614077
                 21.06     0.2745748236174
                 7.495    0.44829431892377
                 2.797    0.28490261071525
                0.5215   0.015194859206082
 s    8 1.00
                  6665  -0.00029326965268655
                  1000  -0.0023180354739745
                   228  -0.011499786038565
                 64.71  -0.046826727009787
                 21.06   -0.12846616875047
                 7.495   -0.30126627246289
                 2.797   -0.25563070233011
                0.5215      1.093793361012
 s    1 1.00
                0.1596                   1
 p    3 1.00
                 9.439   0.056979251590039
                 2.002    0.31320721150073
                0.5456    0.76037674173753
 p    1 1.00
                0.1517                   1
 d    1 1.00
                  0.55                   1

22 0
 s    3 1.00
                 13.01   0.033498726389998
                 1.962    0.23480080117413
                0.4446     0.8136829578829
 s    1 1.00
                 0.122                   1
 p    1 1.00
                 0.727                   1

23 0
 s    3 1.00
                 13.01   0.033498726389998
                 1.962    0.23480080117413
                0.4446     0.8136829578829
 s    1 1.00
                 0.122                   1
 p    1 1.00
                 0.727                   1

24 0
 s    3 1.00
                 13.01   0.033498726389998
                 1.962    0.23480080117413
                0.4446     0.8136829578829
 s    1 1.00
                 0.122                   1
 p    1 1.00
                 0.727                   1

25 0
 s    8 1.00
                  6665  0.00069158396281299
                  1000  0.0053257961529341
                   228   0.027060721042034
                 64.71    0.10165684614077
                 21.06     0.2745748236174
                 7.495    0.44829431892377
                 2.797    0.28490261071525
                0.5215   0.015194859206082
 s    8 1.00
                  6665  -0.00029326965268655
                  1000  -0.0023180354739745
                   228  -0.011499786038565
                 64.71  -0.046826727009787
                 21.06   -0.12846616875047
                 7.495   -0.30126627246289
                 2.797   -0.25563070233011
                0.5215      1.093793361012
 s    1 1.00
                0.1596                   1
 p    3 1.00
                 9.439   0.056979251590039
                 2.002    0.31320721150073
                0.5456    0.76037674173753
 p    1 1.00
                0.1517                   1
 d    1 1.00
                  0.55                   1

26 0
 s    3 1.00
                 13.01   0.033498726389998
                 1.962    0.23480080117413
                0.4446     0.8136829578829
 s    1 1.00
                 0.122                   1
 p    1 1.00
                 0.727                   1

27 0
 s    3 1.00
                 13.01   0.033498726389998
                 1.962    0.23480080117413
                0.4446     0.8136829578829
 s    1 1.00
                 0.122                   1
 p    1 1.00
                 0.727                   1

28 0
 s    8 1.00
                  6665  0.00069158396281299
                  1000  0.0053257961529341
                   228   0.027060721042034
                 64.71    0.10165684614077
                 21.06     0.2745748236174
                 7.495    0.44829431892377
                 2.797    0.28490261071525
                0.5215   0.015194859206082
 s    8 1.00
                  6665  -0.00029326965268655
                  1000  -0.0023180354739745
                   228  -0.011499786038565
                 64.71  -0.046826727009787
                 21.06   -0.12846616875047
                 7.495   -0.30126627246289
                 2.797   -0.25563070233011
                0.5215      1.093793361012
 s    1 1.00
                0.1596                   1
 p    3 1.00
                 9.439   0.056979251590039
                 2.002    0.31320721150073
                0.5456    0.76037674173753
 p    1 1.00
                0.1517                   1
 d    1 1.00
                  0.55                   1

29 0
 s    3 1.00
                 13.01   0.033498726389998
                 1.962    0.23480080117413
                0.4446     0.8136829578829
 s    1 1.00
                 0.122                   1
 p    1 1.00
                 0.727                   1

30 0
 s    3 1.00
                 13.01   0.033498726389998
                 1.962    0.23480080117413
                0.4446     0.8136829578829
 s    1 1.00
                 0.122                   1
 p    1 1.00
                 0.727                   1

31 0
 s    8 1.00
                  6665  0.00069158396281299
                  1000  0.0053257961529341
                   228   0.027060721042034
                 64.71    0.10165684614077
                 21.06     0.2745748236174
                 7.495    0.44829431892377
                 2.797    0.28490261071525
                0.5215   0.015194859206082
 s    8 1.00
                  6665  -0.00029326965268655
                  1000  -0.0023180354739745
                   228  -0.011499786038565
                 64.71  -0.046826727009787
                 21.06   -0.12846616875047
                 7.495   -0.30126627246289
                 2.797   -0.25563070233011
                0.5215      1.093793361012
 s    1 1.00
                0.1596                   1
 p    3 1.00
                 9.439   0.056979251590039
                 2.002    0.31320721150073
                0.5456    0.76037674173753
 p    1 1.00
                0.1517                   1
 d    1 1.00
                  0.55                   1

32 0
 s    3 1.00
                 13.01   0.033498726389998
                 1.962    0.23480080117413
                0.4446     0.8136829578829
 s    1 1.00
                 0.122                   1
 p    1 1.00
                 0.727                   1

33 0
 s    3 1.00
                 13.01   0.033498726389998
                 1.962    0.23480080117413
                0.4446     0.8136829578829
 s    1 1.00
                 0.122                   1
 p    1 1.00
                 0.727                   1

34 0
 s    3 1.00
                 13.01   0.033498726389998
                 1.962    0.23480080117413
                0.4446     0.8136829578829
 s    1 1.00
                 0.122                   1
 p    1 1.00
                 0.727                   1

35 0
 s    3 1.00
                 13.01   0.033498726389998
                 1.962    0.23480080117413
                0.4446     0.8136829578829
 s    1 1.00
                 0.122                   1
 p    1 1.00
                 0.727                   1

36 0
 s    3 1.00
                 13.01   0.033498726389998
                 1.962    0.23480080117413
                0.4446     0.8136829578829
 s    1 1.00
                 0.122                   1
 p    1 1.00
                 0.727                   1

37 0
 s    3 1.00
                 13.01   0.033498726389998
                 1.962    0.23480080117413
                0.4446     0.8136829578829
 s    1 1.00
                 0.122                   1
 p    1 1.00
                 0.727                   1

[5d]
[7f]
[9g]

[MO]
 Sym= A
 Ene=               0
 Spin= Alpha
 Occup=    1.00000
   1    2.9627810549931e-05
   2    1.6015836552643e-05
   3    -6.2601455467682e-05
   4    5.8639422698254e-08
   5    -2.3710530277003e-06
   6    3.2736702338528e-07
   7    -3.8651136829034e-07
   8    1.4146551299096e-05
   9    4.6814062814703e-05
  10    -8.7688557756539e-06
  11    -1.3601278341349e-08
  12    6.4164067674392e-07
  13    -5.6909338096237e-07
  14    -3.0943365899443e-08
  15    7.6414626654097e-06
  16    9.263640310281e-05
  17    4.032732741293e-08
  18    -8.8504326959383e-07
  19    2.7490642251899e-05
  20    3.5659822848104e-06
  21    -3.7937915063157e-05
  22    -1.3315141159667e-07
  23      4.5742860836e-06
  24    -1.3638383126431e-06
  25      -1.0013589992079
  26    -0.0019455685674609
  27    0.0067633135871725
  28    4.5082205096013e-06
  29    -7.6977808111627e-06
  30      0.00165922333466
  31    9.2625256816257e-07
  32    6.0374853511974e-07
  33    -0.0018109878881074
  34    -0.00012987873707992
  35    3.0351308664031e-06
  36    -1.3232167853263e-06
  37    -6.7651552450507e-05
  38    0.00017624194930044
  39    -0.00027224278833961
  40    -0.0003685088485985
  41    -0.0013919616143996
  42    -1.496704492887e-05
  43    1.0063351433344e-05
  44    1.415536449293e-05
  45    -8.79542269168e-05
  46    6.7016537673804e-05
  47    -0.0035326981745397
  48     0.000539941044181
  49    8.9108318195852e-06
  50    -2.7422031679579e-06
  51    -2.8456039005604e-05
  52    0.00010661908670482
  53    8.4871878566847e-05
  54    0.00016582930295394
  55    -0.0013636795139277
  56    -7.7898803442818e-05
  57    7.1310939080752e-06
  58    3.6174407220933e-05
  59    0.00042230374151807
  60    -0.00047484459601861
  61    0.00092271832480182
  62    0.00011797967466426
  63    -0.00015034780488993
  64    0.00014289738077256
  65    -5.5216383190334e-05
  66    0.00013055037237056
  67    4.1721319159182e-05
  68    9.8470240630572e-05
  69    -0.00052548670841081
  70    6.257244613503e-05
  71    -4.0199395515551e-05
  72    6.0535964442611e-05
  73    -0.00099665449355258
  74    0.00076943031232766
  75    0.00062892614525215
  76    0.00014190430645809
  77    0.00012013448364096
  78    -8.9554155879371e-05
  79    -5.9184074513207e-05
  80    0.00015265410017214
  81    6.5218299444062e-05
  82    -0.00020581442855518
  83    -6.5909488645129e-05
  84    4.8372344208355e-05
  85    -4.9209843075076e-05
  86    -2.5049408984222e-05
  87    -4.8647530476746e-05
  88    0.00060307173881278
  89    1.6338309577264e-05
  90    1.658749964246e-05
  91    -1.240807212263e-05
  92    -0.00025510973962829
  93    -0.00062227137491858
  94    1.8197641425968e-05
  95    -1.7980808035619e-05
  96    -1.1064060071228e-05
  97    -7.0630126984693e-06
  98    2.0783897655991e-05
  99    4.5390667502072e-05
 100    3.6722900740236e-05
 101    0.00015773044569235
 102    -9.5587151778136e-06
 103    9.6930202916519e-06
 104    -7.415634451607e-05
 105    1.8974748006343e-05
 106    0.00020111141590244
 107    6.4582819392647e-05
 108    -1.1649552135004e-05
 109    -7.4465498473965e-05
 110    -7.5814311510445e-05
 111    5.8813823549949e-05
 112    4.5847120562354e-05
 113    -1.8224842751646e-05
 114    -6.9429975883408e-05
 115    5.277718354149e-05
 116    0.00010042239654638
 117    -0.00083441085438277
 118     2.88711289975e-05
 119    6.4113303763148e-06
 120    -3.4854504739281e-05
 121    -0.00029867946339072
 122    -2.9382284300427e-05
 123    0.00013225448603813
 124    9.2030653860021e-06
 125    -8.7148058058505e-06
 126    -1.8712062273963e-05
 127    3.1628039769902e-05
 128    -4.9635411166234e-05
 129    1.8912259613146e-05
 130    0.00032070203734191
 131    -7.427429072304e-06
 132    -5.8755172941185e-06
 133    -2.9115173108586e-05
 134    -2.6150294587742e-05
 135    0.00011847879652751
 136    1.3406849582519e-05
 137    2.3919142510776e-05
 138    2.6554940606741e-05
 139    2.0982744535771e-05
 140    3.8047675514384e-05
 141    -0.00028677834049787
 142    -7.6016603058628e-06
 143    2.1200738574017e-06
 144    5.8788508400439e-06
 145    0.0002283192502852
 146    -5.1539712186237e-05
 147    -6.3060265066455e-05
 148    2.1838033515591e-06
 149    -3.6273182681088e-06
 150    3.7806578522368e-06
 151    -1.1329034724431e-05
 152    5.2269988860572e-06
 153    9.987598581798e-05
 154    0.0001216850141843
 155    2.5835562805298e-05
 156    -3.0315007871788e-05
 157    -2.0294582035234e-05
 158    2.9880412533347e-05
 159    9.5488739064933e-05
 160    5.9875237633965e-05
 161    7.1835383464056e-06
 162    -5.8340374152716e-06
 163    7.9816715780643e-05
 164    0.00010029254124248
 165    0.00027779941093022
 166    3.539113199306e-05
 167    -1.7271513210087e-05
 168    -0.00011916451739197
 169    -0.00022989517037147
 170    0.00021380163634147
 171    7.2460904208683e-05
 172    3.6086001585165e-06
 173    -7.9236727876582e-06
 174    1.4745003076609e-05
 175    -6.6144139810715e-06
 176    2.3761822736419e-05
 177    1.4438276517075e-05
 178    -8.5463695961095e-05
 179    6.9099099879225e-07
 180    -2.0568663296643e-06
 181    5.0268558430273e-06
 182    -1.7057339480513e-05
 183    -1.9747494348108e-05
 184    7.233600680374e-05
 185    2.3635869087644e-05
 186    -1.31310054347e-05
 187    -5.2243625678784e-06
 188    -0.00011674048994035
 189    9.6321552272878e-05
 190    8.4092025650451e-05
 191    -1.6974807928023e-06
 192    -3.2496130132957e-06
 193    8.6631763926482e-06
 194    3.0549731487407e-06
 195    4.4997450883692e-06
 196    1.3916604587741e-05
 197    1.8794183880253e-05
 198    -5.6574032438053e-06
 199    -1.9688238588354e-06
 200    3.558110568775e-06
 201    0.00013178098934147
 202    3.3146633147265e-05
 203    1.7970200107927e-05
 204    -2.7863390282197e-06
 205    -5.407557537766e-06
 206    8.7250251775722e-05
 207    -4.0735539634336e-05
 208    1.1937058539177e-05
 209    -1.2564582492262e-05
 210    -1.4033095128651e-05
 211    1.0027388572595e-05
 212    3.0350421650366e-05
 213    -0.0002532299312316
 214    -3.4610336368625e-05
 215    1.2756183132666e-05
 216    2.2030981235338e-05
 217    -0.00021026778484039
 218    5.8772849824153e-05
 219    8.5496026260928e-05
 220    4.0510105678693e-06
 221    1.4206864145813e-05
 222    -4.374476704221e-06
 223    -9.9149789596945e-06
 224    2.6247433979396e-06
 225    -2.1754845079332e-05
 226    -5.2867909230258e-05
 227    1.252278091269e-05
 228    1.3305083798544e-06
 229    8.6392203611461e-07
 230    -2.0923591223508e-05
 231    -6.0696025893791e-05
 232    3.870261245443e-06
 233    -6.1318683770089e-06
 234    -1.2456642616633e-05
 235    -5.3907039931344e-06
 236    5.8110771520028e-06
 237    8.2362879647094e-05
 238    -1.8749998725016e-05
 239    5.0459194797118e-06
 240    1.1018681723327e-05
 241    -4.251905024998e-05
 242    6.5400674897812e-05
 243    -1.4702973161009e-05
 244    -1.9605963481927e-06
 245    -2.8803290060332e-06
 246    2.9343266288634e-06
 247    -5.7319848664758e-08
 248    -1.5801422683133e-06
 249    2.8887057052468e-05
 250    -4.0705276153967e-06
 251    3.5142878770114e-06
 252    6.4930319484883e-07
 253    3.1644925164247e-07
 254    2.911694453439e-05
 255    -4.714691412304e-05
 256    -1.3138099660492e-07
 257    -3.1420890359864e-06
 258    1.1571337526074e-06
 259    3.1539141528894e-06
 260    1.7116142853081e-05
 261    -8.8466611929011e-05
 262    6.4139813943637e-06
 263    -2.5673435535859e-06