[Molden Format]
made by pyscf v[2.0.1]
[Atoms] (AU)
O   1   8     0.00000000000000     0.00000000000000     6.40640788651141
H   2   1     0.00000000000000     0.00000000000000     4.58300606461044
H   3   1    -0.05031916615174     1.78353439551780     6.78227958297808
O   4   8     0.00000000000000     0.00000000000000     2.31533471513237
C   5   6     0.00000000000000     0.00000000000000     0.00000000000000
C   6   6     2.01118073026938    -1.40227222164369    -1.50774939176400
C   7   6    -2.01249334291722     1.41331050329955    -1.50319235519811
H   8   1     3.32037363730244    -2.26721897153159    -0.13599698591495
C   9   6     3.45899267434009     0.28739631745591    -3.37437943254505
H   10   1     1.07662969841332    -2.94725144642667    -2.56541439481080
H   11   1    -2.67503415753480     0.18421555839588    -3.06194479365997
H   12   1    -1.08005520873877     3.03851734677796    -2.43674295017013
C   13   6    -4.21607110578555     2.32938802552922     0.11994192435017
H   14   1     4.24440173074564     1.93368664387684    -2.34976285512790
H   15   1     2.18907033049676     1.04714335134846    -4.81494497423699
C   16   6     5.60746363007797    -1.12419643481196    -4.70268606082550
H   17   1    -3.46838323670267     3.50951302338067     1.66946842715333
H   18   1    -5.11873485366228     0.68575958301209     1.04047743976495
C   19   6    -6.18314754751344     3.80909592987882    -1.39656589068747
H   20   1     6.93011263717176    -1.87550812453645    -3.26656317360070
C   21   6     7.10306991577580     0.52877932406334    -6.57829775293605
H   22   1     4.82318879258361    -2.78573437948532    -5.70504560381835
H   23   1    -6.91582688743803     2.61304780074712    -2.95074552451969
H   24   1    -5.26532430573853     5.45420349051338    -2.31005832200284
C   25   6    -8.39941882261433     4.73263980500213     0.21800571437956
H   26   1     7.83338371486801     2.19084139882824    -5.57093109900697
H   27   1     5.73544244039420     1.27376866537418    -8.01071492370229
C   28   6     9.21124858443101    -0.89699110072176    -7.88926949186242
H   29   1    -7.66272760055236     5.92277078003992     1.77035591474408
H   30   1    -9.31497248082589     3.08753015622020     1.12614408368786
C   31   6   -10.35481709231879     6.21833079391143    -1.30905206253246
H   32   1    10.58815905329501    -1.61099162890610    -6.52093739071026
H   33   1    10.23506248045667     0.32468009384095    -9.23072870921204
H   34   1     8.47665842847139    -2.53598436989925    -8.94921964622535
H   35   1    -9.48948872868064     7.90013588951020    -2.18823918416067
H   36   1   -11.93332774482359     6.86460487874102    -0.11255798845995
H   37   1   -11.15126291841033     5.04495968327630    -2.83849898862534
[GTO]
1 0
 s    8 1.00
                 11720  0.00070964594651845
                  1759  0.0054672722921914
                 400.8   0.027823118610189
                 113.7    0.10474773971146
                 37.03    0.28292084635691
                 13.27    0.44849523869833
                 5.025    0.27081688521277
                 1.013    0.01545029160744
 s    8 1.00
                 11720  -0.00031444341168873
                  1759  -0.0024821376810179
                 400.8  -0.012316355381583
                 113.7  -0.050538917343672
                 37.03   -0.13938490331632
                 13.27   -0.32507749481778
                 5.025   -0.22984830758785
                 1.013     1.0953793467883
 s    1 1.00
                0.3023                   1
 p    3 1.00
                  17.7   0.062679166281506
                 3.854    0.33353656587936
                 1.046    0.74123964163973
 p    1 1.00
                0.2753                   1
 d    1 1.00
                 1.185                   1

2 0
 s    3 1.00
                 13.01   0.033498726389998
                 1.962    0.23480080117413
                0.4446     0.8136829578829
 s    1 1.00
                 0.122                   1
 p    1 1.00
                 0.727                   1

3 0
 s    3 1.00
                 13.01   0.033498726389998
                 1.962    0.23480080117413
                0.4446     0.8136829578829
 s    1 1.00
                 0.122                   1
 p    1 1.00
                 0.727                   1

4 0
 s    8 1.00
                 11720  0.00070964594651845
                  1759  0.0054672722921914
                 400.8   0.027823118610189
                 113.7    0.10474773971146
                 37.03    0.28292084635691
                 13.27    0.44849523869833
                 5.025    0.27081688521277
                 1.013    0.01545029160744
 s    8 1.00
                 11720  -0.00031444341168873
                  1759  -0.0024821376810179
                 400.8  -0.012316355381583
                 113.7  -0.050538917343672
                 37.03   -0.13938490331632
                 13.27   -0.32507749481778
                 5.025   -0.22984830758785
                 1.013     1.0953793467883
 s    1 1.00
                0.3023                   1
 p    3 1.00
                  17.7   0.062679166281506
                 3.854    0.33353656587936
                 1.046    0.74123964163973
 p    1 1.00
                0.2753                   1
 d    1 1.00
                 1.185                   1

5 0
 s    8 1.00
                  6665  0.00069158396281299
                  1000  0.0053257961529341
                   228   0.027060721042034
                 64.71    0.10165684614077
                 21.06     0.2745748236174
                 7.495    0.44829431892377
                 2.797    0.28490261071525
                0.5215   0.015194859206082
 s    8 1.00
                  6665  -0.00029326965268655
                  1000  -0.0023180354739745
                   228  -0.011499786038565
                 64.71  -0.046826727009787
                 21.06   -0.12846616875047
                 7.495   -0.30126627246289
                 2.797   -0.25563070233011
                0.5215      1.093793361012
 s    1 1.00
                0.1596                   1
 p    3 1.00
                 9.439   0.056979251590039
                 2.002    0.31320721150073
                0.5456    0.76037674173753
 p    1 1.00
                0.1517                   1
 d    1 1.00
                  0.55                   1

6 0
 s    8 1.00
                  6665  0.00069158396281299
                  1000  0.0053257961529341
                   228   0.027060721042034
                 64.71    0.10165684614077
                 21.06     0.2745748236174
                 7.495    0.44829431892377
                 2.797    0.28490261071525
                0.5215   0.015194859206082
 s    8 1.00
                  6665  -0.00029326965268655
                  1000  -0.0023180354739745
                   228  -0.011499786038565
                 64.71  -0.046826727009787
                 21.06   -0.12846616875047
                 7.495   -0.30126627246289
                 2.797   -0.25563070233011
                0.5215      1.093793361012
 s    1 1.00
                0.1596                   1
 p    3 1.00
                 9.439   0.056979251590039
                 2.002    0.31320721150073
                0.5456    0.76037674173753
 p    1 1.00
                0.1517                   1
 d    1 1.00
                  0.55                   1

7 0
 s    8 1.00
                  6665  0.00069158396281299
                  1000  0.0053257961529341
                   228   0.027060721042034
                 64.71    0.10165684614077
                 21.06     0.2745748236174
                 7.495    0.44829431892377
                 2.797    0.28490261071525
                0.5215   0.015194859206082
 s    8 1.00
                  6665  -0.00029326965268655
                  1000  -0.0023180354739745
                   228  -0.011499786038565
                 64.71  -0.046826727009787
                 21.06   -0.12846616875047
                 7.495   -0.30126627246289
                 2.797   -0.25563070233011
                0.5215      1.093793361012
 s    1 1.00
                0.1596                   1
 p    3 1.00
                 9.439   0.056979251590039
                 2.002    0.31320721150073
                0.5456    0.76037674173753
 p    1 1.00
                0.1517                   1
 d    1 1.00
                  0.55                   1

8 0
 s    3 1.00
                 13.01   0.033498726389998
                 1.962    0.23480080117413
                0.4446     0.8136829578829
 s    1 1.00
                 0.122                   1
 p    1 1.00
                 0.727                   1

9 0
 s    8 1.00
                  6665  0.00069158396281299
                  1000  0.0053257961529341
                   228   0.027060721042034
                 64.71    0.10165684614077
                 21.06     0.2745748236174
                 7.495    0.44829431892377
                 2.797    0.28490261071525
                0.5215   0.015194859206082
 s    8 1.00
                  6665  -0.00029326965268655
                  1000  -0.0023180354739745
                   228  -0.011499786038565
                 64.71  -0.046826727009787
                 21.06   -0.12846616875047
                 7.495   -0.30126627246289
                 2.797   -0.25563070233011
                0.5215      1.093793361012
 s    1 1.00
                0.1596                   1
 p    3 1.00
                 9.439   0.056979251590039
                 2.002    0.31320721150073
                0.5456    0.76037674173753
 p    1 1.00
                0.1517                   1
 d    1 1.00
                  0.55                   1

10 0
 s    3 1.00
                 13.01   0.033498726389998
                 1.962    0.23480080117413
                0.4446     0.8136829578829
 s    1 1.00
                 0.122                   1
 p    1 1.00
                 0.727                   1

11 0
 s    3 1.00
                 13.01   0.033498726389998
                 1.962    0.23480080117413
                0.4446     0.8136829578829
 s    1 1.00
                 0.122                   1
 p    1 1.00
                 0.727                   1

12 0
 s    3 1.00
                 13.01   0.033498726389998
                 1.962    0.23480080117413
                0.4446     0.8136829578829
 s    1 1.00
                 0.122                   1
 p    1 1.00
                 0.727                   1

13 0
 s    8 1.00
                  6665  0.00069158396281299
                  1000  0.0053257961529341
                   228   0.027060721042034
                 64.71    0.10165684614077
                 21.06     0.2745748236174
                 7.495    0.44829431892377
                 2.797    0.28490261071525
                0.5215   0.015194859206082
 s    8 1.00
                  6665  -0.00029326965268655
                  1000  -0.0023180354739745
                   228  -0.011499786038565
                 64.71  -0.046826727009787
                 21.06   -0.12846616875047
                 7.495   -0.30126627246289
                 2.797   -0.25563070233011
                0.5215      1.093793361012
 s    1 1.00
                0.1596                   1
 p    3 1.00
                 9.439   0.056979251590039
                 2.002    0.31320721150073
                0.5456    0.76037674173753
 p    1 1.00
                0.1517                   1
 d    1 1.00
                  0.55                   1

14 0
 s    3 1.00
                 13.01   0.033498726389998
                 1.962    0.23480080117413
                0.4446     0.8136829578829
 s    1 1.00
                 0.122                   1
 p    1 1.00
                 0.727                   1

15 0
 s    3 1.00
                 13.01   0.033498726389998
                 1.962    0.23480080117413
                0.4446     0.8136829578829
 s    1 1.00
                 0.122                   1
 p    1 1.00
                 0.727                   1

16 0
 s    8 1.00
                  6665  0.00069158396281299
                  1000  0.0053257961529341
                   228   0.027060721042034
                 64.71    0.10165684614077
                 21.06     0.2745748236174
                 7.495    0.44829431892377
                 2.797    0.28490261071525
                0.5215   0.015194859206082
 s    8 1.00
                  6665  -0.00029326965268655
                  1000  -0.0023180354739745
                   228  -0.011499786038565
                 64.71  -0.046826727009787
                 21.06   -0.12846616875047
                 7.495   -0.30126627246289
                 2.797   -0.25563070233011
                0.5215      1.093793361012
 s    1 1.00
                0.1596                   1
 p    3 1.00
                 9.439   0.056979251590039
                 2.002    0.31320721150073
                0.5456    0.76037674173753
 p    1 1.00
                0.1517                   1
 d    1 1.00
                  0.55                   1

17 0
 s    3 1.00
                 13.01   0.033498726389998
                 1.962    0.23480080117413
                0.4446     0.8136829578829
 s    1 1.00
                 0.122                   1
 p    1 1.00
                 0.727                   1

18 0
 s    3 1.00
                 13.01   0.033498726389998
                 1.962    0.23480080117413
                0.4446     0.8136829578829
 s    1 1.00
                 0.122                   1
 p    1 1.00
                 0.727                   1

19 0
 s    8 1.00
                  6665  0.00069158396281299
                  1000  0.0053257961529341
                   228   0.027060721042034
                 64.71    0.10165684614077
                 21.06     0.2745748236174
                 7.495    0.44829431892377
                 2.797    0.28490261071525
                0.5215   0.015194859206082
 s    8 1.00
                  6665  -0.00029326965268655
                  1000  -0.0023180354739745
                   228  -0.011499786038565
                 64.71  -0.046826727009787
                 21.06   -0.12846616875047
                 7.495   -0.30126627246289
                 2.797   -0.25563070233011
                0.5215      1.093793361012
 s    1 1.00
                0.1596                   1
 p    3 1.00
                 9.439   0.056979251590039
                 2.002    0.31320721150073
                0.5456    0.76037674173753
 p    1 1.00
                0.1517                   1
 d    1 1.00
                  0.55                   1

20 0
 s    3 1.00
                 13.01   0.033498726389998
                 1.962    0.23480080117413
                0.4446     0.8136829578829
 s    1 1.00
                 0.122                   1
 p    1 1.00
                 0.727                   1

21 0
 s    8 1.00
                  6665  0.00069158396281299
                  1000  0.0053257961529341
                   228   0.027060721042034
                 64.71    0.10165684614077
                 21.06     0.2745748236174
                 7.495    0.44829431892377
                 2.797    0.28490261071525
                0.5215   0.015194859206082
 s    8 1.00
                  6665  -0.00029326965268655
                  1000  -0.0023180354739745
                   228  -0.011499786038565
                 64.71  -0.046826727009787
                 21.06   -0.12846616875047
                 7.495   -0.30126627246289
                 2.797   -0.25563070233011
                0.5215      1.093793361012
 s    1 1.00
                0.1596                   1
 p    3 1.00
                 9.439   0.056979251590039
                 2.002    0.31320721150073
                0.5456    0.76037674173753
 p    1 1.00
                0.1517                   1
 d    1 1.00
                  0.55                   1

22 0
 s    3 1.00
                 13.01   0.033498726389998
                 1.962    0.23480080117413
                0.4446     0.8136829578829
 s    1 1.00
                 0.122                   1
 p    1 1.00
                 0.727                   1

23 0
 s    3 1.00
                 13.01   0.033498726389998
                 1.962    0.23480080117413
                0.4446     0.8136829578829
 s    1 1.00
                 0.122                   1
 p    1 1.00
                 0.727                   1

24 0
 s    3 1.00
                 13.01   0.033498726389998
                 1.962    0.23480080117413
                0.4446     0.8136829578829
 s    1 1.00
                 0.122                   1
 p    1 1.00
                 0.727                   1

25 0
 s    8 1.00
                  6665  0.00069158396281299
                  1000  0.0053257961529341
                   228   0.027060721042034
                 64.71    0.10165684614077
                 21.06     0.2745748236174
                 7.495    0.44829431892377
                 2.797    0.28490261071525
                0.5215   0.015194859206082
 s    8 1.00
                  6665  -0.00029326965268655
                  1000  -0.0023180354739745
                   228  -0.011499786038565
                 64.71  -0.046826727009787
                 21.06   -0.12846616875047
                 7.495   -0.30126627246289
                 2.797   -0.25563070233011
                0.5215      1.093793361012
 s    1 1.00
                0.1596                   1
 p    3 1.00
                 9.439   0.056979251590039
                 2.002    0.31320721150073
                0.5456    0.76037674173753
 p    1 1.00
                0.1517                   1
 d    1 1.00
                  0.55                   1

26 0
 s    3 1.00
                 13.01   0.033498726389998
                 1.962    0.23480080117413
                0.4446     0.8136829578829
 s    1 1.00
                 0.122                   1
 p    1 1.00
                 0.727                   1

27 0
 s    3 1.00
                 13.01   0.033498726389998
                 1.962    0.23480080117413
                0.4446     0.8136829578829
 s    1 1.00
                 0.122                   1
 p    1 1.00
                 0.727                   1

28 0
 s    8 1.00
                  6665  0.00069158396281299
                  1000  0.0053257961529341
                   228   0.027060721042034
                 64.71    0.10165684614077
                 21.06     0.2745748236174
                 7.495    0.44829431892377
                 2.797    0.28490261071525
                0.5215   0.015194859206082
 s    8 1.00
                  6665  -0.00029326965268655
                  1000  -0.0023180354739745
                   228  -0.011499786038565
                 64.71  -0.046826727009787
                 21.06   -0.12846616875047
                 7.495   -0.30126627246289
                 2.797   -0.25563070233011
                0.5215      1.093793361012
 s    1 1.00
                0.1596                   1
 p    3 1.00
                 9.439   0.056979251590039
                 2.002    0.31320721150073
                0.5456    0.76037674173753
 p    1 1.00
                0.1517                   1
 d    1 1.00
                  0.55                   1

29 0
 s    3 1.00
                 13.01   0.033498726389998
                 1.962    0.23480080117413
                0.4446     0.8136829578829
 s    1 1.00
                 0.122                   1
 p    1 1.00
                 0.727                   1

30 0
 s    3 1.00
                 13.01   0.033498726389998
                 1.962    0.23480080117413
                0.4446     0.8136829578829
 s    1 1.00
                 0.122                   1
 p    1 1.00
                 0.727                   1

31 0
 s    8 1.00
                  6665  0.00069158396281299
                  1000  0.0053257961529341
                   228   0.027060721042034
                 64.71    0.10165684614077
                 21.06     0.2745748236174
                 7.495    0.44829431892377
                 2.797    0.28490261071525
                0.5215   0.015194859206082
 s    8 1.00
                  6665  -0.00029326965268655
                  1000  -0.0023180354739745
                   228  -0.011499786038565
                 64.71  -0.046826727009787
                 21.06   -0.12846616875047
                 7.495   -0.30126627246289
                 2.797   -0.25563070233011
                0.5215      1.093793361012
 s    1 1.00
                0.1596                   1
 p    3 1.00
                 9.439   0.056979251590039
                 2.002    0.31320721150073
                0.5456    0.76037674173753
 p    1 1.00
                0.1517                   1
 d    1 1.00
                  0.55                   1

32 0
 s    3 1.00
                 13.01   0.033498726389998
                 1.962    0.23480080117413
                0.4446     0.8136829578829
 s    1 1.00
                 0.122                   1
 p    1 1.00
                 0.727                   1

33 0
 s    3 1.00
                 13.01   0.033498726389998
                 1.962    0.23480080117413
                0.4446     0.8136829578829
 s    1 1.00
                 0.122                   1
 p    1 1.00
                 0.727                   1

34 0
 s    3 1.00
                 13.01   0.033498726389998
                 1.962    0.23480080117413
                0.4446     0.8136829578829
 s    1 1.00
                 0.122                   1
 p    1 1.00
                 0.727                   1

35 0
 s    3 1.00
                 13.01   0.033498726389998
                 1.962    0.23480080117413
                0.4446     0.8136829578829
 s    1 1.00
                 0.122                   1
 p    1 1.00
                 0.727                   1

36 0
 s    3 1.00
                 13.01   0.033498726389998
                 1.962    0.23480080117413
                0.4446     0.8136829578829
 s    1 1.00
                 0.122                   1
 p    1 1.00
                 0.727                   1

37 0
 s    3 1.00
                 13.01   0.033498726389998
                 1.962    0.23480080117413
                0.4446     0.8136829578829
 s    1 1.00
                 0.122                   1
 p    1 1.00
                 0.727                   1

[5d]
[7f]
[9g]

[MO]
 Sym= A
 Ene=               0
 Spin= Alpha
 Occup=    1.00000
   1    0.00010814287781382
   2    2.8000489042068e-05
   3    0.00029590226814219
   4    -1.533740044823e-06
   5    8.3922289125768e-07
   6    -0.00012378623410659
   7    3.3432439001013e-06
   8    9.2122098682127e-06
   9    -0.00024147888581054
  10    0.00010942863227505
  11    1.151150138699e-07
  12    -1.6188443505451e-06
  13    -5.0490397728612e-06
  14    -2.7564074234081e-07
  15    -5.8186772654874e-05
  16    7.3932868504572e-05
  17    1.3075894582796e-06
  18    -5.3855213115881e-06
  19    -0.00039331637360798
  20    -3.7906611135871e-05
  21    3.3989600054256e-05
  22    -2.5342287656522e-07
  23    -8.7792117975219e-06
  24    5.659742765689e-06
  25      -1.0014277024576
  26    -0.0022197049697372
  27    0.0068834238215169
  28    4.3727178397345e-06
  29    -1.8778400906585e-05
  30    0.0014800229727486
  31    -1.126544086167e-06
  32    4.222897314465e-06
  33    -0.0022344299841919
  34    -0.00023340368883341
  35    2.6220025275675e-06
  36    -5.5460685085871e-07
  37    -5.9619534586076e-05
  38    0.00015789647333118
  39    -0.00030081596660703
  40    -0.00042271531611784
  41    -0.0018147210301119
  42    -1.6085138433201e-05
  43    1.1178971308538e-05
  44    -4.7498745926182e-05
  45    -6.4042751795431e-05
  46    5.3995167263292e-05
  47    -0.0036358163462774
  48    0.00051869743685014
  49    7.7661327253207e-06
  50    -1.1870984479641e-06
  51    -3.6107292466255e-05
  52    0.00012545893147009
  53    8.5018310179858e-05
  54    0.00016722255453385
  55    -0.0013384994251721
  56    -8.2855493484869e-05
  57    1.069507785024e-05
  58    3.902367824373e-05
  59    0.00037344420593711
  60    -0.0004566691141932
  61    0.00097003378818828
  62    0.0001113244239041
  63    -0.00015806403134787
  64    0.00014982949466864
  65    -5.3753620472711e-05
  66    0.00012596975708219
  67    3.7388747173131e-05
  68    9.2002616970379e-05
  69    -0.00042838003743675
  70    6.918117634872e-05
  71    -4.4427134776188e-05
  72    6.4740694910937e-05
  73    -0.0009676231453223
  74    0.00073848402884821
  75    0.00068398154101997
  76    0.00013428913786375
  77    0.00012909020461997
  78    -9.4540483593921e-05
  79    -5.7382240196255e-05
  80    0.00014680697488007
  81    6.6964073421859e-05
  82    -0.00019522299973151
  83    -6.8005005654741e-05
  84    5.0277015781475e-05
  85    -5.1925665066068e-05
  86    -2.5466251983352e-05
  87    -4.9771506285037e-05
  88    0.00060254993948841
  89    1.5874604053782e-05
  90    1.6001307521724e-05
  91    -1.2985320187308e-05
  92    -0.00026760639294352
  93    -0.00062938459235679
  94    3.7186427211705e-05
  95    -1.9063655379963e-05
  96    -1.0940916032816e-05
  97    -6.9665927426373e-06
  98    1.9947952266979e-05
  99    5.0174506795992e-05
 100    3.5012034081609e-05
 101    0.00016395160444314
 102    -5.675327366372e-06
 103    9.936359339549e-06
 104    -7.6197860005722e-05
 105    1.6817286130247e-05
 106    0.00020339882289368
 107    6.2478306720922e-05
 108    -6.2353193161273e-06
 109    -7.6786315476203e-05
 110    -7.9871024647167e-05
 111    7.6444279494944e-05
 112    4.312034452689e-05
 113    -2.0065064502828e-05
 114    -7.0692348165154e-05
 115    5.6564681172599e-05
 116    0.00010646838852812
 117    -0.00090986560389451
 118    2.8179150431525e-05
 119    6.9996217486975e-06
 120    -3.6213018593453e-05
 121    -0.00026310109318576
 122    -4.7394143401432e-05
 123    0.00017550458481992
 124    8.7308757162972e-06
 125    -1.0354424743913e-05
 126    -1.5525009870475e-05
 127     3.17800342421e-05
 128    -4.8350110345196e-05
 129    1.4129756717135e-05
 130    0.0003306681643033
 131    -7.5919927332998e-06
 132    -5.4739488595804e-06
 133    -3.0289207074346e-05
 134    -2.0658509215419e-05
 135    0.00010971625900411
 136    1.7891322346577e-05
 137    2.5366962505032e-05
 138    2.3946235911799e-05
 139    1.872982211753e-05
 140    3.4275179122653e-05
 141    -0.00027414846622596
 142    -6.6754500548753e-06
 143    3.3836462796254e-06
 144    6.2503628172607e-06
 145    0.00019894425124354
 146    -6.0987208105825e-05
 147    -5.2661725320191e-05
 148    1.9603211587623e-06
 149    -4.69216723364e-06
 150    5.0141350369246e-06
 151    -1.1000332408389e-05
 152    3.6783103408403e-06
 153    9.9771867265511e-05
 154    0.00010635730139713
 155    2.5747730409397e-05
 156    -2.781931296436e-05
 157    -1.9859511793398e-05
 158    2.9749673966099e-05
 159    0.00010247435087008
 160    5.866008765334e-05
 161    8.6656532353749e-06
 162    -8.2881722255039e-06
 163    7.4448176494612e-05
 164    9.321001389766e-05
 165    0.00035279352111683
 166    4.0073906959732e-05
 167    -1.9998241620339e-05
 168    -0.00012774443377904
 169    -0.00018394602507417
 170    0.00018219289902595
 171    8.2086164063968e-05
 172    1.7633124493469e-06
 173    -5.281242622179e-06
 174    1.3021989445975e-05
 175    -6.0832101196226e-06
 176    2.0960047789972e-05
 177    1.5684733846701e-05
 178    -8.4394126569008e-05
 179    2.400222078976e-06
 180    -9.6183020728023e-07
 181    4.0716348042707e-06
 182    -1.9116047004804e-05
 183    -2.4745012796118e-05
 184    7.5760296265582e-05
 185    1.9643138335269e-05
 186    -1.0973448328828e-05
 187    -4.156773675972e-06
 188    -0.0001287088334873
 189    0.00010207587153073
 190    0.0001051252020843
 191    -7.4775904867814e-07
 192    -3.0441061835955e-06
 193    7.4603824305154e-06
 194    2.4578968742013e-06
 195    5.3154544010091e-06
 196    9.0962495002423e-06
 197    1.5439203169132e-05
 198    -4.6410405123324e-06
 199    -1.9529602553677e-06
 200    2.9185789492195e-06
 201    0.00013594166013073
 202    3.927036418452e-05
 203    1.7432735174829e-05
 204    -1.1165418521821e-06
 205    -4.54811985385e-06
 206    8.9408813429273e-05
 207    -3.9652755172515e-05
 208    9.8920098205309e-06
 209    -1.1964491118636e-05
 210    -1.4136486122631e-05
 211    8.7638247990307e-06
 212    2.5372964957168e-05
 213    -0.00025701698160373
 214    -3.9598338548713e-05
 215    1.4138910894034e-05
 216    2.4581900335922e-05
 217    -0.00020753752560128
 218    5.7995467694168e-05
 219    8.7263762614002e-05
 220    4.2059799367704e-06
 221    1.3952151348277e-05
 222    -4.2973730822006e-06
 223    -1.020374660858e-05
 224    2.9087397380228e-06
 225    -2.5065615031532e-05
 226    -5.9349507514538e-05
 227    1.3190443408957e-05
 228    1.6753680346284e-06
 229    4.6864631023213e-07
 230    -2.1186916015782e-05
 231    -5.381806424246e-05
 232    3.8092117301121e-06
 233    -6.6494845600443e-06
 234    -1.2800237107233e-05
 235    -6.2914899944512e-06
 236    1.7203827771595e-06
 237    9.8746069950832e-05
 238    -1.3913173307753e-05
 239    3.801609729272e-06
 240    7.760634900385e-06
 241    -4.9295168438082e-05
 242    6.7381398553298e-05
 243    -1.0355333532667e-05
 244    -1.9935056973228e-06
 245    -3.2150827323371e-06
 246    2.607126156414e-06
 247    2.7022144928577e-07
 248    -1.7919894030502e-06
 249    2.7182094111522e-05
 250    -1.6799614136883e-06
 251    3.3264535244484e-06
 252    6.5980451255784e-07
 253    5.3531362191465e-07
 254    2.932312002552e-05
 255    -4.8129814986799e-05
 256    -8.6029349458935e-07
 257    -3.23729459692e-06
 258    1.4271430315431e-06
 259    2.4522344657117e-06
 260    1.396422236725e-05
 261    -7.6869308296516e-05
 262    5.7101428135371e-06
 263    -1.9865986621134e-06