[Molden Format]
made by pyscf v[2.0.1]
[Atoms] (AU)
O   1   8     0.00000000000000     0.00000000000000     9.42996968581551
H   2   1     0.00000000000000     0.00000000000000     7.60656786391454
H   3   1    -0.05031916615174     1.78353065140343     9.80584138228218
O   4   8     0.00000000000000     0.00000000000000     2.31533471513237
C   5   6     0.00000000000000     0.00000000000000     0.00000000000000
C   6   6     2.01118073026938    -1.40227222164369    -1.50774939176400
C   7   6    -2.01249334291722     1.41331050329955    -1.50315905028694
H   8   1     3.32037363730244    -2.26721897153159    -0.13599698591495
C   9   6     3.45899267434009     0.28739631745591    -3.37437943254505
H   10   1     1.07662969841332    -2.94725144642667    -2.56541439481080
H   11   1    -2.67503415753480     0.18421555839588    -3.06194479365997
H   12   1    -1.07974048864772     3.03851734677796    -2.43674295017013
C   13   6    -4.21607110578555     2.32938802552922     0.11994162256091
H   14   1     4.24440173074564     1.93368664142019    -2.34976285512790
H   15   1     2.15020713235517     1.04714335134846    -4.81494497423699
C   16   6     5.60746363007797    -1.12419643481196    -4.70268606082550
H   17   1    -3.46838323670267     3.50951302338067     1.66946842715333
H   18   1    -5.11873485366228     0.68575958301209     1.04047743976495
C   19   6    -6.18314754751344     3.80909592987882    -1.39656589068747
H   20   1     6.93011263717176    -1.87550812453645    -3.26656317360070
C   21   6     7.06356622236532     0.52877932406334    -6.57829775293605
H   22   1     4.82318879258361    -2.78573437948532    -5.70504560381835
H   23   1    -6.91582688743803     2.61304780074712    -2.95074552451969
H   24   1    -5.26532430573853     5.45420349051338    -2.31005832200284
C   25   6    -8.39941882261433     4.73263980500213     0.21800571437956
H   26   1     7.83338371486801     2.19084139882824    -5.57093109900697
H   27   1     5.73544244039420     1.27376866537418    -8.01071492370229
C   28   6     9.21124858443101    -0.89699110072176    -7.88926949186242
H   29   1    -7.66272760055236     5.92277078003992     1.77035591474408
H   30   1    -9.31497248082589     3.08753015622020     1.12614408368786
C   31   6   -10.35481709231879     6.21833079391143    -1.30905206253246
H   32   1    10.58815905329501    -1.61074586756696    -6.49512691622620
H   33   1    10.23506248045667     0.32468009384095    -9.23072870921204
H   34   1     8.47665842847139    -2.53598436989925    -8.94921964622535
H   35   1    -9.48948872868064     7.90013588951020    -2.18823918416067
H   36   1   -11.93332513000955     6.86460487874102    -0.11255798845995
H   37   1   -11.15126291841033     5.04495968327630    -2.83849898862534
[GTO]
1 0
 s    8 1.00
                 11720  0.00070964594651845
                  1759  0.0054672722921914
                 400.8   0.027823118610189
                 113.7    0.10474773971146
                 37.03    0.28292084635691
                 13.27    0.44849523869833
                 5.025    0.27081688521277
                 1.013    0.01545029160744
 s    8 1.00
                 11720  -0.00031444341168873
                  1759  -0.0024821376810179
                 400.8  -0.012316355381583
                 113.7  -0.050538917343672
                 37.03   -0.13938490331632
                 13.27   -0.32507749481778
                 5.025   -0.22984830758785
                 1.013     1.0953793467883
 s    1 1.00
                0.3023                   1
 p    3 1.00
                  17.7   0.062679166281506
                 3.854    0.33353656587936
                 1.046    0.74123964163973
 p    1 1.00
                0.2753                   1
 d    1 1.00
                 1.185                   1

2 0
 s    3 1.00
                 13.01   0.033498726389998
                 1.962    0.23480080117413
                0.4446     0.8136829578829
 s    1 1.00
                 0.122                   1
 p    1 1.00
                 0.727                   1

3 0
 s    3 1.00
                 13.01   0.033498726389998
                 1.962    0.23480080117413
                0.4446     0.8136829578829
 s    1 1.00
                 0.122                   1
 p    1 1.00
                 0.727                   1

4 0
 s    8 1.00
                 11720  0.00070964594651845
                  1759  0.0054672722921914
                 400.8   0.027823118610189
                 113.7    0.10474773971146
                 37.03    0.28292084635691
                 13.27    0.44849523869833
                 5.025    0.27081688521277
                 1.013    0.01545029160744
 s    8 1.00
                 11720  -0.00031444341168873
                  1759  -0.0024821376810179
                 400.8  -0.012316355381583
                 113.7  -0.050538917343672
                 37.03   -0.13938490331632
                 13.27   -0.32507749481778
                 5.025   -0.22984830758785
                 1.013     1.0953793467883
 s    1 1.00
                0.3023                   1
 p    3 1.00
                  17.7   0.062679166281506
                 3.854    0.33353656587936
                 1.046    0.74123964163973
 p    1 1.00
                0.2753                   1
 d    1 1.00
                 1.185                   1

5 0
 s    8 1.00
                  6665  0.00069158396281299
                  1000  0.0053257961529341
                   228   0.027060721042034
                 64.71    0.10165684614077
                 21.06     0.2745748236174
                 7.495    0.44829431892377
                 2.797    0.28490261071525
                0.5215   0.015194859206082
 s    8 1.00
                  6665  -0.00029326965268655
                  1000  -0.0023180354739745
                   228  -0.011499786038565
                 64.71  -0.046826727009787
                 21.06   -0.12846616875047
                 7.495   -0.30126627246289
                 2.797   -0.25563070233011
                0.5215      1.093793361012
 s    1 1.00
                0.1596                   1
 p    3 1.00
                 9.439   0.056979251590039
                 2.002    0.31320721150073
                0.5456    0.76037674173753
 p    1 1.00
                0.1517                   1
 d    1 1.00
                  0.55                   1

6 0
 s    8 1.00
                  6665  0.00069158396281299
                  1000  0.0053257961529341
                   228   0.027060721042034
                 64.71    0.10165684614077
                 21.06     0.2745748236174
                 7.495    0.44829431892377
                 2.797    0.28490261071525
                0.5215   0.015194859206082
 s    8 1.00
                  6665  -0.00029326965268655
                  1000  -0.0023180354739745
                   228  -0.011499786038565
                 64.71  -0.046826727009787
                 21.06   -0.12846616875047
                 7.495   -0.30126627246289
                 2.797   -0.25563070233011
                0.5215      1.093793361012
 s    1 1.00
                0.1596                   1
 p    3 1.00
                 9.439   0.056979251590039
                 2.002    0.31320721150073
                0.5456    0.76037674173753
 p    1 1.00
                0.1517                   1
 d    1 1.00
                  0.55                   1

7 0
 s    8 1.00
                  6665  0.00069158396281299
                  1000  0.0053257961529341
                   228   0.027060721042034
                 64.71    0.10165684614077
                 21.06     0.2745748236174
                 7.495    0.44829431892377
                 2.797    0.28490261071525
                0.5215   0.015194859206082
 s    8 1.00
                  6665  -0.00029326965268655
                  1000  -0.0023180354739745
                   228  -0.011499786038565
                 64.71  -0.046826727009787
                 21.06   -0.12846616875047
                 7.495   -0.30126627246289
                 2.797   -0.25563070233011
                0.5215      1.093793361012
 s    1 1.00
                0.1596                   1
 p    3 1.00
                 9.439   0.056979251590039
                 2.002    0.31320721150073
                0.5456    0.76037674173753
 p    1 1.00
                0.1517                   1
 d    1 1.00
                  0.55                   1

8 0
 s    3 1.00
                 13.01   0.033498726389998
                 1.962    0.23480080117413
                0.4446     0.8136829578829
 s    1 1.00
                 0.122                   1
 p    1 1.00
                 0.727                   1

9 0
 s    8 1.00
                  6665  0.00069158396281299
                  1000  0.0053257961529341
                   228   0.027060721042034
                 64.71    0.10165684614077
                 21.06     0.2745748236174
                 7.495    0.44829431892377
                 2.797    0.28490261071525
                0.5215   0.015194859206082
 s    8 1.00
                  6665  -0.00029326965268655
                  1000  -0.0023180354739745
                   228  -0.011499786038565
                 64.71  -0.046826727009787
                 21.06   -0.12846616875047
                 7.495   -0.30126627246289
                 2.797   -0.25563070233011
                0.5215      1.093793361012
 s    1 1.00
                0.1596                   1
 p    3 1.00
                 9.439   0.056979251590039
                 2.002    0.31320721150073
                0.5456    0.76037674173753
 p    1 1.00
                0.1517                   1
 d    1 1.00
                  0.55                   1

10 0
 s    3 1.00
                 13.01   0.033498726389998
                 1.962    0.23480080117413
                0.4446     0.8136829578829
 s    1 1.00
                 0.122                   1
 p    1 1.00
                 0.727                   1

11 0
 s    3 1.00
                 13.01   0.033498726389998
                 1.962    0.23480080117413
                0.4446     0.8136829578829
 s    1 1.00
                 0.122                   1
 p    1 1.00
                 0.727                   1

12 0
 s    3 1.00
                 13.01   0.033498726389998
                 1.962    0.23480080117413
                0.4446     0.8136829578829
 s    1 1.00
                 0.122                   1
 p    1 1.00
                 0.727                   1

13 0
 s    8 1.00
                  6665  0.00069158396281299
                  1000  0.0053257961529341
                   228   0.027060721042034
                 64.71    0.10165684614077
                 21.06     0.2745748236174
                 7.495    0.44829431892377
                 2.797    0.28490261071525
                0.5215   0.015194859206082
 s    8 1.00
                  6665  -0.00029326965268655
                  1000  -0.0023180354739745
                   228  -0.011499786038565
                 64.71  -0.046826727009787
                 21.06   -0.12846616875047
                 7.495   -0.30126627246289
                 2.797   -0.25563070233011
                0.5215      1.093793361012
 s    1 1.00
                0.1596                   1
 p    3 1.00
                 9.439   0.056979251590039
                 2.002    0.31320721150073
                0.5456    0.76037674173753
 p    1 1.00
                0.1517                   1
 d    1 1.00
                  0.55                   1

14 0
 s    3 1.00
                 13.01   0.033498726389998
                 1.962    0.23480080117413
                0.4446     0.8136829578829
 s    1 1.00
                 0.122                   1
 p    1 1.00
                 0.727                   1

15 0
 s    3 1.00
                 13.01   0.033498726389998
                 1.962    0.23480080117413
                0.4446     0.8136829578829
 s    1 1.00
                 0.122                   1
 p    1 1.00
                 0.727                   1

16 0
 s    8 1.00
                  6665  0.00069158396281299
                  1000  0.0053257961529341
                   228   0.027060721042034
                 64.71    0.10165684614077
                 21.06     0.2745748236174
                 7.495    0.44829431892377
                 2.797    0.28490261071525
                0.5215   0.015194859206082
 s    8 1.00
                  6665  -0.00029326965268655
                  1000  -0.0023180354739745
                   228  -0.011499786038565
                 64.71  -0.046826727009787
                 21.06   -0.12846616875047
                 7.495   -0.30126627246289
                 2.797   -0.25563070233011
                0.5215      1.093793361012
 s    1 1.00
                0.1596                   1
 p    3 1.00
                 9.439   0.056979251590039
                 2.002    0.31320721150073
                0.5456    0.76037674173753
 p    1 1.00
                0.1517                   1
 d    1 1.00
                  0.55                   1

17 0
 s    3 1.00
                 13.01   0.033498726389998
                 1.962    0.23480080117413
                0.4446     0.8136829578829
 s    1 1.00
                 0.122                   1
 p    1 1.00
                 0.727                   1

18 0
 s    3 1.00
                 13.01   0.033498726389998
                 1.962    0.23480080117413
                0.4446     0.8136829578829
 s    1 1.00
                 0.122                   1
 p    1 1.00
                 0.727                   1

19 0
 s    8 1.00
                  6665  0.00069158396281299
                  1000  0.0053257961529341
                   228   0.027060721042034
                 64.71    0.10165684614077
                 21.06     0.2745748236174
                 7.495    0.44829431892377
                 2.797    0.28490261071525
                0.5215   0.015194859206082
 s    8 1.00
                  6665  -0.00029326965268655
                  1000  -0.0023180354739745
                   228  -0.011499786038565
                 64.71  -0.046826727009787
                 21.06   -0.12846616875047
                 7.495   -0.30126627246289
                 2.797   -0.25563070233011
                0.5215      1.093793361012
 s    1 1.00
                0.1596                   1
 p    3 1.00
                 9.439   0.056979251590039
                 2.002    0.31320721150073
                0.5456    0.76037674173753
 p    1 1.00
                0.1517                   1
 d    1 1.00
                  0.55                   1

20 0
 s    3 1.00
                 13.01   0.033498726389998
                 1.962    0.23480080117413
                0.4446     0.8136829578829
 s    1 1.00
                 0.122                   1
 p    1 1.00
                 0.727                   1

21 0
 s    8 1.00
                  6665  0.00069158396281299
                  1000  0.0053257961529341
                   228   0.027060721042034
                 64.71    0.10165684614077
                 21.06     0.2745748236174
                 7.495    0.44829431892377
                 2.797    0.28490261071525
                0.5215   0.015194859206082
 s    8 1.00
                  6665  -0.00029326965268655
                  1000  -0.0023180354739745
                   228  -0.011499786038565
                 64.71  -0.046826727009787
                 21.06   -0.12846616875047
                 7.495   -0.30126627246289
                 2.797   -0.25563070233011
                0.5215      1.093793361012
 s    1 1.00
                0.1596                   1
 p    3 1.00
                 9.439   0.056979251590039
                 2.002    0.31320721150073
                0.5456    0.76037674173753
 p    1 1.00
                0.1517                   1
 d    1 1.00
                  0.55                   1

22 0
 s    3 1.00
                 13.01   0.033498726389998
                 1.962    0.23480080117413
                0.4446     0.8136829578829
 s    1 1.00
                 0.122                   1
 p    1 1.00
                 0.727                   1

23 0
 s    3 1.00
                 13.01   0.033498726389998
                 1.962    0.23480080117413
                0.4446     0.8136829578829
 s    1 1.00
                 0.122                   1
 p    1 1.00
                 0.727                   1

24 0
 s    3 1.00
                 13.01   0.033498726389998
                 1.962    0.23480080117413
                0.4446     0.8136829578829
 s    1 1.00
                 0.122                   1
 p    1 1.00
                 0.727                   1

25 0
 s    8 1.00
                  6665  0.00069158396281299
                  1000  0.0053257961529341
                   228   0.027060721042034
                 64.71    0.10165684614077
                 21.06     0.2745748236174
                 7.495    0.44829431892377
                 2.797    0.28490261071525
                0.5215   0.015194859206082
 s    8 1.00
                  6665  -0.00029326965268655
                  1000  -0.0023180354739745
                   228  -0.011499786038565
                 64.71  -0.046826727009787
                 21.06   -0.12846616875047
                 7.495   -0.30126627246289
                 2.797   -0.25563070233011
                0.5215      1.093793361012
 s    1 1.00
                0.1596                   1
 p    3 1.00
                 9.439   0.056979251590039
                 2.002    0.31320721150073
                0.5456    0.76037674173753
 p    1 1.00
                0.1517                   1
 d    1 1.00
                  0.55                   1

26 0
 s    3 1.00
                 13.01   0.033498726389998
                 1.962    0.23480080117413
                0.4446     0.8136829578829
 s    1 1.00
                 0.122                   1
 p    1 1.00
                 0.727                   1

27 0
 s    3 1.00
                 13.01   0.033498726389998
                 1.962    0.23480080117413
                0.4446     0.8136829578829
 s    1 1.00
                 0.122                   1
 p    1 1.00
                 0.727                   1

28 0
 s    8 1.00
                  6665  0.00069158396281299
                  1000  0.0053257961529341
                   228   0.027060721042034
                 64.71    0.10165684614077
                 21.06     0.2745748236174
                 7.495    0.44829431892377
                 2.797    0.28490261071525
                0.5215   0.015194859206082
 s    8 1.00
                  6665  -0.00029326965268655
                  1000  -0.0023180354739745
                   228  -0.011499786038565
                 64.71  -0.046826727009787
                 21.06   -0.12846616875047
                 7.495   -0.30126627246289
                 2.797   -0.25563070233011
                0.5215      1.093793361012
 s    1 1.00
                0.1596                   1
 p    3 1.00
                 9.439   0.056979251590039
                 2.002    0.31320721150073
                0.5456    0.76037674173753
 p    1 1.00
                0.1517                   1
 d    1 1.00
                  0.55                   1

29 0
 s    3 1.00
                 13.01   0.033498726389998
                 1.962    0.23480080117413
                0.4446     0.8136829578829
 s    1 1.00
                 0.122                   1
 p    1 1.00
                 0.727                   1

30 0
 s    3 1.00
                 13.01   0.033498726389998
                 1.962    0.23480080117413
                0.4446     0.8136829578829
 s    1 1.00
                 0.122                   1
 p    1 1.00
                 0.727                   1

31 0
 s    8 1.00
                  6665  0.00069158396281299
                  1000  0.0053257961529341
                   228   0.027060721042034
                 64.71    0.10165684614077
                 21.06     0.2745748236174
                 7.495    0.44829431892377
                 2.797    0.28490261071525
                0.5215   0.015194859206082
 s    8 1.00
                  6665  -0.00029326965268655
                  1000  -0.0023180354739745
                   228  -0.011499786038565
                 64.71  -0.046826727009787
                 21.06   -0.12846616875047
                 7.495   -0.30126627246289
                 2.797   -0.25563070233011
                0.5215      1.093793361012
 s    1 1.00
                0.1596                   1
 p    3 1.00
                 9.439   0.056979251590039
                 2.002    0.31320721150073
                0.5456    0.76037674173753
 p    1 1.00
                0.1517                   1
 d    1 1.00
                  0.55                   1

32 0
 s    3 1.00
                 13.01   0.033498726389998
                 1.962    0.23480080117413
                0.4446     0.8136829578829
 s    1 1.00
                 0.122                   1
 p    1 1.00
                 0.727                   1

33 0
 s    3 1.00
                 13.01   0.033498726389998
                 1.962    0.23480080117413
                0.4446     0.8136829578829
 s    1 1.00
                 0.122                   1
 p    1 1.00
                 0.727                   1

34 0
 s    3 1.00
                 13.01   0.033498726389998
                 1.962    0.23480080117413
                0.4446     0.8136829578829
 s    1 1.00
                 0.122                   1
 p    1 1.00
                 0.727                   1

35 0
 s    3 1.00
                 13.01   0.033498726389998
                 1.962    0.23480080117413
                0.4446     0.8136829578829
 s    1 1.00
                 0.122                   1
 p    1 1.00
                 0.727                   1

36 0
 s    3 1.00
                 13.01   0.033498726389998
                 1.962    0.23480080117413
                0.4446     0.8136829578829
 s    1 1.00
                 0.122                   1
 p    1 1.00
                 0.727                   1

37 0
 s    3 1.00
                 13.01   0.033498726389998
                 1.962    0.23480080117413
                0.4446     0.8136829578829
 s    1 1.00
                 0.122                   1
 p    1 1.00
                 0.727                   1

[5d]
[7f]
[9g]

[MO]
 Sym= A
 Ene=               0
 Spin= Alpha
 Occup=    1.00000
   1    -1.3045695981961e-06
   2    -2.4294015820365e-06
   3    1.0938408751157e-05
   4    -1.4032359619765e-07
   5    4.143919889874e-07
   6    -6.371598661853e-08
   7    2.2272534566513e-07
   8    -8.180532762516e-07
   9    -5.4814463705238e-06
  10    7.018048855476e-07
  11    3.2051396845612e-08
  12    -2.1124427557487e-08
  13    -6.3814889751267e-08
  14    7.3382914498084e-09
  15    -5.4077487503091e-07
  16    -1.5176111023216e-05
  17    2.5982853683851e-07
  18    -1.092365712895e-07
  19    -2.856484738886e-06
  20    -1.4437785754215e-07
  21    1.6550030313841e-06
  22    -3.7376116913375e-08
  23    2.5313636269059e-07
  24    2.7984174997745e-07
  25    8.0891181777153e-06
  26    1.9568192647215e-05
  27    -0.00011062051231621
  28    5.8340108171339e-06
  29    -6.3662009044354e-06
  30    -1.1507794991901e-06
  31    -4.0161841188483e-05
  32    8.3614701893946e-05
  33    5.2960060285871e-06
  34    6.5874030272572e-07
  35    2.4107012741713e-06
  36    -2.7175174236419e-06
  37    -2.1474380549687e-06
  38    9.6270200098983e-07
  39    -4.8623452243055e-06
  40    -2.7849640565791e-06
  41    -0.00012234907904413
  42    -3.5350692772554e-05
  43    1.7811441007372e-05
  44    1.9537070252477e-05
  45    0.00062083070508379
  46    -0.00066114386557809
  47    0.00021619412290082
  48    -1.2070654943786e-06
  49    -2.4643685377662e-05
  50    2.9049990143823e-05
  51    -1.6384009575664e-05
  52    6.8901842917848e-06
  53    -3.0937798381101e-05
  54    -9.1253242278799e-05
  55    0.00033924973477072
  56    -5.8247520740759e-05
  57    -1.2978765114255e-05
  58    4.6106432915534e-05
  59    0.00094761642223115
  60    -3.4413374509634e-05
  61    -0.00080143886424307
  62    3.1026070265877e-06
  63    -8.4754229380729e-06
  64    -4.1202586497629e-05
  65    -1.2655614092408e-05
  66    3.7876984508275e-05
  67    1.7361902570473e-05
  68    8.4860359305432e-05
  69    -7.6323449583494e-05
  70    -7.1415531230144e-05
  71    1.6993234193314e-05
  72    2.1229035172613e-05
  73    0.0012200088252447
  74    -0.00046114868450012
  75    0.00010402752366102
  76    2.5796787368757e-05
  77    4.7931124465432e-05
  78    -4.6884832038932e-05
  79    -3.5569082218047e-05
  80    2.516802063659e-05
  81    -2.8251999630066e-05
  82    -5.4790752459762e-05
  83    -1.5242169832143e-05
  84    2.9777816511017e-06
  85    2.2599313424104e-05
  86    -2.4748511568116e-05
  87    -0.00018487078026262
  88    -0.0020025344251637
  89    -0.00039680418843608
  90    0.00023152903836677
  91    0.00025663038031468
  92    -0.00032536780764374
  93    0.0011255261869402
  94    4.8926843000629e-05
  95    1.6310284826275e-05
  96    8.0052392815706e-05
  97    -1.6106451528927e-05
  98    -2.628113917376e-05
  99    3.3732920043402e-05
 100    -5.9446249876372e-06
 101    0.00018489923963524
 102    -3.638264363832e-05
 103    2.066338725402e-05
 104    2.7750743679371e-05
 105    5.7754412785764e-05
 106    -4.7825046277222e-05
 107    -3.6288517243308e-05
 108    1.0496374684143e-05
 109    -5.9525555551152e-06
 110    -4.3887324893882e-06
 111    -0.00046118722471417
 112    -1.5232157378379e-05
 113    4.1563509961261e-05
 114    -2.4529129138067e-05
 115    0.00014994422436353
 116    0.00038441058095638
 117    0.0010830116372629
 118    -0.00017729021728611
 119    0.00013148382663415
 120    -0.00012614713129271
 121    0.00058098218531063
 122    3.6236657058981e-05
 123    -0.00063762807002775
 124    0.00010689500516937
 125    -0.00022187334658697
 126    4.4694863661261e-05
 127    -3.2860938456008e-05
 128    0.00014626459446458
 129    2.2484726679312e-05
 130    3.3655068388638e-05
 131    -3.4509090967625e-05
 132    -1.5383506588514e-05
 133    4.9605115332567e-05
 134    1.9260345685204e-05
 135    7.808699043051e-05
 136    -3.1070631290108e-05
 137    -2.5254805508218e-05
 138    1.1510013863679e-05
 139    -0.00051554916811455
 140    -0.0011960993165737
 141    0.0062559134754219
 142    -0.00049013514803966
 143    -0.00072769239258939
 144    0.00072820973159329
 145    0.00055431757558434
 146    0.00092103880611818
 147    -0.0015151402584669
 148    4.9412951232536e-05
 149    1.0453527527385e-06
 150    2.9990306743375e-05
 151    0.00016011961585523
 152    2.0127870451256e-05
 153    -1.2286492278092e-05
 154    -0.00020576257116611
 155    -5.8481094395577e-05
 156    2.1805511510928e-05
 157    -3.091144134861e-05
 158    0.00020317985179538
 159    0.00019519838689523
 160    -8.9659078460933e-05
 161    7.3322912930327e-05
 162    -2.4995710363677e-05
 163     0.039086986782884
 164    -0.010162096565009
 165    -0.0059216007395607
 166    0.0071426004021956
 167    -0.0039171694529016
 168    -0.00014816875940623
 169    0.0018781911480849
 170    -0.0015563000469977
 171    -0.0001399041094719
 172    0.00017386960041683
 173    0.00082877339735476
 174    -0.00086085795119938
 175    -0.00044475189563413
 176    0.00093077865644404
 177    0.00012932243422144
 178    0.00055383224963377
 179    -7.3591859250277e-05
 180    -5.364825917981e-06
 181    2.0243192134451e-06
 182      0.29423943526289
 183     0.010549196786534
 184    0.0022001632103179
 185    0.0052669550216129
 186    0.0060312005231339
 187    -0.0059059760784958
 188    0.0038432929849624
 189    0.0026192654049148
 190    -0.0040112920358252
 191    0.00050528377420082
 192    -0.00041627896540467
 193    -0.00075995049045956
 194    0.0015484780354407
 195    0.00099153661110281
 196    -0.0002295949427549
 197    -0.00034583975449459
 198    -6.1734882369432e-05
 199    -1.1341352566728e-05
 200    9.228921771547e-05
 201    -0.0057570495527177
 202     -0.00176679502486
 203    -0.00017721551363737
 204    -0.0004847792504906
 205    -0.00049524434300355
 206    -0.0037520224799942
 207    0.0015254741504503
 208    0.0003188238969682
 209    0.00059384939783938
 210    -0.00019820927901461
 211    -0.099303112785077
 212    -0.029921070478364
 213     -0.02018134043058
 214    0.0012683163197791
 215    -0.012724123538494
 216    0.0057132840566109
 217    0.0015668018039874
 218    -0.0069961477861011
 219    0.0036299558796338
 220    -0.00080416445979928
 221    -0.00085335994075023
 222    -0.00070015685695799
 223    -0.00096610111434199
 224    0.00035702429783126
 225    0.0047609175679921
 226    -0.002197573329674
 227    -0.00024250938201298
 228    -0.00054934916687729
 229    -0.00043076489231295
 230    0.0059863166962543
 231    0.0008646061992907
 232    0.00050234515814625
 233    -0.00023798829887397
 234    0.0003135595322713
 235      0.81915213279993
 236    -0.0076822837617037
 237    -0.013670013180995
 238     0.013000701909631
 239      0.05298882147216
 240    -0.0079524076558351
 241    0.0064290021817454
 242     0.024926948869601
 243    -0.0039984002811096
 244    0.00012483010120782
 245    -0.0024721417080041
 246    -0.0021665846865342
 247    0.00044686912171674
 248    -0.00030980192285925
 249    -0.018627135943883
 250    -0.0058878806147036
 251    0.00081013888708743
 252    0.00073954422588593
 253    0.0016293798314163
 254    -0.0022283253722817
 255      0.00452247412888
 256    -0.00038552405391007
 257    -0.0010938676216485
 258    0.00036965427326336
 259     -0.45466149439335
 260    0.00027384393019342
 261    0.0062480595545619
 262     -0.01266996750584
 263     0.031689902892723
 264    -0.0017295301187076