[Molden Format]
made by pyscf v[2.0.1]
[Atoms] (AU)
O   1   8     0.00000000000000     0.00000000000000     6.40640788651141
H   2   1     0.00000000000000     0.00000000000000     4.58300606461044
H   3   1    -0.05031916615174     1.78353439551780     6.78227958297808
O   4   8     0.00000000000000     0.00000000000000     2.31533471513237
C   5   6     0.00000000000000     0.00000000000000     0.00000000000000
C   6   6     2.01118073026938    -1.40227222164369    -1.50774939176400
C   7   6    -2.01249334291722     1.41331050329955    -1.50319235519811
H   8   1     3.32037363730244    -2.26721897153159    -0.13599698591495
C   9   6     3.45899267434009     0.28739631745591    -3.37437943254505
H   10   1     1.07662969841332    -2.94725144642667    -2.56541439481080
H   11   1    -2.67503415753480     0.18421555839588    -3.06194479365997
H   12   1    -1.08005520873877     3.03851734677796    -2.43674295017013
C   13   6    -4.21607110578555     2.32938802552922     0.11994192435017
H   14   1     4.24440173074564     1.93368664387684    -2.34976285512790
H   15   1     2.18907033049676     1.04714335134846    -4.81494497423699
C   16   6     5.60746363007797    -1.12419643481196    -4.70268606082550
H   17   1    -3.46838323670267     3.50951302338067     1.66946842715333
H   18   1    -5.11873485366228     0.68575958301209     1.04047743976495
C   19   6    -6.18314754751344     3.80909592987882    -1.39656589068747
H   20   1     6.93011263717176    -1.87550812453645    -3.26656317360070
C   21   6     7.10306991577580     0.52877932406334    -6.57829775293605
H   22   1     4.82318879258361    -2.78573437948532    -5.70504560381835
H   23   1    -6.91582688743803     2.61304780074712    -2.95074552451969
H   24   1    -5.26532430573853     5.45420349051338    -2.31005832200284
C   25   6    -8.39941882261433     4.73263980500213     0.21800571437956
H   26   1     7.83338371486801     2.19084139882824    -5.57093109900697
H   27   1     5.73544244039420     1.27376866537418    -8.01071492370229
C   28   6     9.21124858443101    -0.89699110072176    -7.88926949186242
H   29   1    -7.66272760055236     5.92277078003992     1.77035591474408
H   30   1    -9.31497248082589     3.08753015622020     1.12614408368786
C   31   6   -10.35481709231879     6.21833079391143    -1.30905206253246
H   32   1    10.58815905329501    -1.61099162890610    -6.52093739071026
H   33   1    10.23506248045667     0.32468009384095    -9.23072870921204
H   34   1     8.47665842847139    -2.53598436989925    -8.94921964622535
H   35   1    -9.48948872868064     7.90013588951020    -2.18823918416067
H   36   1   -11.93332774482359     6.86460487874102    -0.11255798845995
H   37   1   -11.15126291841033     5.04495968327630    -2.83849898862534
[GTO]
1 0
 s    8 1.00
                 11720  0.00070964594651845
                  1759  0.0054672722921914
                 400.8   0.027823118610189
                 113.7    0.10474773971146
                 37.03    0.28292084635691
                 13.27    0.44849523869833
                 5.025    0.27081688521277
                 1.013    0.01545029160744
 s    8 1.00
                 11720  -0.00031444341168873
                  1759  -0.0024821376810179
                 400.8  -0.012316355381583
                 113.7  -0.050538917343672
                 37.03   -0.13938490331632
                 13.27   -0.32507749481778
                 5.025   -0.22984830758785
                 1.013     1.0953793467883
 s    1 1.00
                0.3023                   1
 p    3 1.00
                  17.7   0.062679166281506
                 3.854    0.33353656587936
                 1.046    0.74123964163973
 p    1 1.00
                0.2753                   1
 d    1 1.00
                 1.185                   1

2 0
 s    3 1.00
                 13.01   0.033498726389998
                 1.962    0.23480080117413
                0.4446     0.8136829578829
 s    1 1.00
                 0.122                   1
 p    1 1.00
                 0.727                   1

3 0
 s    3 1.00
                 13.01   0.033498726389998
                 1.962    0.23480080117413
                0.4446     0.8136829578829
 s    1 1.00
                 0.122                   1
 p    1 1.00
                 0.727                   1

4 0
 s    8 1.00
                 11720  0.00070964594651845
                  1759  0.0054672722921914
                 400.8   0.027823118610189
                 113.7    0.10474773971146
                 37.03    0.28292084635691
                 13.27    0.44849523869833
                 5.025    0.27081688521277
                 1.013    0.01545029160744
 s    8 1.00
                 11720  -0.00031444341168873
                  1759  -0.0024821376810179
                 400.8  -0.012316355381583
                 113.7  -0.050538917343672
                 37.03   -0.13938490331632
                 13.27   -0.32507749481778
                 5.025   -0.22984830758785
                 1.013     1.0953793467883
 s    1 1.00
                0.3023                   1
 p    3 1.00
                  17.7   0.062679166281506
                 3.854    0.33353656587936
                 1.046    0.74123964163973
 p    1 1.00
                0.2753                   1
 d    1 1.00
                 1.185                   1

5 0
 s    8 1.00
                  6665  0.00069158396281299
                  1000  0.0053257961529341
                   228   0.027060721042034
                 64.71    0.10165684614077
                 21.06     0.2745748236174
                 7.495    0.44829431892377
                 2.797    0.28490261071525
                0.5215   0.015194859206082
 s    8 1.00
                  6665  -0.00029326965268655
                  1000  -0.0023180354739745
                   228  -0.011499786038565
                 64.71  -0.046826727009787
                 21.06   -0.12846616875047
                 7.495   -0.30126627246289
                 2.797   -0.25563070233011
                0.5215      1.093793361012
 s    1 1.00
                0.1596                   1
 p    3 1.00
                 9.439   0.056979251590039
                 2.002    0.31320721150073
                0.5456    0.76037674173753
 p    1 1.00
                0.1517                   1
 d    1 1.00
                  0.55                   1

6 0
 s    8 1.00
                  6665  0.00069158396281299
                  1000  0.0053257961529341
                   228   0.027060721042034
                 64.71    0.10165684614077
                 21.06     0.2745748236174
                 7.495    0.44829431892377
                 2.797    0.28490261071525
                0.5215   0.015194859206082
 s    8 1.00
                  6665  -0.00029326965268655
                  1000  -0.0023180354739745
                   228  -0.011499786038565
                 64.71  -0.046826727009787
                 21.06   -0.12846616875047
                 7.495   -0.30126627246289
                 2.797   -0.25563070233011
                0.5215      1.093793361012
 s    1 1.00
                0.1596                   1
 p    3 1.00
                 9.439   0.056979251590039
                 2.002    0.31320721150073
                0.5456    0.76037674173753
 p    1 1.00
                0.1517                   1
 d    1 1.00
                  0.55                   1

7 0
 s    8 1.00
                  6665  0.00069158396281299
                  1000  0.0053257961529341
                   228   0.027060721042034
                 64.71    0.10165684614077
                 21.06     0.2745748236174
                 7.495    0.44829431892377
                 2.797    0.28490261071525
                0.5215   0.015194859206082
 s    8 1.00
                  6665  -0.00029326965268655
                  1000  -0.0023180354739745
                   228  -0.011499786038565
                 64.71  -0.046826727009787
                 21.06   -0.12846616875047
                 7.495   -0.30126627246289
                 2.797   -0.25563070233011
                0.5215      1.093793361012
 s    1 1.00
                0.1596                   1
 p    3 1.00
                 9.439   0.056979251590039
                 2.002    0.31320721150073
                0.5456    0.76037674173753
 p    1 1.00
                0.1517                   1
 d    1 1.00
                  0.55                   1

8 0
 s    3 1.00
                 13.01   0.033498726389998
                 1.962    0.23480080117413
                0.4446     0.8136829578829
 s    1 1.00
                 0.122                   1
 p    1 1.00
                 0.727                   1

9 0
 s    8 1.00
                  6665  0.00069158396281299
                  1000  0.0053257961529341
                   228   0.027060721042034
                 64.71    0.10165684614077
                 21.06     0.2745748236174
                 7.495    0.44829431892377
                 2.797    0.28490261071525
                0.5215   0.015194859206082
 s    8 1.00
                  6665  -0.00029326965268655
                  1000  -0.0023180354739745
                   228  -0.011499786038565
                 64.71  -0.046826727009787
                 21.06   -0.12846616875047
                 7.495   -0.30126627246289
                 2.797   -0.25563070233011
                0.5215      1.093793361012
 s    1 1.00
                0.1596                   1
 p    3 1.00
                 9.439   0.056979251590039
                 2.002    0.31320721150073
                0.5456    0.76037674173753
 p    1 1.00
                0.1517                   1
 d    1 1.00
                  0.55                   1

10 0
 s    3 1.00
                 13.01   0.033498726389998
                 1.962    0.23480080117413
                0.4446     0.8136829578829
 s    1 1.00
                 0.122                   1
 p    1 1.00
                 0.727                   1

11 0
 s    3 1.00
                 13.01   0.033498726389998
                 1.962    0.23480080117413
                0.4446     0.8136829578829
 s    1 1.00
                 0.122                   1
 p    1 1.00
                 0.727                   1

12 0
 s    3 1.00
                 13.01   0.033498726389998
                 1.962    0.23480080117413
                0.4446     0.8136829578829
 s    1 1.00
                 0.122                   1
 p    1 1.00
                 0.727                   1

13 0
 s    8 1.00
                  6665  0.00069158396281299
                  1000  0.0053257961529341
                   228   0.027060721042034
                 64.71    0.10165684614077
                 21.06     0.2745748236174
                 7.495    0.44829431892377
                 2.797    0.28490261071525
                0.5215   0.015194859206082
 s    8 1.00
                  6665  -0.00029326965268655
                  1000  -0.0023180354739745
                   228  -0.011499786038565
                 64.71  -0.046826727009787
                 21.06   -0.12846616875047
                 7.495   -0.30126627246289
                 2.797   -0.25563070233011
                0.5215      1.093793361012
 s    1 1.00
                0.1596                   1
 p    3 1.00
                 9.439   0.056979251590039
                 2.002    0.31320721150073
                0.5456    0.76037674173753
 p    1 1.00
                0.1517                   1
 d    1 1.00
                  0.55                   1

14 0
 s    3 1.00
                 13.01   0.033498726389998
                 1.962    0.23480080117413
                0.4446     0.8136829578829
 s    1 1.00
                 0.122                   1
 p    1 1.00
                 0.727                   1

15 0
 s    3 1.00
                 13.01   0.033498726389998
                 1.962    0.23480080117413
                0.4446     0.8136829578829
 s    1 1.00
                 0.122                   1
 p    1 1.00
                 0.727                   1

16 0
 s    8 1.00
                  6665  0.00069158396281299
                  1000  0.0053257961529341
                   228   0.027060721042034
                 64.71    0.10165684614077
                 21.06     0.2745748236174
                 7.495    0.44829431892377
                 2.797    0.28490261071525
                0.5215   0.015194859206082
 s    8 1.00
                  6665  -0.00029326965268655
                  1000  -0.0023180354739745
                   228  -0.011499786038565
                 64.71  -0.046826727009787
                 21.06   -0.12846616875047
                 7.495   -0.30126627246289
                 2.797   -0.25563070233011
                0.5215      1.093793361012
 s    1 1.00
                0.1596                   1
 p    3 1.00
                 9.439   0.056979251590039
                 2.002    0.31320721150073
                0.5456    0.76037674173753
 p    1 1.00
                0.1517                   1
 d    1 1.00
                  0.55                   1

17 0
 s    3 1.00
                 13.01   0.033498726389998
                 1.962    0.23480080117413
                0.4446     0.8136829578829
 s    1 1.00
                 0.122                   1
 p    1 1.00
                 0.727                   1

18 0
 s    3 1.00
                 13.01   0.033498726389998
                 1.962    0.23480080117413
                0.4446     0.8136829578829
 s    1 1.00
                 0.122                   1
 p    1 1.00
                 0.727                   1

19 0
 s    8 1.00
                  6665  0.00069158396281299
                  1000  0.0053257961529341
                   228   0.027060721042034
                 64.71    0.10165684614077
                 21.06     0.2745748236174
                 7.495    0.44829431892377
                 2.797    0.28490261071525
                0.5215   0.015194859206082
 s    8 1.00
                  6665  -0.00029326965268655
                  1000  -0.0023180354739745
                   228  -0.011499786038565
                 64.71  -0.046826727009787
                 21.06   -0.12846616875047
                 7.495   -0.30126627246289
                 2.797   -0.25563070233011
                0.5215      1.093793361012
 s    1 1.00
                0.1596                   1
 p    3 1.00
                 9.439   0.056979251590039
                 2.002    0.31320721150073
                0.5456    0.76037674173753
 p    1 1.00
                0.1517                   1
 d    1 1.00
                  0.55                   1

20 0
 s    3 1.00
                 13.01   0.033498726389998
                 1.962    0.23480080117413
                0.4446     0.8136829578829
 s    1 1.00
                 0.122                   1
 p    1 1.00
                 0.727                   1

21 0
 s    8 1.00
                  6665  0.00069158396281299
                  1000  0.0053257961529341
                   228   0.027060721042034
                 64.71    0.10165684614077
                 21.06     0.2745748236174
                 7.495    0.44829431892377
                 2.797    0.28490261071525
                0.5215   0.015194859206082
 s    8 1.00
                  6665  -0.00029326965268655
                  1000  -0.0023180354739745
                   228  -0.011499786038565
                 64.71  -0.046826727009787
                 21.06   -0.12846616875047
                 7.495   -0.30126627246289
                 2.797   -0.25563070233011
                0.5215      1.093793361012
 s    1 1.00
                0.1596                   1
 p    3 1.00
                 9.439   0.056979251590039
                 2.002    0.31320721150073
                0.5456    0.76037674173753
 p    1 1.00
                0.1517                   1
 d    1 1.00
                  0.55                   1

22 0
 s    3 1.00
                 13.01   0.033498726389998
                 1.962    0.23480080117413
                0.4446     0.8136829578829
 s    1 1.00
                 0.122                   1
 p    1 1.00
                 0.727                   1

23 0
 s    3 1.00
                 13.01   0.033498726389998
                 1.962    0.23480080117413
                0.4446     0.8136829578829
 s    1 1.00
                 0.122                   1
 p    1 1.00
                 0.727                   1

24 0
 s    3 1.00
                 13.01   0.033498726389998
                 1.962    0.23480080117413
                0.4446     0.8136829578829
 s    1 1.00
                 0.122                   1
 p    1 1.00
                 0.727                   1

25 0
 s    8 1.00
                  6665  0.00069158396281299
                  1000  0.0053257961529341
                   228   0.027060721042034
                 64.71    0.10165684614077
                 21.06     0.2745748236174
                 7.495    0.44829431892377
                 2.797    0.28490261071525
                0.5215   0.015194859206082
 s    8 1.00
                  6665  -0.00029326965268655
                  1000  -0.0023180354739745
                   228  -0.011499786038565
                 64.71  -0.046826727009787
                 21.06   -0.12846616875047
                 7.495   -0.30126627246289
                 2.797   -0.25563070233011
                0.5215      1.093793361012
 s    1 1.00
                0.1596                   1
 p    3 1.00
                 9.439   0.056979251590039
                 2.002    0.31320721150073
                0.5456    0.76037674173753
 p    1 1.00
                0.1517                   1
 d    1 1.00
                  0.55                   1

26 0
 s    3 1.00
                 13.01   0.033498726389998
                 1.962    0.23480080117413
                0.4446     0.8136829578829
 s    1 1.00
                 0.122                   1
 p    1 1.00
                 0.727                   1

27 0
 s    3 1.00
                 13.01   0.033498726389998
                 1.962    0.23480080117413
                0.4446     0.8136829578829
 s    1 1.00
                 0.122                   1
 p    1 1.00
                 0.727                   1

28 0
 s    8 1.00
                  6665  0.00069158396281299
                  1000  0.0053257961529341
                   228   0.027060721042034
                 64.71    0.10165684614077
                 21.06     0.2745748236174
                 7.495    0.44829431892377
                 2.797    0.28490261071525
                0.5215   0.015194859206082
 s    8 1.00
                  6665  -0.00029326965268655
                  1000  -0.0023180354739745
                   228  -0.011499786038565
                 64.71  -0.046826727009787
                 21.06   -0.12846616875047
                 7.495   -0.30126627246289
                 2.797   -0.25563070233011
                0.5215      1.093793361012
 s    1 1.00
                0.1596                   1
 p    3 1.00
                 9.439   0.056979251590039
                 2.002    0.31320721150073
                0.5456    0.76037674173753
 p    1 1.00
                0.1517                   1
 d    1 1.00
                  0.55                   1

29 0
 s    3 1.00
                 13.01   0.033498726389998
                 1.962    0.23480080117413
                0.4446     0.8136829578829
 s    1 1.00
                 0.122                   1
 p    1 1.00
                 0.727                   1

30 0
 s    3 1.00
                 13.01   0.033498726389998
                 1.962    0.23480080117413
                0.4446     0.8136829578829
 s    1 1.00
                 0.122                   1
 p    1 1.00
                 0.727                   1

31 0
 s    8 1.00
                  6665  0.00069158396281299
                  1000  0.0053257961529341
                   228   0.027060721042034
                 64.71    0.10165684614077
                 21.06     0.2745748236174
                 7.495    0.44829431892377
                 2.797    0.28490261071525
                0.5215   0.015194859206082
 s    8 1.00
                  6665  -0.00029326965268655
                  1000  -0.0023180354739745
                   228  -0.011499786038565
                 64.71  -0.046826727009787
                 21.06   -0.12846616875047
                 7.495   -0.30126627246289
                 2.797   -0.25563070233011
                0.5215      1.093793361012
 s    1 1.00
                0.1596                   1
 p    3 1.00
                 9.439   0.056979251590039
                 2.002    0.31320721150073
                0.5456    0.76037674173753
 p    1 1.00
                0.1517                   1
 d    1 1.00
                  0.55                   1

32 0
 s    3 1.00
                 13.01   0.033498726389998
                 1.962    0.23480080117413
                0.4446     0.8136829578829
 s    1 1.00
                 0.122                   1
 p    1 1.00
                 0.727                   1

33 0
 s    3 1.00
                 13.01   0.033498726389998
                 1.962    0.23480080117413
                0.4446     0.8136829578829
 s    1 1.00
                 0.122                   1
 p    1 1.00
                 0.727                   1

34 0
 s    3 1.00
                 13.01   0.033498726389998
                 1.962    0.23480080117413
                0.4446     0.8136829578829
 s    1 1.00
                 0.122                   1
 p    1 1.00
                 0.727                   1

35 0
 s    3 1.00
                 13.01   0.033498726389998
                 1.962    0.23480080117413
                0.4446     0.8136829578829
 s    1 1.00
                 0.122                   1
 p    1 1.00
                 0.727                   1

36 0
 s    3 1.00
                 13.01   0.033498726389998
                 1.962    0.23480080117413
                0.4446     0.8136829578829
 s    1 1.00
                 0.122                   1
 p    1 1.00
                 0.727                   1

37 0
 s    3 1.00
                 13.01   0.033498726389998
                 1.962    0.23480080117413
                0.4446     0.8136829578829
 s    1 1.00
                 0.122                   1
 p    1 1.00
                 0.727                   1

[5d]
[7f]
[9g]

[MO]
 Sym= A
 Ene=               0
 Spin= Alpha
 Occup=    1.00000
   1    -1.5456132376107e-06
   2    -7.0747077684775e-06
   3    -2.7461892250253e-08
   4    -3.1989838019368e-06
   5    -1.2936034564594e-07
   6    2.1403334631877e-05
   7    -2.7408458227455e-06
   8    -4.5029617307541e-06
   9    1.508662940754e-05
  10    5.0316269393153e-08
  11    1.1645497121533e-06
  12    -5.4048658974156e-07
  13    5.4780733288344e-07
  14    -5.029166823967e-08
  15    -1.2972187122856e-05
  16    -2.3771895985679e-05
  17    5.148882270362e-06
  18    -3.0996830635098e-06
  19    -4.6360406697968e-06
  20    2.8195906439076e-06
  21    1.0324320014965e-05
  22    -3.6541848066873e-08
  23    -9.7581834423306e-07
  24    -7.0775620809672e-07
  25    9.048036151961e-06
  26    -6.103651459642e-06
  27    -0.00013676694208314
  28    5.2311735488287e-06
  29    7.0464646675356e-05
  30    6.0482954302771e-05
  31    -8.1286690805116e-05
  32    0.00012933248394367
  33    0.00010560783824953
  34    -5.8772090661714e-06
  35    -2.371870164802e-06
  36    2.6220711424541e-07
  37    -6.2697071938174e-07
  38    -2.67142506546e-06
  39    -0.00011388025718836
  40    -6.0230329852716e-05
  41    0.00075614373967997
  42    9.4147535844084e-05
  43    -0.0001067046065443
  44    -4.6348783964702e-05
  45    0.00056149579042983
  46    -0.00043575972468054
  47    -9.3729546333066e-05
  48    -7.7734689047155e-06
  49    -2.1274763701497e-05
  50    3.3422803148191e-05
  51    -1.0700989093754e-05
  52    -3.0161100982495e-05
  53    9.9758699105988e-05
  54    -0.00023257161843944
  55    -7.3582441004929e-05
  56    -0.00025843682452672
  57    -0.00032070061160672
  58    0.00032005990687723
  59    0.00058169154051783
  60    -0.00030005140115774
  61    -0.0005364774492372
  62    9.5545279484409e-07
  63    1.5562087671054e-05
  64    2.7312489530861e-06
  65    1.7951011937244e-05
  66    8.1412855806542e-06
  67    -1.0141594956937e-05
  68    -3.7693031268904e-05
  69    -7.2998054605088e-05
  70    -4.4587654517732e-05
  71    4.7759734092669e-05
  72    -2.6753071563482e-05
  73    0.00023478055999747
  74    -5.8151278380636e-05
  75    -1.7437192573812e-05
  76    -1.1314942362263e-07
  77    1.2413167848726e-05
  78    -8.23387773764e-06
  79    -9.1230013900129e-06
  80    3.6787055146421e-06
  81    2.2188604133063e-05
  82    1.2516172552174e-05
  83    -2.1264163674187e-05
  84    1.0618063594676e-06
  85     2.89543384121e-05
  86    -0.00071595267038197
  87    -0.00051645648933137
  88    -0.00048685973400951
  89    0.00039583725684249
  90    -0.00032503581967402
  91    -0.00023477599831646
  92    0.0004324272082736
  93    0.00037056406116169
  94    -0.00047098896134817
  95    -6.3364837346521e-05
  96    -2.7761217387462e-05
  97    4.3309890015424e-05
  98    -3.1616183188805e-05
  99    -0.00012160329105694
 100    4.1478325725942e-05
 101    1.6237128613011e-05
 102    -4.1889356535897e-05
 103    3.4610017063397e-06
 104    3.0621241765212e-05
 105    -2.0064250246581e-05
 106    6.0861148976315e-05
 107    -1.1036584004992e-05
 108    6.433722091009e-06
 109    4.4579106627586e-06
 110    -1.0343094105933e-05
 111    0.0001056697528278
 112    -6.0880759267862e-06
 113    -2.2456488806956e-06
 114    -5.5183407333913e-07
 115    -2.5322463137987e-05
 116    -3.5014477393752e-05
 117    0.00019528156729636
 118    1.3420143191258e-05
 119    -6.2272452396229e-06
 120    -7.3367355549034e-06
 121    0.00017857383890091
 122    -0.00014160394627797
 123    -3.9548089962323e-05
 124    9.6436428233534e-07
 125    -1.1939629586652e-05
 126    6.1525620610205e-06
 127    5.6094124821493e-06
 128    -6.5214352129398e-06
 129    -0.00032405308825087
 130    -0.00019089986672772
 131    -1.2717495448209e-05
 132    9.2856162192558e-06
 133    7.8510640000395e-05
 134    -0.0003092292544284
 135    -0.000247384484857
 136    -7.5036502318116e-05
 137    -1.7679727327687e-05
 138    -1.0406863359168e-05
 139    0.0028098115885534
 140    0.0023576383963385
 141    0.0046547396882239
 142    9.3318521689438e-05
 143    -0.0020832034425516
 144    0.00066115488627286
 145    0.00099149375030711
 146    -2.8346533720357e-05
 147    -0.00092385815503494
 148    3.4826749265468e-06
 149    0.00019317754530962
 150    0.00014959465452177
 151    3.1591960198952e-05
 152    -6.4837241428258e-05
 153    -1.0432769302437e-05
 154    2.9539644826641e-05
 155    -3.0705452296113e-06
 156    2.700532514122e-06
 157    -1.5320194156393e-06
 158    -1.2827573936865e-05
 159    -1.5061940321191e-05
 160    -5.9598724831404e-06
 161    2.7603299803751e-06
 162    9.4798867010879e-07
 163    0.00048366696601816
 164    -1.7823723075501e-05
 165    7.0460264085678e-05
 166    -1.2142785717141e-05
 167    8.6496930027368e-06
 168    -8.2496506568617e-06
 169    4.255574174136e-05
 170    -1.3594784705952e-05
 171    -7.6895145351039e-06
 172    -5.7632015407601e-07
 173    1.2263179818182e-06
 174    8.1824531631148e-07
 175    1.6355015899765e-06
 176    -4.9680832542329e-09
 177    0.0022765406026677
 178    0.00083073250801854
 179    -0.00016719968362791
 180    7.2832978156525e-05
 181    -0.00021230178920043
 182       1.0007212327524
 183    0.0048067901468224
 184    -0.012265452264579
 185    0.00021451665636221
 186    0.00032076047282486
 187    -0.00030098758887598
 188    0.00038600872842907
 189    0.0014809550829795
 190    -0.00075692699096085
 191    -1.4012266879328e-05
 192    0.0003032096573088
 193    7.6309375144874e-05
 194    -0.00010650870093985
 195    2.4949575827722e-05
 196    0.0023098643512748
 197    0.00079920054979492
 198    0.0001341397712148
 199    0.00019896339959772
 200    0.00014292729632805
 201    -4.6365384885828e-06
 202    -5.7760895507589e-06
 203    -2.9084362269771e-06
 204    -4.4534554417035e-07
 205    -1.1982573433904e-06
 206    -2.0685462775497e-06
 207    -2.4246230763368e-05
 208    -1.2514876631217e-06
 209    3.7740066292828e-06
 210    -5.765974472086e-07
 211    -0.00032274005464465
 212    -5.8145621436795e-06
 213    1.0527886091411e-05
 214    1.331497759975e-06
 215    2.3695554640457e-07
 216    -2.8244604374827e-06
 217    6.4662768486544e-05
 218    -3.5504200544667e-05
 219    1.8504270722802e-05
 220    -2.202112261372e-07
 221    -1.7309932873714e-06
 222    2.0348405452245e-06
 223    8.0563854296901e-07
 224    -6.0520527669597e-07
 225    0.00015288714557281
 226    0.0013261225364257
 227    0.00020003007102584
 228    0.00031760873853526
 229    0.00025668004270897
 230    0.00021339571915404
 231    0.0013481023543112
 232    -0.00030107250306314
 233    9.0583344369473e-05
 234    -0.00032655255160375
 235        0.059699653495
 236    0.00014740282968695
 237    0.0019571001764126
 238    -5.7389426732375e-05
 239    0.00018274039340945
 240    -1.207228141907e-05
 241    -0.00080198552038305
 242    0.00058026152585479
 243    0.00045409500094926
 244    4.4952427645339e-05
 245    0.0001233737660986
 246    -0.00010569081603861
 247    -6.1424951178961e-05
 248    0.00015190041669265
 249    -4.0637059363824e-06
 250    -3.3246538014216e-06
 251    -1.8808092591648e-06
 252    1.9131816312952e-06
 253    -1.067103222047e-06
 254    -3.286227255879e-06
 255    5.076415688226e-06
 256    -1.752422467807e-06
 257    1.5519733944252e-06
 258    -2.0911826466992e-06
 259    -9.2643878481132e-05
 260    -8.1739801857616e-06
 261    4.9403140096194e-05
 262    -1.9439708873686e-06
 263    1.0164241789456e-06