[Molden Format]
made by pyscf v[2.0.1]
[Atoms] (AU)
O   1   8     0.00000000000000     0.00000000000000    10.56380536055454
H   2   1     0.00000000000000     0.00000000000000     8.74040353865358
H   3   1    -0.05031916615174     1.78353065140343    10.93967705702121
O   4   8     0.00000000000000     0.00000000000000     2.31533471513237
C   5   6     0.00000000000000     0.00000000000000     0.00000000000000
C   6   6     2.01118073026938    -1.40227222164369    -1.50774939176400
C   7   6    -2.01249334291722     1.41331050329955    -1.50315905028694
H   8   1     3.32037363730244    -2.26721897153159    -0.13599698591495
C   9   6     3.45899267434009     0.28739631745591    -3.37437943254505
H   10   1     1.07662969841332    -2.94725144642667    -2.56541439481080
H   11   1    -2.67503415753480     0.18421555839588    -3.06194479365997
H   12   1    -1.07974048864772     3.03851734677796    -2.43674295017013
C   13   6    -4.21607110578555     2.32938802552922     0.11994162256091
H   14   1     4.24440173074564     1.93368664142019    -2.34976285512790
H   15   1     2.15020713235517     1.04714335134846    -4.81494497423699
C   16   6     5.60746363007797    -1.12419643481196    -4.70268606082550
H   17   1    -3.46838323670267     3.50951302338067     1.66946842715333
H   18   1    -5.11873485366228     0.68575958301209     1.04047743976495
C   19   6    -6.18314754751344     3.80909592987882    -1.39656589068747
H   20   1     6.93011263717176    -1.87550812453645    -3.26656317360070
C   21   6     7.06356622236532     0.52877932406334    -6.57829775293605
H   22   1     4.82318879258361    -2.78573437948532    -5.70504560381835
H   23   1    -6.91582688743803     2.61304780074712    -2.95074552451969
H   24   1    -5.26532430573853     5.45420349051338    -2.31005832200284
C   25   6    -8.39941882261433     4.73263980500213     0.21800571437956
H   26   1     7.83338371486801     2.19084139882824    -5.57093109900697
H   27   1     5.73544244039420     1.27376866537418    -8.01071492370229
C   28   6     9.21124858443101    -0.89699110072176    -7.88926949186242
H   29   1    -7.66272760055236     5.92277078003992     1.77035591474408
H   30   1    -9.31497248082589     3.08753015622020     1.12614408368786
C   31   6   -10.35481709231879     6.21833079391143    -1.30905206253246
H   32   1    10.58815905329501    -1.61074586756696    -6.49512691622620
H   33   1    10.23506248045667     0.32468009384095    -9.23072870921204
H   34   1     8.47665842847139    -2.53598436989925    -8.94921964622535
H   35   1    -9.48948872868064     7.90013588951020    -2.18823918416067
H   36   1   -11.93332513000955     6.86460487874102    -0.11255798845995
H   37   1   -11.15126291841033     5.04495968327630    -2.83849898862534
[GTO]
1 0
 s    8 1.00
                 11720  0.00070964594651845
                  1759  0.0054672722921914
                 400.8   0.027823118610189
                 113.7    0.10474773971146
                 37.03    0.28292084635691
                 13.27    0.44849523869833
                 5.025    0.27081688521277
                 1.013    0.01545029160744
 s    8 1.00
                 11720  -0.00031444341168873
                  1759  -0.0024821376810179
                 400.8  -0.012316355381583
                 113.7  -0.050538917343672
                 37.03   -0.13938490331632
                 13.27   -0.32507749481778
                 5.025   -0.22984830758785
                 1.013     1.0953793467883
 s    1 1.00
                0.3023                   1
 p    3 1.00
                  17.7   0.062679166281506
                 3.854    0.33353656587936
                 1.046    0.74123964163973
 p    1 1.00
                0.2753                   1
 d    1 1.00
                 1.185                   1

2 0
 s    3 1.00
                 13.01   0.033498726389998
                 1.962    0.23480080117413
                0.4446     0.8136829578829
 s    1 1.00
                 0.122                   1
 p    1 1.00
                 0.727                   1

3 0
 s    3 1.00
                 13.01   0.033498726389998
                 1.962    0.23480080117413
                0.4446     0.8136829578829
 s    1 1.00
                 0.122                   1
 p    1 1.00
                 0.727                   1

4 0
 s    8 1.00
                 11720  0.00070964594651845
                  1759  0.0054672722921914
                 400.8   0.027823118610189
                 113.7    0.10474773971146
                 37.03    0.28292084635691
                 13.27    0.44849523869833
                 5.025    0.27081688521277
                 1.013    0.01545029160744
 s    8 1.00
                 11720  -0.00031444341168873
                  1759  -0.0024821376810179
                 400.8  -0.012316355381583
                 113.7  -0.050538917343672
                 37.03   -0.13938490331632
                 13.27   -0.32507749481778
                 5.025   -0.22984830758785
                 1.013     1.0953793467883
 s    1 1.00
                0.3023                   1
 p    3 1.00
                  17.7   0.062679166281506
                 3.854    0.33353656587936
                 1.046    0.74123964163973
 p    1 1.00
                0.2753                   1
 d    1 1.00
                 1.185                   1

5 0
 s    8 1.00
                  6665  0.00069158396281299
                  1000  0.0053257961529341
                   228   0.027060721042034
                 64.71    0.10165684614077
                 21.06     0.2745748236174
                 7.495    0.44829431892377
                 2.797    0.28490261071525
                0.5215   0.015194859206082
 s    8 1.00
                  6665  -0.00029326965268655
                  1000  -0.0023180354739745
                   228  -0.011499786038565
                 64.71  -0.046826727009787
                 21.06   -0.12846616875047
                 7.495   -0.30126627246289
                 2.797   -0.25563070233011
                0.5215      1.093793361012
 s    1 1.00
                0.1596                   1
 p    3 1.00
                 9.439   0.056979251590039
                 2.002    0.31320721150073
                0.5456    0.76037674173753
 p    1 1.00
                0.1517                   1
 d    1 1.00
                  0.55                   1

6 0
 s    8 1.00
                  6665  0.00069158396281299
                  1000  0.0053257961529341
                   228   0.027060721042034
                 64.71    0.10165684614077
                 21.06     0.2745748236174
                 7.495    0.44829431892377
                 2.797    0.28490261071525
                0.5215   0.015194859206082
 s    8 1.00
                  6665  -0.00029326965268655
                  1000  -0.0023180354739745
                   228  -0.011499786038565
                 64.71  -0.046826727009787
                 21.06   -0.12846616875047
                 7.495   -0.30126627246289
                 2.797   -0.25563070233011
                0.5215      1.093793361012
 s    1 1.00
                0.1596                   1
 p    3 1.00
                 9.439   0.056979251590039
                 2.002    0.31320721150073
                0.5456    0.76037674173753
 p    1 1.00
                0.1517                   1
 d    1 1.00
                  0.55                   1

7 0
 s    8 1.00
                  6665  0.00069158396281299
                  1000  0.0053257961529341
                   228   0.027060721042034
                 64.71    0.10165684614077
                 21.06     0.2745748236174
                 7.495    0.44829431892377
                 2.797    0.28490261071525
                0.5215   0.015194859206082
 s    8 1.00
                  6665  -0.00029326965268655
                  1000  -0.0023180354739745
                   228  -0.011499786038565
                 64.71  -0.046826727009787
                 21.06   -0.12846616875047
                 7.495   -0.30126627246289
                 2.797   -0.25563070233011
                0.5215      1.093793361012
 s    1 1.00
                0.1596                   1
 p    3 1.00
                 9.439   0.056979251590039
                 2.002    0.31320721150073
                0.5456    0.76037674173753
 p    1 1.00
                0.1517                   1
 d    1 1.00
                  0.55                   1

8 0
 s    3 1.00
                 13.01   0.033498726389998
                 1.962    0.23480080117413
                0.4446     0.8136829578829
 s    1 1.00
                 0.122                   1
 p    1 1.00
                 0.727                   1

9 0
 s    8 1.00
                  6665  0.00069158396281299
                  1000  0.0053257961529341
                   228   0.027060721042034
                 64.71    0.10165684614077
                 21.06     0.2745748236174
                 7.495    0.44829431892377
                 2.797    0.28490261071525
                0.5215   0.015194859206082
 s    8 1.00
                  6665  -0.00029326965268655
                  1000  -0.0023180354739745
                   228  -0.011499786038565
                 64.71  -0.046826727009787
                 21.06   -0.12846616875047
                 7.495   -0.30126627246289
                 2.797   -0.25563070233011
                0.5215      1.093793361012
 s    1 1.00
                0.1596                   1
 p    3 1.00
                 9.439   0.056979251590039
                 2.002    0.31320721150073
                0.5456    0.76037674173753
 p    1 1.00
                0.1517                   1
 d    1 1.00
                  0.55                   1

10 0
 s    3 1.00
                 13.01   0.033498726389998
                 1.962    0.23480080117413
                0.4446     0.8136829578829
 s    1 1.00
                 0.122                   1
 p    1 1.00
                 0.727                   1

11 0
 s    3 1.00
                 13.01   0.033498726389998
                 1.962    0.23480080117413
                0.4446     0.8136829578829
 s    1 1.00
                 0.122                   1
 p    1 1.00
                 0.727                   1

12 0
 s    3 1.00
                 13.01   0.033498726389998
                 1.962    0.23480080117413
                0.4446     0.8136829578829
 s    1 1.00
                 0.122                   1
 p    1 1.00
                 0.727                   1

13 0
 s    8 1.00
                  6665  0.00069158396281299
                  1000  0.0053257961529341
                   228   0.027060721042034
                 64.71    0.10165684614077
                 21.06     0.2745748236174
                 7.495    0.44829431892377
                 2.797    0.28490261071525
                0.5215   0.015194859206082
 s    8 1.00
                  6665  -0.00029326965268655
                  1000  -0.0023180354739745
                   228  -0.011499786038565
                 64.71  -0.046826727009787
                 21.06   -0.12846616875047
                 7.495   -0.30126627246289
                 2.797   -0.25563070233011
                0.5215      1.093793361012
 s    1 1.00
                0.1596                   1
 p    3 1.00
                 9.439   0.056979251590039
                 2.002    0.31320721150073
                0.5456    0.76037674173753
 p    1 1.00
                0.1517                   1
 d    1 1.00
                  0.55                   1

14 0
 s    3 1.00
                 13.01   0.033498726389998
                 1.962    0.23480080117413
                0.4446     0.8136829578829
 s    1 1.00
                 0.122                   1
 p    1 1.00
                 0.727                   1

15 0
 s    3 1.00
                 13.01   0.033498726389998
                 1.962    0.23480080117413
                0.4446     0.8136829578829
 s    1 1.00
                 0.122                   1
 p    1 1.00
                 0.727                   1

16 0
 s    8 1.00
                  6665  0.00069158396281299
                  1000  0.0053257961529341
                   228   0.027060721042034
                 64.71    0.10165684614077
                 21.06     0.2745748236174
                 7.495    0.44829431892377
                 2.797    0.28490261071525
                0.5215   0.015194859206082
 s    8 1.00
                  6665  -0.00029326965268655
                  1000  -0.0023180354739745
                   228  -0.011499786038565
                 64.71  -0.046826727009787
                 21.06   -0.12846616875047
                 7.495   -0.30126627246289
                 2.797   -0.25563070233011
                0.5215      1.093793361012
 s    1 1.00
                0.1596                   1
 p    3 1.00
                 9.439   0.056979251590039
                 2.002    0.31320721150073
                0.5456    0.76037674173753
 p    1 1.00
                0.1517                   1
 d    1 1.00
                  0.55                   1

17 0
 s    3 1.00
                 13.01   0.033498726389998
                 1.962    0.23480080117413
                0.4446     0.8136829578829
 s    1 1.00
                 0.122                   1
 p    1 1.00
                 0.727                   1

18 0
 s    3 1.00
                 13.01   0.033498726389998
                 1.962    0.23480080117413
                0.4446     0.8136829578829
 s    1 1.00
                 0.122                   1
 p    1 1.00
                 0.727                   1

19 0
 s    8 1.00
                  6665  0.00069158396281299
                  1000  0.0053257961529341
                   228   0.027060721042034
                 64.71    0.10165684614077
                 21.06     0.2745748236174
                 7.495    0.44829431892377
                 2.797    0.28490261071525
                0.5215   0.015194859206082
 s    8 1.00
                  6665  -0.00029326965268655
                  1000  -0.0023180354739745
                   228  -0.011499786038565
                 64.71  -0.046826727009787
                 21.06   -0.12846616875047
                 7.495   -0.30126627246289
                 2.797   -0.25563070233011
                0.5215      1.093793361012
 s    1 1.00
                0.1596                   1
 p    3 1.00
                 9.439   0.056979251590039
                 2.002    0.31320721150073
                0.5456    0.76037674173753
 p    1 1.00
                0.1517                   1
 d    1 1.00
                  0.55                   1

20 0
 s    3 1.00
                 13.01   0.033498726389998
                 1.962    0.23480080117413
                0.4446     0.8136829578829
 s    1 1.00
                 0.122                   1
 p    1 1.00
                 0.727                   1

21 0
 s    8 1.00
                  6665  0.00069158396281299
                  1000  0.0053257961529341
                   228   0.027060721042034
                 64.71    0.10165684614077
                 21.06     0.2745748236174
                 7.495    0.44829431892377
                 2.797    0.28490261071525
                0.5215   0.015194859206082
 s    8 1.00
                  6665  -0.00029326965268655
                  1000  -0.0023180354739745
                   228  -0.011499786038565
                 64.71  -0.046826727009787
                 21.06   -0.12846616875047
                 7.495   -0.30126627246289
                 2.797   -0.25563070233011
                0.5215      1.093793361012
 s    1 1.00
                0.1596                   1
 p    3 1.00
                 9.439   0.056979251590039
                 2.002    0.31320721150073
                0.5456    0.76037674173753
 p    1 1.00
                0.1517                   1
 d    1 1.00
                  0.55                   1

22 0
 s    3 1.00
                 13.01   0.033498726389998
                 1.962    0.23480080117413
                0.4446     0.8136829578829
 s    1 1.00
                 0.122                   1
 p    1 1.00
                 0.727                   1

23 0
 s    3 1.00
                 13.01   0.033498726389998
                 1.962    0.23480080117413
                0.4446     0.8136829578829
 s    1 1.00
                 0.122                   1
 p    1 1.00
                 0.727                   1

24 0
 s    3 1.00
                 13.01   0.033498726389998
                 1.962    0.23480080117413
                0.4446     0.8136829578829
 s    1 1.00
                 0.122                   1
 p    1 1.00
                 0.727                   1

25 0
 s    8 1.00
                  6665  0.00069158396281299
                  1000  0.0053257961529341
                   228   0.027060721042034
                 64.71    0.10165684614077
                 21.06     0.2745748236174
                 7.495    0.44829431892377
                 2.797    0.28490261071525
                0.5215   0.015194859206082
 s    8 1.00
                  6665  -0.00029326965268655
                  1000  -0.0023180354739745
                   228  -0.011499786038565
                 64.71  -0.046826727009787
                 21.06   -0.12846616875047
                 7.495   -0.30126627246289
                 2.797   -0.25563070233011
                0.5215      1.093793361012
 s    1 1.00
                0.1596                   1
 p    3 1.00
                 9.439   0.056979251590039
                 2.002    0.31320721150073
                0.5456    0.76037674173753
 p    1 1.00
                0.1517                   1
 d    1 1.00
                  0.55                   1

26 0
 s    3 1.00
                 13.01   0.033498726389998
                 1.962    0.23480080117413
                0.4446     0.8136829578829
 s    1 1.00
                 0.122                   1
 p    1 1.00
                 0.727                   1

27 0
 s    3 1.00
                 13.01   0.033498726389998
                 1.962    0.23480080117413
                0.4446     0.8136829578829
 s    1 1.00
                 0.122                   1
 p    1 1.00
                 0.727                   1

28 0
 s    8 1.00
                  6665  0.00069158396281299
                  1000  0.0053257961529341
                   228   0.027060721042034
                 64.71    0.10165684614077
                 21.06     0.2745748236174
                 7.495    0.44829431892377
                 2.797    0.28490261071525
                0.5215   0.015194859206082
 s    8 1.00
                  6665  -0.00029326965268655
                  1000  -0.0023180354739745
                   228  -0.011499786038565
                 64.71  -0.046826727009787
                 21.06   -0.12846616875047
                 7.495   -0.30126627246289
                 2.797   -0.25563070233011
                0.5215      1.093793361012
 s    1 1.00
                0.1596                   1
 p    3 1.00
                 9.439   0.056979251590039
                 2.002    0.31320721150073
                0.5456    0.76037674173753
 p    1 1.00
                0.1517                   1
 d    1 1.00
                  0.55                   1

29 0
 s    3 1.00
                 13.01   0.033498726389998
                 1.962    0.23480080117413
                0.4446     0.8136829578829
 s    1 1.00
                 0.122                   1
 p    1 1.00
                 0.727                   1

30 0
 s    3 1.00
                 13.01   0.033498726389998
                 1.962    0.23480080117413
                0.4446     0.8136829578829
 s    1 1.00
                 0.122                   1
 p    1 1.00
                 0.727                   1

31 0
 s    8 1.00
                  6665  0.00069158396281299
                  1000  0.0053257961529341
                   228   0.027060721042034
                 64.71    0.10165684614077
                 21.06     0.2745748236174
                 7.495    0.44829431892377
                 2.797    0.28490261071525
                0.5215   0.015194859206082
 s    8 1.00
                  6665  -0.00029326965268655
                  1000  -0.0023180354739745
                   228  -0.011499786038565
                 64.71  -0.046826727009787
                 21.06   -0.12846616875047
                 7.495   -0.30126627246289
                 2.797   -0.25563070233011
                0.5215      1.093793361012
 s    1 1.00
                0.1596                   1
 p    3 1.00
                 9.439   0.056979251590039
                 2.002    0.31320721150073
                0.5456    0.76037674173753
 p    1 1.00
                0.1517                   1
 d    1 1.00
                  0.55                   1

32 0
 s    3 1.00
                 13.01   0.033498726389998
                 1.962    0.23480080117413
                0.4446     0.8136829578829
 s    1 1.00
                 0.122                   1
 p    1 1.00
                 0.727                   1

33 0
 s    3 1.00
                 13.01   0.033498726389998
                 1.962    0.23480080117413
                0.4446     0.8136829578829
 s    1 1.00
                 0.122                   1
 p    1 1.00
                 0.727                   1

34 0
 s    3 1.00
                 13.01   0.033498726389998
                 1.962    0.23480080117413
                0.4446     0.8136829578829
 s    1 1.00
                 0.122                   1
 p    1 1.00
                 0.727                   1

35 0
 s    3 1.00
                 13.01   0.033498726389998
                 1.962    0.23480080117413
                0.4446     0.8136829578829
 s    1 1.00
                 0.122                   1
 p    1 1.00
                 0.727                   1

36 0
 s    3 1.00
                 13.01   0.033498726389998
                 1.962    0.23480080117413
                0.4446     0.8136829578829
 s    1 1.00
                 0.122                   1
 p    1 1.00
                 0.727                   1

37 0
 s    3 1.00
                 13.01   0.033498726389998
                 1.962    0.23480080117413
                0.4446     0.8136829578829
 s    1 1.00
                 0.122                   1
 p    1 1.00
                 0.727                   1

[5d]
[7f]
[9g]

[MO]
 Sym= A
 Ene=               0
 Spin= Alpha
 Occup=    1.00000
   1    1.6081971073995e-07
   2    1.6516146144695e-07
   3    -2.2680423216454e-07
   4    7.5401157224785e-09
   5    -1.121702677611e-07
   6    -9.5853748467512e-08
   7    3.7198165932897e-09
   8    1.2799386894187e-07
   9    2.7436994994036e-07
  10    -2.0427366813276e-07
  11    3.7116973927653e-10
  12    1.3013417370746e-08
  13    -1.609078165356e-08
  14    -6.5920198203756e-10
  15    6.0870955538794e-08
  16    -8.9580380008959e-07
  17    1.0599091846324e-08
  18    -4.646698681722e-08
  19    5.8989552887274e-07
  20    -1.9564086597925e-08
  21    -1.6478033389355e-07
  22    -4.4873425473183e-09
  23    1.4384653615733e-07
  24    -7.6239486954822e-09
  25    -8.7980122149053e-06
  26    6.8125584035515e-06
  27    0.00011814741332515
  28    -3.559747533606e-06
  29    -8.0120959166364e-05
  30    -6.9197133227528e-05
  31    7.7951113728047e-05
  32    -0.00012960527058775
  33    -8.6425404628479e-05
  34    5.3536114371161e-06
  35    2.0415533203912e-06
  36    1.1401259725823e-06
  37    7.2314354144066e-07
  38    2.5633603136779e-06
  39    0.00012048630951971
  40    6.6949829257917e-05
  41    -0.00074765197690953
  42    -9.8264048881491e-05
  43     0.000108708797708
  44    5.4772228811038e-05
  45    -0.00053884028296954
  46    0.00040068785533208
  47    0.00012794247480946
  48    1.1259980213965e-05
  49    2.1185809417705e-05
  50    -3.4333428797242e-05
  51    1.1090985523327e-05
  52    2.9660074086882e-05
  53    -9.4416685575619e-05
  54    0.00025397628762401
  55    8.954457971537e-05
  56    0.00027620032997963
  57    0.00034034386407806
  58    -0.00033933639224394
  59    -0.00053756082160859
  60    0.00029766286738466
  61    0.00048098531091861
  62    -2.0976639261761e-07
  63    -1.3957335199933e-05
  64    -4.3421516574639e-06
  65    -1.760599842545e-05
  66    -6.7742641935778e-06
  67    7.6130315273824e-06
  68    3.5667811618774e-05
  69    0.00012554869933738
  70    4.7329528006443e-05
  71    -4.9421947561755e-05
  72    2.9957207155669e-05
  73    -0.00022589139200323
  74    5.4467452161961e-05
  75    3.6645766256565e-05
  76    3.5351654298781e-07
  77    -1.2428089114632e-05
  78    8.3237513149656e-06
  79    9.9450239673861e-06
  80    -4.0392667379056e-06
  81    -1.8319129706974e-05
  82    -8.5893877066517e-06
  83    2.0720316692198e-05
  84    3.9483763647757e-07
  85    -2.9102715014677e-05
  86    0.00072655060817335
  87    0.00051135504133331
  88    0.00037466936091736
  89    -0.00042792780052664
  90    0.00033815337040847
  91    0.00025079245754861
  92    -0.00051916825411322
  93    -0.00034442300218166
  94    0.00054386447722547
  95    7.007715973178e-05
  96    1.8890159386681e-05
  97    -5.0273922097092e-05
  98    3.8271172451981e-05
  99    0.00013277634205087
 100    -4.3604532851245e-05
 101    -2.1439787471163e-05
 102    4.1440317904354e-05
 103    -2.0149620520581e-06
 104    -2.9690717307823e-05
 105    1.7989626979597e-05
 106    -5.7362303694741e-05
 107    1.1578769987279e-05
 108    -6.7713052507431e-06
 109    -4.4821460107523e-06
 110    9.2050864862313e-06
 111    -0.00010981268135941
 112    5.989423956524e-06
 113    2.363636813993e-06
 114    5.6841816799112e-07
 115    2.7244407830225e-05
 116    3.7563592762054e-05
 117    -0.00021036547277797
 118    -1.3740868812927e-05
 119    6.2893199512673e-06
 120    8.631883497233e-06
 121    -0.00018803753205686
 122    0.00014710325182509
 123    4.7285534033083e-05
 124    -9.5876697360632e-07
 125    1.2613545588799e-05
 126    -6.2238950423542e-06
 127    -6.0621039906614e-06
 128    6.7858065553403e-06
 129    0.00030738762289209
 130    0.00016204193455123
 131    1.3099746586912e-05
 132    -7.7003447681539e-06
 133    -7.6952277422355e-05
 134    0.00029369107987722
 135    0.00022067885870185
 136    7.3313712364355e-05
 137    1.8023287636852e-05
 138    9.4957284770387e-06
 139    -0.0028150743002509
 140    -0.002160199438652
 141    -0.0044000396873526
 142    0.00012338011629948
 143    0.0024274552667414
 144    -0.0010151868065124
 145    -0.00093081856706906
 146    0.00023428202634574
 147    0.00075477997051524
 148    6.212111831206e-06
 149    -0.0002195419370479
 150    -0.00017811981700325
 151    -3.2181569250276e-05
 152    8.551365570984e-05
 153    1.110767586026e-05
 154    -3.3260730855767e-05
 155    3.2208208314689e-06
 156    -2.7802633020609e-06
 157    1.5073994589281e-06
 158    1.4075594710426e-05
 159    1.3963707389837e-05
 160    6.2046262973576e-06
 161    -2.862175013021e-06
 162    -1.1231345043755e-06
 163    -0.00033355894839331
 164    1.8485194851231e-05
 165    -6.8681101384674e-05
 166    1.2374603767822e-05
 167    -8.8431380243423e-06
 168    8.4474592920135e-06
 169    -3.8930401478214e-05
 170    1.0453351543117e-05
 171    6.6707101956924e-06
 172    5.3605192324928e-07
 173    -1.063509702883e-06
 174    -8.0471238733466e-07
 175    -1.6523383485616e-06
 176    -7.2406017241505e-08
 177    -0.0023978594879188
 178    -0.00089825343002852
 179    0.00017861051664941
 180    -7.0050160647424e-05
 181    0.0002095291466133
 182     -0.99844451724791
 183    -0.004580562242803
 184     0.012339628988239
 185    -0.00047349202562038
 186    -0.00061751427098182
 187    0.00064586170003308
 188    -0.00043404546854188
 189    -0.0015859032799466
 190    0.00095161845012814
 191    2.3849402817573e-06
 192    -0.00035233813224651
 193    -5.6052601326796e-05
 194    0.00010391674804446
 195    -2.6615162912427e-05
 196    -0.0023956798895244
 197    -0.00087978884967874
 198    -0.00013118410427076
 199    -0.0002007990182936
 200    -0.00014765627469191
 201    4.5709487438126e-06
 202    5.6944575450396e-06
 203    2.7141252054856e-06
 204    4.5783420991093e-07
 205     1.21811705794e-06
 206    2.0661861946107e-06
 207    2.5355267713315e-05
 208    1.1448130712156e-06
 209    -3.7071962628647e-06
 210    7.415297687539e-07
 211    0.00045469853614193
 212    6.2900983084498e-06
 213    -9.829841967691e-06
 214    -1.429906410536e-06
 215    -2.4930625069096e-07
 216    3.1685915420913e-06
 217    -6.7251378145291e-05
 218    3.7778477924157e-05
 219    -2.0575118863027e-05
 220    2.4908815260655e-07
 221    1.8240171779311e-06
 222    -2.1053070282637e-06
 223    -8.1629192186364e-07
 224    6.5728726631552e-07
 225    -0.00023011085208851
 226    -0.001393081290822
 227    -0.00020913707005068
 228    -0.00032129048208297
 229    -0.00025055110815796
 230    -0.00022657143974126
 231    -0.001425000227994
 232    0.00029674924833296
 233    -0.00010103975782162
 234    0.00033480168748639
 235    -0.090140878490098
 236    -0.00032805603367473
 237    -0.0017065436212218
 238    0.00011761422707068
 239    -0.00019020114003009
 240    -2.8955591946037e-05
 241    0.00080356131960954
 242    -0.00056796037153345
 243    -0.00048164807239505
 244    -4.1734148012093e-05
 245    -0.00013961075497188
 246    0.00010059871753022
 247    7.3743617074238e-05
 248    -0.00015130368578898
 249    4.2141722812071e-06
 250    4.0757632629694e-06
 251    2.0181889743307e-06
 252    -2.0266662365687e-06
 253    1.2134271745586e-06
 254    3.4598968607186e-06
 255    -4.6036780269537e-06
 256    1.8898272165083e-06
 257    -1.6693339448636e-06
 258    2.2280879338896e-06
 259    0.00012300684996517
 260    8.4653137421599e-06
 261    -5.2175111318857e-05
 262    1.8868663157372e-06
 263    -9.924210264363e-07