[Molden Format]
made by pyscf v[2.0.1]
[Atoms] (AU)
O   1   8     0.00000000000000     0.00000000000000     7.54024356125045
H   2   1     0.00000000000000     0.00000000000000     5.71684173934948
H   3   1    -0.05031916615174     1.78353065140343     7.91611525771711
O   4   8     0.00000000000000     0.00000000000000     2.31533471513237
C   5   6     0.00000000000000     0.00000000000000     0.00000000000000
C   6   6     2.01118073026938    -1.40227222164369    -1.50774939176400
C   7   6    -2.01249334291722     1.41331050329955    -1.50315905028694
H   8   1     3.32037363730244    -2.26721897153159    -0.13599698591495
C   9   6     3.45899267434009     0.28739631745591    -3.37437943254505
H   10   1     1.07662969841332    -2.94725144642667    -2.56541439481080
H   11   1    -2.67503415753480     0.18421555839588    -3.06194479365997
H   12   1    -1.07974048864772     3.03851734677796    -2.43674295017013
C   13   6    -4.21607110578555     2.32938802552922     0.11994162256091
H   14   1     4.24440173074564     1.93368664142019    -2.34976285512790
H   15   1     2.15020713235517     1.04714335134846    -4.81494497423699
C   16   6     5.60746363007797    -1.12419643481196    -4.70268606082550
H   17   1    -3.46838323670267     3.50951302338067     1.66946842715333
H   18   1    -5.11873485366228     0.68575958301209     1.04047743976495
C   19   6    -6.18314754751344     3.80909592987882    -1.39656589068747
H   20   1     6.93011263717176    -1.87550812453645    -3.26656317360070
C   21   6     7.06356622236532     0.52877932406334    -6.57829775293605
H   22   1     4.82318879258361    -2.78573437948532    -5.70504560381835
H   23   1    -6.91582688743803     2.61304780074712    -2.95074552451969
H   24   1    -5.26532430573853     5.45420349051338    -2.31005832200284
C   25   6    -8.39941882261433     4.73263980500213     0.21800571437956
H   26   1     7.83338371486801     2.19084139882824    -5.57093109900697
H   27   1     5.73544244039420     1.27376866537418    -8.01071492370229
C   28   6     9.21124858443101    -0.89699110072176    -7.88926949186242
H   29   1    -7.66272760055236     5.92277078003992     1.77035591474408
H   30   1    -9.31497248082589     3.08753015622020     1.12614408368786
C   31   6   -10.35481709231879     6.21833079391143    -1.30905206253246
H   32   1    10.58815905329501    -1.61074586756696    -6.49512691622620
H   33   1    10.23506248045667     0.32468009384095    -9.23072870921204
H   34   1     8.47665842847139    -2.53598436989925    -8.94921964622535
H   35   1    -9.48948872868064     7.90013588951020    -2.18823918416067
H   36   1   -11.93332513000955     6.86460487874102    -0.11255798845995
H   37   1   -11.15126291841033     5.04495968327630    -2.83849898862534
[GTO]
1 0
 s    8 1.00
                 11720  0.00070964594651845
                  1759  0.0054672722921914
                 400.8   0.027823118610189
                 113.7    0.10474773971146
                 37.03    0.28292084635691
                 13.27    0.44849523869833
                 5.025    0.27081688521277
                 1.013    0.01545029160744
 s    8 1.00
                 11720  -0.00031444341168873
                  1759  -0.0024821376810179
                 400.8  -0.012316355381583
                 113.7  -0.050538917343672
                 37.03   -0.13938490331632
                 13.27   -0.32507749481778
                 5.025   -0.22984830758785
                 1.013     1.0953793467883
 s    1 1.00
                0.3023                   1
 p    3 1.00
                  17.7   0.062679166281506
                 3.854    0.33353656587936
                 1.046    0.74123964163973
 p    1 1.00
                0.2753                   1
 d    1 1.00
                 1.185                   1

2 0
 s    3 1.00
                 13.01   0.033498726389998
                 1.962    0.23480080117413
                0.4446     0.8136829578829
 s    1 1.00
                 0.122                   1
 p    1 1.00
                 0.727                   1

3 0
 s    3 1.00
                 13.01   0.033498726389998
                 1.962    0.23480080117413
                0.4446     0.8136829578829
 s    1 1.00
                 0.122                   1
 p    1 1.00
                 0.727                   1

4 0
 s    8 1.00
                 11720  0.00070964594651845
                  1759  0.0054672722921914
                 400.8   0.027823118610189
                 113.7    0.10474773971146
                 37.03    0.28292084635691
                 13.27    0.44849523869833
                 5.025    0.27081688521277
                 1.013    0.01545029160744
 s    8 1.00
                 11720  -0.00031444341168873
                  1759  -0.0024821376810179
                 400.8  -0.012316355381583
                 113.7  -0.050538917343672
                 37.03   -0.13938490331632
                 13.27   -0.32507749481778
                 5.025   -0.22984830758785
                 1.013     1.0953793467883
 s    1 1.00
                0.3023                   1
 p    3 1.00
                  17.7   0.062679166281506
                 3.854    0.33353656587936
                 1.046    0.74123964163973
 p    1 1.00
                0.2753                   1
 d    1 1.00
                 1.185                   1

5 0
 s    8 1.00
                  6665  0.00069158396281299
                  1000  0.0053257961529341
                   228   0.027060721042034
                 64.71    0.10165684614077
                 21.06     0.2745748236174
                 7.495    0.44829431892377
                 2.797    0.28490261071525
                0.5215   0.015194859206082
 s    8 1.00
                  6665  -0.00029326965268655
                  1000  -0.0023180354739745
                   228  -0.011499786038565
                 64.71  -0.046826727009787
                 21.06   -0.12846616875047
                 7.495   -0.30126627246289
                 2.797   -0.25563070233011
                0.5215      1.093793361012
 s    1 1.00
                0.1596                   1
 p    3 1.00
                 9.439   0.056979251590039
                 2.002    0.31320721150073
                0.5456    0.76037674173753
 p    1 1.00
                0.1517                   1
 d    1 1.00
                  0.55                   1

6 0
 s    8 1.00
                  6665  0.00069158396281299
                  1000  0.0053257961529341
                   228   0.027060721042034
                 64.71    0.10165684614077
                 21.06     0.2745748236174
                 7.495    0.44829431892377
                 2.797    0.28490261071525
                0.5215   0.015194859206082
 s    8 1.00
                  6665  -0.00029326965268655
                  1000  -0.0023180354739745
                   228  -0.011499786038565
                 64.71  -0.046826727009787
                 21.06   -0.12846616875047
                 7.495   -0.30126627246289
                 2.797   -0.25563070233011
                0.5215      1.093793361012
 s    1 1.00
                0.1596                   1
 p    3 1.00
                 9.439   0.056979251590039
                 2.002    0.31320721150073
                0.5456    0.76037674173753
 p    1 1.00
                0.1517                   1
 d    1 1.00
                  0.55                   1

7 0
 s    8 1.00
                  6665  0.00069158396281299
                  1000  0.0053257961529341
                   228   0.027060721042034
                 64.71    0.10165684614077
                 21.06     0.2745748236174
                 7.495    0.44829431892377
                 2.797    0.28490261071525
                0.5215   0.015194859206082
 s    8 1.00
                  6665  -0.00029326965268655
                  1000  -0.0023180354739745
                   228  -0.011499786038565
                 64.71  -0.046826727009787
                 21.06   -0.12846616875047
                 7.495   -0.30126627246289
                 2.797   -0.25563070233011
                0.5215      1.093793361012
 s    1 1.00
                0.1596                   1
 p    3 1.00
                 9.439   0.056979251590039
                 2.002    0.31320721150073
                0.5456    0.76037674173753
 p    1 1.00
                0.1517                   1
 d    1 1.00
                  0.55                   1

8 0
 s    3 1.00
                 13.01   0.033498726389998
                 1.962    0.23480080117413
                0.4446     0.8136829578829
 s    1 1.00
                 0.122                   1
 p    1 1.00
                 0.727                   1

9 0
 s    8 1.00
                  6665  0.00069158396281299
                  1000  0.0053257961529341
                   228   0.027060721042034
                 64.71    0.10165684614077
                 21.06     0.2745748236174
                 7.495    0.44829431892377
                 2.797    0.28490261071525
                0.5215   0.015194859206082
 s    8 1.00
                  6665  -0.00029326965268655
                  1000  -0.0023180354739745
                   228  -0.011499786038565
                 64.71  -0.046826727009787
                 21.06   -0.12846616875047
                 7.495   -0.30126627246289
                 2.797   -0.25563070233011
                0.5215      1.093793361012
 s    1 1.00
                0.1596                   1
 p    3 1.00
                 9.439   0.056979251590039
                 2.002    0.31320721150073
                0.5456    0.76037674173753
 p    1 1.00
                0.1517                   1
 d    1 1.00
                  0.55                   1

10 0
 s    3 1.00
                 13.01   0.033498726389998
                 1.962    0.23480080117413
                0.4446     0.8136829578829
 s    1 1.00
                 0.122                   1
 p    1 1.00
                 0.727                   1

11 0
 s    3 1.00
                 13.01   0.033498726389998
                 1.962    0.23480080117413
                0.4446     0.8136829578829
 s    1 1.00
                 0.122                   1
 p    1 1.00
                 0.727                   1

12 0
 s    3 1.00
                 13.01   0.033498726389998
                 1.962    0.23480080117413
                0.4446     0.8136829578829
 s    1 1.00
                 0.122                   1
 p    1 1.00
                 0.727                   1

13 0
 s    8 1.00
                  6665  0.00069158396281299
                  1000  0.0053257961529341
                   228   0.027060721042034
                 64.71    0.10165684614077
                 21.06     0.2745748236174
                 7.495    0.44829431892377
                 2.797    0.28490261071525
                0.5215   0.015194859206082
 s    8 1.00
                  6665  -0.00029326965268655
                  1000  -0.0023180354739745
                   228  -0.011499786038565
                 64.71  -0.046826727009787
                 21.06   -0.12846616875047
                 7.495   -0.30126627246289
                 2.797   -0.25563070233011
                0.5215      1.093793361012
 s    1 1.00
                0.1596                   1
 p    3 1.00
                 9.439   0.056979251590039
                 2.002    0.31320721150073
                0.5456    0.76037674173753
 p    1 1.00
                0.1517                   1
 d    1 1.00
                  0.55                   1

14 0
 s    3 1.00
                 13.01   0.033498726389998
                 1.962    0.23480080117413
                0.4446     0.8136829578829
 s    1 1.00
                 0.122                   1
 p    1 1.00
                 0.727                   1

15 0
 s    3 1.00
                 13.01   0.033498726389998
                 1.962    0.23480080117413
                0.4446     0.8136829578829
 s    1 1.00
                 0.122                   1
 p    1 1.00
                 0.727                   1

16 0
 s    8 1.00
                  6665  0.00069158396281299
                  1000  0.0053257961529341
                   228   0.027060721042034
                 64.71    0.10165684614077
                 21.06     0.2745748236174
                 7.495    0.44829431892377
                 2.797    0.28490261071525
                0.5215   0.015194859206082
 s    8 1.00
                  6665  -0.00029326965268655
                  1000  -0.0023180354739745
                   228  -0.011499786038565
                 64.71  -0.046826727009787
                 21.06   -0.12846616875047
                 7.495   -0.30126627246289
                 2.797   -0.25563070233011
                0.5215      1.093793361012
 s    1 1.00
                0.1596                   1
 p    3 1.00
                 9.439   0.056979251590039
                 2.002    0.31320721150073
                0.5456    0.76037674173753
 p    1 1.00
                0.1517                   1
 d    1 1.00
                  0.55                   1

17 0
 s    3 1.00
                 13.01   0.033498726389998
                 1.962    0.23480080117413
                0.4446     0.8136829578829
 s    1 1.00
                 0.122                   1
 p    1 1.00
                 0.727                   1

18 0
 s    3 1.00
                 13.01   0.033498726389998
                 1.962    0.23480080117413
                0.4446     0.8136829578829
 s    1 1.00
                 0.122                   1
 p    1 1.00
                 0.727                   1

19 0
 s    8 1.00
                  6665  0.00069158396281299
                  1000  0.0053257961529341
                   228   0.027060721042034
                 64.71    0.10165684614077
                 21.06     0.2745748236174
                 7.495    0.44829431892377
                 2.797    0.28490261071525
                0.5215   0.015194859206082
 s    8 1.00
                  6665  -0.00029326965268655
                  1000  -0.0023180354739745
                   228  -0.011499786038565
                 64.71  -0.046826727009787
                 21.06   -0.12846616875047
                 7.495   -0.30126627246289
                 2.797   -0.25563070233011
                0.5215      1.093793361012
 s    1 1.00
                0.1596                   1
 p    3 1.00
                 9.439   0.056979251590039
                 2.002    0.31320721150073
                0.5456    0.76037674173753
 p    1 1.00
                0.1517                   1
 d    1 1.00
                  0.55                   1

20 0
 s    3 1.00
                 13.01   0.033498726389998
                 1.962    0.23480080117413
                0.4446     0.8136829578829
 s    1 1.00
                 0.122                   1
 p    1 1.00
                 0.727                   1

21 0
 s    8 1.00
                  6665  0.00069158396281299
                  1000  0.0053257961529341
                   228   0.027060721042034
                 64.71    0.10165684614077
                 21.06     0.2745748236174
                 7.495    0.44829431892377
                 2.797    0.28490261071525
                0.5215   0.015194859206082
 s    8 1.00
                  6665  -0.00029326965268655
                  1000  -0.0023180354739745
                   228  -0.011499786038565
                 64.71  -0.046826727009787
                 21.06   -0.12846616875047
                 7.495   -0.30126627246289
                 2.797   -0.25563070233011
                0.5215      1.093793361012
 s    1 1.00
                0.1596                   1
 p    3 1.00
                 9.439   0.056979251590039
                 2.002    0.31320721150073
                0.5456    0.76037674173753
 p    1 1.00
                0.1517                   1
 d    1 1.00
                  0.55                   1

22 0
 s    3 1.00
                 13.01   0.033498726389998
                 1.962    0.23480080117413
                0.4446     0.8136829578829
 s    1 1.00
                 0.122                   1
 p    1 1.00
                 0.727                   1

23 0
 s    3 1.00
                 13.01   0.033498726389998
                 1.962    0.23480080117413
                0.4446     0.8136829578829
 s    1 1.00
                 0.122                   1
 p    1 1.00
                 0.727                   1

24 0
 s    3 1.00
                 13.01   0.033498726389998
                 1.962    0.23480080117413
                0.4446     0.8136829578829
 s    1 1.00
                 0.122                   1
 p    1 1.00
                 0.727                   1

25 0
 s    8 1.00
                  6665  0.00069158396281299
                  1000  0.0053257961529341
                   228   0.027060721042034
                 64.71    0.10165684614077
                 21.06     0.2745748236174
                 7.495    0.44829431892377
                 2.797    0.28490261071525
                0.5215   0.015194859206082
 s    8 1.00
                  6665  -0.00029326965268655
                  1000  -0.0023180354739745
                   228  -0.011499786038565
                 64.71  -0.046826727009787
                 21.06   -0.12846616875047
                 7.495   -0.30126627246289
                 2.797   -0.25563070233011
                0.5215      1.093793361012
 s    1 1.00
                0.1596                   1
 p    3 1.00
                 9.439   0.056979251590039
                 2.002    0.31320721150073
                0.5456    0.76037674173753
 p    1 1.00
                0.1517                   1
 d    1 1.00
                  0.55                   1

26 0
 s    3 1.00
                 13.01   0.033498726389998
                 1.962    0.23480080117413
                0.4446     0.8136829578829
 s    1 1.00
                 0.122                   1
 p    1 1.00
                 0.727                   1

27 0
 s    3 1.00
                 13.01   0.033498726389998
                 1.962    0.23480080117413
                0.4446     0.8136829578829
 s    1 1.00
                 0.122                   1
 p    1 1.00
                 0.727                   1

28 0
 s    8 1.00
                  6665  0.00069158396281299
                  1000  0.0053257961529341
                   228   0.027060721042034
                 64.71    0.10165684614077
                 21.06     0.2745748236174
                 7.495    0.44829431892377
                 2.797    0.28490261071525
                0.5215   0.015194859206082
 s    8 1.00
                  6665  -0.00029326965268655
                  1000  -0.0023180354739745
                   228  -0.011499786038565
                 64.71  -0.046826727009787
                 21.06   -0.12846616875047
                 7.495   -0.30126627246289
                 2.797   -0.25563070233011
                0.5215      1.093793361012
 s    1 1.00
                0.1596                   1
 p    3 1.00
                 9.439   0.056979251590039
                 2.002    0.31320721150073
                0.5456    0.76037674173753
 p    1 1.00
                0.1517                   1
 d    1 1.00
                  0.55                   1

29 0
 s    3 1.00
                 13.01   0.033498726389998
                 1.962    0.23480080117413
                0.4446     0.8136829578829
 s    1 1.00
                 0.122                   1
 p    1 1.00
                 0.727                   1

30 0
 s    3 1.00
                 13.01   0.033498726389998
                 1.962    0.23480080117413
                0.4446     0.8136829578829
 s    1 1.00
                 0.122                   1
 p    1 1.00
                 0.727                   1

31 0
 s    8 1.00
                  6665  0.00069158396281299
                  1000  0.0053257961529341
                   228   0.027060721042034
                 64.71    0.10165684614077
                 21.06     0.2745748236174
                 7.495    0.44829431892377
                 2.797    0.28490261071525
                0.5215   0.015194859206082
 s    8 1.00
                  6665  -0.00029326965268655
                  1000  -0.0023180354739745
                   228  -0.011499786038565
                 64.71  -0.046826727009787
                 21.06   -0.12846616875047
                 7.495   -0.30126627246289
                 2.797   -0.25563070233011
                0.5215      1.093793361012
 s    1 1.00
                0.1596                   1
 p    3 1.00
                 9.439   0.056979251590039
                 2.002    0.31320721150073
                0.5456    0.76037674173753
 p    1 1.00
                0.1517                   1
 d    1 1.00
                  0.55                   1

32 0
 s    3 1.00
                 13.01   0.033498726389998
                 1.962    0.23480080117413
                0.4446     0.8136829578829
 s    1 1.00
                 0.122                   1
 p    1 1.00
                 0.727                   1

33 0
 s    3 1.00
                 13.01   0.033498726389998
                 1.962    0.23480080117413
                0.4446     0.8136829578829
 s    1 1.00
                 0.122                   1
 p    1 1.00
                 0.727                   1

34 0
 s    3 1.00
                 13.01   0.033498726389998
                 1.962    0.23480080117413
                0.4446     0.8136829578829
 s    1 1.00
                 0.122                   1
 p    1 1.00
                 0.727                   1

35 0
 s    3 1.00
                 13.01   0.033498726389998
                 1.962    0.23480080117413
                0.4446     0.8136829578829
 s    1 1.00
                 0.122                   1
 p    1 1.00
                 0.727                   1

36 0
 s    3 1.00
                 13.01   0.033498726389998
                 1.962    0.23480080117413
                0.4446     0.8136829578829
 s    1 1.00
                 0.122                   1
 p    1 1.00
                 0.727                   1

37 0
 s    3 1.00
                 13.01   0.033498726389998
                 1.962    0.23480080117413
                0.4446     0.8136829578829
 s    1 1.00
                 0.122                   1
 p    1 1.00
                 0.727                   1

[5d]
[7f]
[9g]

[MO]
 Sym= A
 Ene=               0
 Spin= Alpha
 Occup=    1.00000
   1    -3.7531509269879e-06
   2    -7.053380803759e-06
   3    2.8493902796055e-05
   4    -8.3698539354498e-07
   5    1.4372845318655e-06
   6    -2.8253214254306e-08
   7    7.6506147026476e-07
   8    -2.3497179192466e-06
   9    -1.2453229842539e-05
  10    1.2882717007227e-06
  11    4.6726735203846e-07
  12    -3.8205569901881e-07
  13    -5.0917188479945e-08
  14    6.673242377314e-08
  15    -2.811495225656e-06
  16    -4.2054140735329e-05
  17    2.343742903203e-06
  18    -2.1697305415935e-06
  19    -3.8337343508453e-06
  20    1.1133374220894e-07
  21    4.1338412980618e-06
  22    1.774811136036e-08
  23    5.5790636426878e-07
  24    3.2084540161648e-07
  25    1.1098849391463e-05
  26    2.2137498169094e-05
  27    -0.00014987950148728
  28    5.1668711117412e-06
  29    -6.7700709708562e-06
  30    -1.7470027410785e-06
  31    -3.5274533166685e-05
  32    8.1494919398784e-05
  33    3.0042553159751e-05
  34    -9.923734068477e-07
  35    1.9777052736524e-06
  36    -2.6128859666644e-06
  37    -1.3651886797138e-06
  38    -2.7142382304004e-07
  39    -1.0245988114659e-05
  40    -1.8646257180596e-05
  41    -8.2058482365991e-05
  42    -2.4105463305417e-05
  43    1.3579899960561e-05
  44    2.0286498543126e-05
  45    0.00044767415158776
  46    -0.00055884748372486
  47    0.00029721023633887
  48    6.0091965992795e-06
  49    -1.7804628591849e-05
  50    2.3548191346582e-05
  51    -1.4464969863073e-05
  52    2.9195900941405e-06
  53    -5.3719269323108e-05
  54    -0.00013179519651616
  55    0.0005344356836843
  56    -5.5110267513564e-05
  57    -1.8099712224901e-05
  58    4.9377741961881e-05
  59    0.00086567390946239
  60    4.1155955869088e-05
  61    -0.00079123538766015
  62    7.9953831370098e-08
  63    -1.3338233481495e-05
  64    -3.9588254709344e-05
  65    -7.9414159000655e-06
  66    3.1737575480976e-05
  67    -8.441354378374e-06
  68    2.2967197264381e-05
  69    0.0002368735543721
  70    -5.5126952168175e-05
  71    8.5504860617966e-06
  72    8.9127932260456e-06
  73    0.00085093798648848
  74    -0.00031919473256124
  75    0.00020580618029148
  76    1.0953358417397e-05
  77    2.5847127465719e-05
  78    -3.3965927085575e-05
  79    -2.1411995422616e-05
  80    9.4484940005753e-06
  81    -2.8941346267416e-05
  82    -1.2456670510408e-05
  83    -1.6556064909277e-05
  84    3.0916102129872e-06
  85    2.1420007323914e-05
  86    -1.5548900960787e-05
  87    -0.00017482276379981
  88    -0.0021560567870773
  89    -0.00040164711428351
  90    0.00023839328260004
  91    0.00026308693726621
  92    -0.00044447393776175
  93     0.001198162671782
  94    0.00011329131568043
  95    2.0959133246364e-05
  96    9.4014113579284e-05
  97    -2.3488020911771e-05
  98    -3.1280342099058e-05
  99    3.9784659811637e-05
 100    -1.6890834490679e-05
 101    0.00018912644131338
 102    -3.3342365768907e-05
 103    1.8195898667565e-05
 104    2.9093342493665e-05
 105    4.5812680595759e-05
 106    1.7044839197811e-05
 107    -2.142513478957e-05
 108    1.0303397522781e-05
 109    -3.8908084302757e-06
 110    -2.4996327885294e-05
 111    -0.00032936322017665
 112    -1.1547747314853e-05
 113    3.0080863357686e-05
 114    -2.3152473793578e-05
 115    0.00011051606004966
 116    0.00025696707680293
 117    0.0010462755674284
 118    -0.00011001648474515
 119    7.8734200192931e-05
 120    -0.0001007348579592
 121    4.0792795858923e-05
 122    0.00039615091657152
 123    -0.00038037975623267
 124    3.8294249159342e-05
 125    -0.00012561043891587
 126    2.0721525708029e-05
 127    1.8736428697586e-06
 128    9.1014422367264e-05
 129    3.197272694868e-05
 130    9.3986861549026e-06
 131    -2.9586686799665e-05
 132    -1.6416777179963e-05
 133    4.9358359983456e-05
 134    1.679608588419e-05
 135    4.6351891507624e-05
 136    -3.2680964288328e-05
 137    -2.538424202792e-05
 138    7.0522874572518e-06
 139    -0.00059345724973185
 140    -0.0013051433463137
 141     0.006701642074843
 142    -0.00050121957067268
 143    -0.00073329291750774
 144    0.00074046911444736
 145    0.00049495841946067
 146     0.001028246279226
 147    -0.001555228976397
 148    4.903884210288e-05
 149    -1.2196187846153e-05
 150    5.2386571467572e-05
 151    0.00018974314234272
 152    2.654026216208e-06
 153    -6.3141991147658e-05
 154    -0.00022656940012424
 155    -1.8470948966917e-05
 156    2.3235070614767e-06
 157    -2.2999983389237e-05
 158    0.00017251411291879
 159    0.00027831797729866
 160    -4.9717620671885e-05
 161    5.7295520741165e-05
 162    -2.2688881854924e-05
 163     0.036318433386634
 164    -0.0057344865903523
 165    -0.0045198221471271
 166     0.003622015028923
 167    -0.0026274012059247
 168    -0.00024449906130585
 169    0.0012447597933453
 170    -0.0011660069926547
 171    -0.00037198017661383
 172    -8.09047651379e-05
 173    0.00044275047709243
 174    -0.00072449554954843
 175    -2.6818357579622e-05
 176    0.00064794660986814
 177    7.3336305414223e-05
 178    0.00054730518226556
 179    -7.1891602885502e-05
 180    -3.9167645958504e-06
 181    3.6037127268608e-07
 182      0.29895048640452
 183     0.010432560516014
 184    0.0020402328726545
 185    0.0056588437432835
 186    0.0058618097788507
 187    -0.0059941586489595
 188    0.0040839378894864
 189    0.0025240110972104
 190    -0.0041154242876859
 191    0.00051772889253054
 192    -0.00040843062579258
 193    -0.00085816305078955
 194    0.0016366183552729
 195    0.0010735751672641
 196    -0.00030972535810193
 197    -0.00042360198615512
 198    -6.5950705739218e-05
 199    -1.1822319840066e-05
 200    9.2317019819769e-05
 201    -0.0034771497014289
 202    -0.0018012494877682
 203    -7.8097721058892e-05
 204    -0.00026434837515309
 205    -0.00027602881396227
 206    -0.0021853651363221
 207    0.0013231568648081
 208     0.000193733830992
 209    0.00040268933934559
 210    -0.0001275429760501
 211     -0.10614384363401
 212    -0.017080141113271
 213    -0.0099579011974468
 214    -0.0048892809481919
 215    -0.012373649764129
 216    -0.0013621352477051
 217    -0.0016330335409265
 218    -0.0063686845288004
 219    -0.00043259652687366
 220    -0.00060261480423555
 221    -0.00040487337372017
 222    -0.0010105036996743
 223    -0.00042650837350322
 224    -5.8861714277984e-05
 225    0.0044153699205102
 226    -0.0025714832418108
 227    -0.00022343428973088
 228    -0.000546646072445
 229    -0.00042225372393701
 230    0.0056812063573345
 231    0.00078288488970898
 232    0.00049127484502585
 233    -0.00024431098634333
 234    0.0002743456569029
 235      0.86642617015369
 236    -0.0098539778796717
 237    -0.015470564136337
 238     0.013659119164306
 239     0.056227878399528
 240    -0.0071756823878939
 241    0.0067266847281418
 242     0.026493495947032
 243    -0.0036365644909517
 244    0.00014761271163196
 245    -0.0025988541122256
 246    -0.0023062270975033
 247    0.00050946670274969
 248    -0.00037266159405879
 249    -0.017989192234088
 250    -0.0063779430888983
 251    0.00054320562790871
 252    0.00060749414367168
 253    0.0013213481490924
 254    0.0030521998245272
 255    0.0043491187728612
 256    -0.00014774242169302
 257    -0.00045752379242144
 258    -7.8949051632635e-05
 259     -0.35768008453388
 260    0.0067380453331415
 261    0.0085335779929041
 262    -0.0075036128514484
 263     0.015379285109549
 264    -0.0024692366283715