[Molden Format]
made by pyscf v[2.0.1]
[Atoms] (AU)
O   1   8     0.00000000000000     0.00000000000000     7.16229833633744
H   2   1     0.00000000000000     0.00000000000000     5.33889651443647
H   3   1    -0.05031916615174     1.78353065140343     7.53817003280410
O   4   8     0.00000000000000     0.00000000000000     2.31533471513237
C   5   6     0.00000000000000     0.00000000000000     0.00000000000000
C   6   6     2.01118073026938    -1.40227222164369    -1.50774939176400
C   7   6    -2.01249334291722     1.41331050329955    -1.50315905028694
H   8   1     3.32037363730244    -2.26721897153159    -0.13599698591495
C   9   6     3.45899267434009     0.28739631745591    -3.37437943254505
H   10   1     1.07662969841332    -2.94725144642667    -2.56541439481080
H   11   1    -2.67503415753480     0.18421555839588    -3.06194479365997
H   12   1    -1.07974048864772     3.03851734677796    -2.43674295017013
C   13   6    -4.21607110578555     2.32938802552922     0.11994162256091
H   14   1     4.24440173074564     1.93368664142019    -2.34976285512790
H   15   1     2.15020713235517     1.04714335134846    -4.81494497423699
C   16   6     5.60746363007797    -1.12419643481196    -4.70268606082550
H   17   1    -3.46838323670267     3.50951302338067     1.66946842715333
H   18   1    -5.11873485366228     0.68575958301209     1.04047743976495
C   19   6    -6.18314754751344     3.80909592987882    -1.39656589068747
H   20   1     6.93011263717176    -1.87550812453645    -3.26656317360070
C   21   6     7.06356622236532     0.52877932406334    -6.57829775293605
H   22   1     4.82318879258361    -2.78573437948532    -5.70504560381835
H   23   1    -6.91582688743803     2.61304780074712    -2.95074552451969
H   24   1    -5.26532430573853     5.45420349051338    -2.31005832200284
C   25   6    -8.39941882261433     4.73263980500213     0.21800571437956
H   26   1     7.83338371486801     2.19084139882824    -5.57093109900697
H   27   1     5.73544244039420     1.27376866537418    -8.01071492370229
C   28   6     9.21124858443101    -0.89699110072176    -7.88926949186242
H   29   1    -7.66272760055236     5.92277078003992     1.77035591474408
H   30   1    -9.31497248082589     3.08753015622020     1.12614408368786
C   31   6   -10.35481709231879     6.21833079391143    -1.30905206253246
H   32   1    10.58815905329501    -1.61074586756696    -6.49512691622620
H   33   1    10.23506248045667     0.32468009384095    -9.23072870921204
H   34   1     8.47665842847139    -2.53598436989925    -8.94921964622535
H   35   1    -9.48948872868064     7.90013588951020    -2.18823918416067
H   36   1   -11.93332513000955     6.86460487874102    -0.11255798845995
H   37   1   -11.15126291841033     5.04495968327630    -2.83849898862534
[GTO]
1 0
 s    8 1.00
                 11720  0.00070964594651845
                  1759  0.0054672722921914
                 400.8   0.027823118610189
                 113.7    0.10474773971146
                 37.03    0.28292084635691
                 13.27    0.44849523869833
                 5.025    0.27081688521277
                 1.013    0.01545029160744
 s    8 1.00
                 11720  -0.00031444341168873
                  1759  -0.0024821376810179
                 400.8  -0.012316355381583
                 113.7  -0.050538917343672
                 37.03   -0.13938490331632
                 13.27   -0.32507749481778
                 5.025   -0.22984830758785
                 1.013     1.0953793467883
 s    1 1.00
                0.3023                   1
 p    3 1.00
                  17.7   0.062679166281506
                 3.854    0.33353656587936
                 1.046    0.74123964163973
 p    1 1.00
                0.2753                   1
 d    1 1.00
                 1.185                   1

2 0
 s    3 1.00
                 13.01   0.033498726389998
                 1.962    0.23480080117413
                0.4446     0.8136829578829
 s    1 1.00
                 0.122                   1
 p    1 1.00
                 0.727                   1

3 0
 s    3 1.00
                 13.01   0.033498726389998
                 1.962    0.23480080117413
                0.4446     0.8136829578829
 s    1 1.00
                 0.122                   1
 p    1 1.00
                 0.727                   1

4 0
 s    8 1.00
                 11720  0.00070964594651845
                  1759  0.0054672722921914
                 400.8   0.027823118610189
                 113.7    0.10474773971146
                 37.03    0.28292084635691
                 13.27    0.44849523869833
                 5.025    0.27081688521277
                 1.013    0.01545029160744
 s    8 1.00
                 11720  -0.00031444341168873
                  1759  -0.0024821376810179
                 400.8  -0.012316355381583
                 113.7  -0.050538917343672
                 37.03   -0.13938490331632
                 13.27   -0.32507749481778
                 5.025   -0.22984830758785
                 1.013     1.0953793467883
 s    1 1.00
                0.3023                   1
 p    3 1.00
                  17.7   0.062679166281506
                 3.854    0.33353656587936
                 1.046    0.74123964163973
 p    1 1.00
                0.2753                   1
 d    1 1.00
                 1.185                   1

5 0
 s    8 1.00
                  6665  0.00069158396281299
                  1000  0.0053257961529341
                   228   0.027060721042034
                 64.71    0.10165684614077
                 21.06     0.2745748236174
                 7.495    0.44829431892377
                 2.797    0.28490261071525
                0.5215   0.015194859206082
 s    8 1.00
                  6665  -0.00029326965268655
                  1000  -0.0023180354739745
                   228  -0.011499786038565
                 64.71  -0.046826727009787
                 21.06   -0.12846616875047
                 7.495   -0.30126627246289
                 2.797   -0.25563070233011
                0.5215      1.093793361012
 s    1 1.00
                0.1596                   1
 p    3 1.00
                 9.439   0.056979251590039
                 2.002    0.31320721150073
                0.5456    0.76037674173753
 p    1 1.00
                0.1517                   1
 d    1 1.00
                  0.55                   1

6 0
 s    8 1.00
                  6665  0.00069158396281299
                  1000  0.0053257961529341
                   228   0.027060721042034
                 64.71    0.10165684614077
                 21.06     0.2745748236174
                 7.495    0.44829431892377
                 2.797    0.28490261071525
                0.5215   0.015194859206082
 s    8 1.00
                  6665  -0.00029326965268655
                  1000  -0.0023180354739745
                   228  -0.011499786038565
                 64.71  -0.046826727009787
                 21.06   -0.12846616875047
                 7.495   -0.30126627246289
                 2.797   -0.25563070233011
                0.5215      1.093793361012
 s    1 1.00
                0.1596                   1
 p    3 1.00
                 9.439   0.056979251590039
                 2.002    0.31320721150073
                0.5456    0.76037674173753
 p    1 1.00
                0.1517                   1
 d    1 1.00
                  0.55                   1

7 0
 s    8 1.00
                  6665  0.00069158396281299
                  1000  0.0053257961529341
                   228   0.027060721042034
                 64.71    0.10165684614077
                 21.06     0.2745748236174
                 7.495    0.44829431892377
                 2.797    0.28490261071525
                0.5215   0.015194859206082
 s    8 1.00
                  6665  -0.00029326965268655
                  1000  -0.0023180354739745
                   228  -0.011499786038565
                 64.71  -0.046826727009787
                 21.06   -0.12846616875047
                 7.495   -0.30126627246289
                 2.797   -0.25563070233011
                0.5215      1.093793361012
 s    1 1.00
                0.1596                   1
 p    3 1.00
                 9.439   0.056979251590039
                 2.002    0.31320721150073
                0.5456    0.76037674173753
 p    1 1.00
                0.1517                   1
 d    1 1.00
                  0.55                   1

8 0
 s    3 1.00
                 13.01   0.033498726389998
                 1.962    0.23480080117413
                0.4446     0.8136829578829
 s    1 1.00
                 0.122                   1
 p    1 1.00
                 0.727                   1

9 0
 s    8 1.00
                  6665  0.00069158396281299
                  1000  0.0053257961529341
                   228   0.027060721042034
                 64.71    0.10165684614077
                 21.06     0.2745748236174
                 7.495    0.44829431892377
                 2.797    0.28490261071525
                0.5215   0.015194859206082
 s    8 1.00
                  6665  -0.00029326965268655
                  1000  -0.0023180354739745
                   228  -0.011499786038565
                 64.71  -0.046826727009787
                 21.06   -0.12846616875047
                 7.495   -0.30126627246289
                 2.797   -0.25563070233011
                0.5215      1.093793361012
 s    1 1.00
                0.1596                   1
 p    3 1.00
                 9.439   0.056979251590039
                 2.002    0.31320721150073
                0.5456    0.76037674173753
 p    1 1.00
                0.1517                   1
 d    1 1.00
                  0.55                   1

10 0
 s    3 1.00
                 13.01   0.033498726389998
                 1.962    0.23480080117413
                0.4446     0.8136829578829
 s    1 1.00
                 0.122                   1
 p    1 1.00
                 0.727                   1

11 0
 s    3 1.00
                 13.01   0.033498726389998
                 1.962    0.23480080117413
                0.4446     0.8136829578829
 s    1 1.00
                 0.122                   1
 p    1 1.00
                 0.727                   1

12 0
 s    3 1.00
                 13.01   0.033498726389998
                 1.962    0.23480080117413
                0.4446     0.8136829578829
 s    1 1.00
                 0.122                   1
 p    1 1.00
                 0.727                   1

13 0
 s    8 1.00
                  6665  0.00069158396281299
                  1000  0.0053257961529341
                   228   0.027060721042034
                 64.71    0.10165684614077
                 21.06     0.2745748236174
                 7.495    0.44829431892377
                 2.797    0.28490261071525
                0.5215   0.015194859206082
 s    8 1.00
                  6665  -0.00029326965268655
                  1000  -0.0023180354739745
                   228  -0.011499786038565
                 64.71  -0.046826727009787
                 21.06   -0.12846616875047
                 7.495   -0.30126627246289
                 2.797   -0.25563070233011
                0.5215      1.093793361012
 s    1 1.00
                0.1596                   1
 p    3 1.00
                 9.439   0.056979251590039
                 2.002    0.31320721150073
                0.5456    0.76037674173753
 p    1 1.00
                0.1517                   1
 d    1 1.00
                  0.55                   1

14 0
 s    3 1.00
                 13.01   0.033498726389998
                 1.962    0.23480080117413
                0.4446     0.8136829578829
 s    1 1.00
                 0.122                   1
 p    1 1.00
                 0.727                   1

15 0
 s    3 1.00
                 13.01   0.033498726389998
                 1.962    0.23480080117413
                0.4446     0.8136829578829
 s    1 1.00
                 0.122                   1
 p    1 1.00
                 0.727                   1

16 0
 s    8 1.00
                  6665  0.00069158396281299
                  1000  0.0053257961529341
                   228   0.027060721042034
                 64.71    0.10165684614077
                 21.06     0.2745748236174
                 7.495    0.44829431892377
                 2.797    0.28490261071525
                0.5215   0.015194859206082
 s    8 1.00
                  6665  -0.00029326965268655
                  1000  -0.0023180354739745
                   228  -0.011499786038565
                 64.71  -0.046826727009787
                 21.06   -0.12846616875047
                 7.495   -0.30126627246289
                 2.797   -0.25563070233011
                0.5215      1.093793361012
 s    1 1.00
                0.1596                   1
 p    3 1.00
                 9.439   0.056979251590039
                 2.002    0.31320721150073
                0.5456    0.76037674173753
 p    1 1.00
                0.1517                   1
 d    1 1.00
                  0.55                   1

17 0
 s    3 1.00
                 13.01   0.033498726389998
                 1.962    0.23480080117413
                0.4446     0.8136829578829
 s    1 1.00
                 0.122                   1
 p    1 1.00
                 0.727                   1

18 0
 s    3 1.00
                 13.01   0.033498726389998
                 1.962    0.23480080117413
                0.4446     0.8136829578829
 s    1 1.00
                 0.122                   1
 p    1 1.00
                 0.727                   1

19 0
 s    8 1.00
                  6665  0.00069158396281299
                  1000  0.0053257961529341
                   228   0.027060721042034
                 64.71    0.10165684614077
                 21.06     0.2745748236174
                 7.495    0.44829431892377
                 2.797    0.28490261071525
                0.5215   0.015194859206082
 s    8 1.00
                  6665  -0.00029326965268655
                  1000  -0.0023180354739745
                   228  -0.011499786038565
                 64.71  -0.046826727009787
                 21.06   -0.12846616875047
                 7.495   -0.30126627246289
                 2.797   -0.25563070233011
                0.5215      1.093793361012
 s    1 1.00
                0.1596                   1
 p    3 1.00
                 9.439   0.056979251590039
                 2.002    0.31320721150073
                0.5456    0.76037674173753
 p    1 1.00
                0.1517                   1
 d    1 1.00
                  0.55                   1

20 0
 s    3 1.00
                 13.01   0.033498726389998
                 1.962    0.23480080117413
                0.4446     0.8136829578829
 s    1 1.00
                 0.122                   1
 p    1 1.00
                 0.727                   1

21 0
 s    8 1.00
                  6665  0.00069158396281299
                  1000  0.0053257961529341
                   228   0.027060721042034
                 64.71    0.10165684614077
                 21.06     0.2745748236174
                 7.495    0.44829431892377
                 2.797    0.28490261071525
                0.5215   0.015194859206082
 s    8 1.00
                  6665  -0.00029326965268655
                  1000  -0.0023180354739745
                   228  -0.011499786038565
                 64.71  -0.046826727009787
                 21.06   -0.12846616875047
                 7.495   -0.30126627246289
                 2.797   -0.25563070233011
                0.5215      1.093793361012
 s    1 1.00
                0.1596                   1
 p    3 1.00
                 9.439   0.056979251590039
                 2.002    0.31320721150073
                0.5456    0.76037674173753
 p    1 1.00
                0.1517                   1
 d    1 1.00
                  0.55                   1

22 0
 s    3 1.00
                 13.01   0.033498726389998
                 1.962    0.23480080117413
                0.4446     0.8136829578829
 s    1 1.00
                 0.122                   1
 p    1 1.00
                 0.727                   1

23 0
 s    3 1.00
                 13.01   0.033498726389998
                 1.962    0.23480080117413
                0.4446     0.8136829578829
 s    1 1.00
                 0.122                   1
 p    1 1.00
                 0.727                   1

24 0
 s    3 1.00
                 13.01   0.033498726389998
                 1.962    0.23480080117413
                0.4446     0.8136829578829
 s    1 1.00
                 0.122                   1
 p    1 1.00
                 0.727                   1

25 0
 s    8 1.00
                  6665  0.00069158396281299
                  1000  0.0053257961529341
                   228   0.027060721042034
                 64.71    0.10165684614077
                 21.06     0.2745748236174
                 7.495    0.44829431892377
                 2.797    0.28490261071525
                0.5215   0.015194859206082
 s    8 1.00
                  6665  -0.00029326965268655
                  1000  -0.0023180354739745
                   228  -0.011499786038565
                 64.71  -0.046826727009787
                 21.06   -0.12846616875047
                 7.495   -0.30126627246289
                 2.797   -0.25563070233011
                0.5215      1.093793361012
 s    1 1.00
                0.1596                   1
 p    3 1.00
                 9.439   0.056979251590039
                 2.002    0.31320721150073
                0.5456    0.76037674173753
 p    1 1.00
                0.1517                   1
 d    1 1.00
                  0.55                   1

26 0
 s    3 1.00
                 13.01   0.033498726389998
                 1.962    0.23480080117413
                0.4446     0.8136829578829
 s    1 1.00
                 0.122                   1
 p    1 1.00
                 0.727                   1

27 0
 s    3 1.00
                 13.01   0.033498726389998
                 1.962    0.23480080117413
                0.4446     0.8136829578829
 s    1 1.00
                 0.122                   1
 p    1 1.00
                 0.727                   1

28 0
 s    8 1.00
                  6665  0.00069158396281299
                  1000  0.0053257961529341
                   228   0.027060721042034
                 64.71    0.10165684614077
                 21.06     0.2745748236174
                 7.495    0.44829431892377
                 2.797    0.28490261071525
                0.5215   0.015194859206082
 s    8 1.00
                  6665  -0.00029326965268655
                  1000  -0.0023180354739745
                   228  -0.011499786038565
                 64.71  -0.046826727009787
                 21.06   -0.12846616875047
                 7.495   -0.30126627246289
                 2.797   -0.25563070233011
                0.5215      1.093793361012
 s    1 1.00
                0.1596                   1
 p    3 1.00
                 9.439   0.056979251590039
                 2.002    0.31320721150073
                0.5456    0.76037674173753
 p    1 1.00
                0.1517                   1
 d    1 1.00
                  0.55                   1

29 0
 s    3 1.00
                 13.01   0.033498726389998
                 1.962    0.23480080117413
                0.4446     0.8136829578829
 s    1 1.00
                 0.122                   1
 p    1 1.00
                 0.727                   1

30 0
 s    3 1.00
                 13.01   0.033498726389998
                 1.962    0.23480080117413
                0.4446     0.8136829578829
 s    1 1.00
                 0.122                   1
 p    1 1.00
                 0.727                   1

31 0
 s    8 1.00
                  6665  0.00069158396281299
                  1000  0.0053257961529341
                   228   0.027060721042034
                 64.71    0.10165684614077
                 21.06     0.2745748236174
                 7.495    0.44829431892377
                 2.797    0.28490261071525
                0.5215   0.015194859206082
 s    8 1.00
                  6665  -0.00029326965268655
                  1000  -0.0023180354739745
                   228  -0.011499786038565
                 64.71  -0.046826727009787
                 21.06   -0.12846616875047
                 7.495   -0.30126627246289
                 2.797   -0.25563070233011
                0.5215      1.093793361012
 s    1 1.00
                0.1596                   1
 p    3 1.00
                 9.439   0.056979251590039
                 2.002    0.31320721150073
                0.5456    0.76037674173753
 p    1 1.00
                0.1517                   1
 d    1 1.00
                  0.55                   1

32 0
 s    3 1.00
                 13.01   0.033498726389998
                 1.962    0.23480080117413
                0.4446     0.8136829578829
 s    1 1.00
                 0.122                   1
 p    1 1.00
                 0.727                   1

33 0
 s    3 1.00
                 13.01   0.033498726389998
                 1.962    0.23480080117413
                0.4446     0.8136829578829
 s    1 1.00
                 0.122                   1
 p    1 1.00
                 0.727                   1

34 0
 s    3 1.00
                 13.01   0.033498726389998
                 1.962    0.23480080117413
                0.4446     0.8136829578829
 s    1 1.00
                 0.122                   1
 p    1 1.00
                 0.727                   1

35 0
 s    3 1.00
                 13.01   0.033498726389998
                 1.962    0.23480080117413
                0.4446     0.8136829578829
 s    1 1.00
                 0.122                   1
 p    1 1.00
                 0.727                   1

36 0
 s    3 1.00
                 13.01   0.033498726389998
                 1.962    0.23480080117413
                0.4446     0.8136829578829
 s    1 1.00
                 0.122                   1
 p    1 1.00
                 0.727                   1

37 0
 s    3 1.00
                 13.01   0.033498726389998
                 1.962    0.23480080117413
                0.4446     0.8136829578829
 s    1 1.00
                 0.122                   1
 p    1 1.00
                 0.727                   1

[5d]
[7f]
[9g]

[MO]
 Sym= A
 Ene=               0
 Spin= Alpha
 Occup=    1.00000
   1    4.6204972487917e-06
   2    8.6549976378892e-06
   3    -3.5971780273337e-05
   4    1.1648796658443e-06
   5    -1.9024880098344e-06
   6    2.8843408976873e-07
   7    -1.0049381509468e-06
   8    3.4476233703982e-06
   9    1.4977611662357e-05
  10    -1.6268769119725e-06
  11    -6.7133415025813e-07
  12    5.9731539353341e-07
  13    -2.561575467142e-08
  14    -1.0395033361474e-07
  15    4.8601350825591e-06
  16    5.6399373286741e-05
  17    -3.3972634838338e-06
  18    3.5662773101731e-06
  19    4.5109521545742e-06
  20    -5.0167427477664e-07
  21    -6.4622442200605e-06
  22    -7.7254495534941e-08
  23    -5.363955999273e-07
  24    -1.0297276319811e-07
  25    -1.324016564991e-05
  26    -2.5415158608191e-05
  27    0.00018406565720252
  28    -6.7715103865189e-06
  29    7.3908556128122e-06
  30    1.7110952123847e-06
  31    3.4811867450516e-05
  32    -8.0440949072792e-05
  33    -4.3039700969526e-05
  34    1.4673502133364e-06
  35    -1.7484101209304e-06
  36    2.5111221679125e-06
  37    1.1283000299967e-06
  38    5.5501930339588e-07
  39    8.3352028987352e-06
  40    1.5780348090611e-05
  41    0.0001377531330695
  42    1.7763065665842e-05
  43    -1.0701773338434e-05
  44    -1.9049504894095e-05
  45    -0.0003674840095405
  46    0.00051001768263832
  47    -0.00038513088683701
  48    -8.8913779021327e-06
  49    1.5181576298641e-05
  50    -2.1669055291611e-05
  51    1.2967396610359e-05
  52    -2.3190631456573e-06
  53    5.7066719896309e-05
  54    0.00013674003819656
  55    -0.00061629167556661
  56    5.6898648924477e-05
  57    1.7007965354242e-05
  58    -5.007138227066e-05
  59    -0.00081547550303299
  60    -6.5121170238802e-05
  61    0.00075176228937001
  62    9.9256472421884e-07
  63    1.5212083860808e-05
  64    3.758970729808e-05
  65    6.6798633863864e-06
  66    -2.8873822871335e-05
  67    9.0537265820729e-06
  68    -1.9398544519602e-05
  69    -0.00029083550275465
  70    5.3230036140397e-05
  71    -9.2293914672652e-06
  72    -6.5986446294814e-06
  73    -0.00085774489212635
  74    0.00033366065618024
  75    -0.00023301630762145
  76    -1.1257633006314e-05
  77    -2.3426583765287e-05
  78    3.2386666541267e-05
  79    2.1701537816388e-05
  80    -1.0659352150635e-05
  81    3.1293515239473e-05
  82    1.2967817092576e-05
  83    1.5702983467283e-05
  84    -2.4715318872892e-06
  85    -2.0673250090089e-05
  86    1.3017912175883e-05
  87    0.00016825998170418
  88    0.0021572908074083
  89    0.00039468485307283
  90    -0.00023618371133206
  91    -0.00025798884594931
  92    0.00047297466006376
  93    -0.0011878735877066
  94    -0.00013966014416517
  95    -2.0401777656152e-05
  96    -9.4986189151851e-05
  97    2.364983514816e-05
  98    3.2493996859462e-05
  99    -3.9852954104249e-05
 100    1.7814517819221e-05
 101    -0.00018709603739128
 102    3.2615086969187e-05
 103    -1.7828712413438e-05
 104    -2.86747907334e-05
 105    -4.3564341632279e-05
 106    -2.7960009481552e-05
 107    2.1432852603341e-05
 108    -1.1224803394067e-05
 109    4.8065274673283e-06
 110    2.2334606578496e-05
 111    0.00032449265369188
 112    1.2072520236475e-05
 113    -3.0215909755029e-05
 114    2.4126931116955e-05
 115    -7.7162817321058e-05
 116    -0.00019372272067163
 117    -0.0013467515043115
 118    9.7459306738382e-05
 119    -7.3123439272614e-05
 120    9.9282327858917e-05
 121    0.00023902175503938
 122    -0.00055504343835374
 123    0.00044379048606162
 124    -2.4219722010098e-05
 125    0.00011074642985485
 126    -6.5739388693135e-06
 127    -3.9700682477255e-06
 128    -6.9094974664337e-05
 129    -3.3809733670583e-05
 130    -3.1541661119895e-06
 131    2.7727441386836e-05
 132    1.5595486094853e-05
 133    -4.8013375921319e-05
 134    -1.849771530944e-05
 135    -3.9203808577273e-05
 136    3.1261792702983e-05
 137    2.4800010045841e-05
 138    -5.3597431109595e-06
 139    0.00058877061783827
 140    0.0012910886321293
 141    -0.0066540531240398
 142    0.00049415188713099
 143    0.00072331475496574
 144    -0.00073039253975665
 145    -0.00046518225761295
 146    -0.0010246400977756
 147    0.0015262614361739
 148    -4.6046116227427e-05
 149    1.157926930328e-05
 150    -5.387995852722e-05
 151    -0.00018666653193579
 152    1.6675114826115e-06
 153    8.2734694456826e-05
 154    0.00019931589634353
 155    1.080965617335e-05
 156    5.9067378710073e-06
 157    2.4114892306375e-05
 158    -0.00014928275526534
 159    -0.00029320380840581
 160    4.0218784382529e-05
 161    -5.1952650476068e-05
 162    2.1727421917788e-05
 163    -0.037570744272901
 164    0.0051257082329324
 165    0.0049868665868844
 166    -0.003334858174041
 167    0.0022430758723112
 168    0.00031717894521218
 169    -0.0011793555909629
 170    0.0010700421494006
 171    0.00063228131760821
 172    9.976443028193e-05
 173    -0.00041514206261807
 174    0.00068953632740509
 175    3.6242554099379e-05
 176    -0.00060954347221382
 177    -7.2495040410498e-05
 178    -0.00054616942405583
 179    7.0266816536317e-05
 180    2.7600835476262e-06
 181    1.1047250695179e-06
 182     -0.29554865001441
 183    -0.010101940119984
 184    -0.0018545419764666
 185    -0.0054576597094501
 186    -0.0057886279400344
 187    0.0057907551737113
 188    -0.0039645525408385
 189    -0.0025116712180758
 190    0.0040014439043419
 191    -0.00050888275210256
 192    0.00036947534388998
 193    0.00086380278729133
 194    -0.0015997078181132
 195    -0.0010751041650187
 196    0.00030797383344353
 197    0.0004207703914928
 198    6.4497306813479e-05
 199    1.0652716289636e-05
 200    -9.0423486888722e-05
 201    0.0032686601441576
 202    0.0018397103475735
 203    7.1756282315151e-05
 204    0.00024951414106459
 205    0.00026171599957785
 206    0.0017824249636146
 207    -0.0013520274899506
 208    -0.00016927973715716
 209    -0.0003710617625566
 210    0.00010894780320107
 211      0.10350709467869
 212     0.016670378734609
 213    0.0092082500080005
 214     0.004574892071558
 215     0.011069495351304
 216    0.0027270238820192
 217    0.0014973325180164
 218    0.0057550623360817
 219    0.0011994167856136
 220    0.00051421888882108
 221    0.00026482030142078
 222    0.0012074438901789
 223    0.00048457476472284
 224    0.00023623504932662
 225    -0.004273587940025
 226    0.0025492827189433
 227    0.00021451224432327
 228    0.00053018444561968
 229    0.00040902487354702
 230    -0.0055245665997866
 231    -0.00078654861702495
 232    -0.00047517259230639
 233    0.00023827766528262
 234    -0.00025931991617918
 235     -0.85859429045316
 236     0.010451312888453
 237     0.015735398717719
 238     -0.01339697501652
 239    -0.055253138408182
 240       0.0067172799974
 241    -0.0065853765245107
 242    -0.026051122344486
 243    0.0034123949629744
 244    -0.0001481493555489
 245    0.0025413877795183
 246    0.0022690928106012
 247    -0.00050677668481533
 248    0.00037807027531414
 249      0.01789428112126
 250     0.006374458648838
 251    -0.00055161807423496
 252    -0.0006023238967944
 253    -0.001289874223567
 254    -0.002026571602805
 255    -0.004276911123081
 256    0.00018269070593595
 257    0.00051498827118749
 258    4.6890265416787e-05
 259      0.37925360731942
 260    -0.011907112791016
 261    -0.011722053446508
 262    0.0046456336947137
 263    -0.017874388479811
 264    0.0058054132935034
 265    0.0016290835385787