[Molden Format]
made by pyscf v[2.0.1]
[Atoms] (AU)
O   1   8     0.00000000000000     0.00000000000000    10.94175058546756
H   2   1     0.00000000000000     0.00000000000000     9.11834876356659
H   3   1    -0.05031916615174     1.78353065140343    11.31762228193423
O   4   8     0.00000000000000     0.00000000000000     2.31533471513237
C   5   6     0.00000000000000     0.00000000000000     0.00000000000000
C   6   6     2.01118073026938    -1.40227222164369    -1.50774939176400
C   7   6    -2.01249334291722     1.41331050329955    -1.50315905028694
H   8   1     3.32037363730244    -2.26721897153159    -0.13599698591495
C   9   6     3.45899267434009     0.28739631745591    -3.37437943254505
H   10   1     1.07662969841332    -2.94725144642667    -2.56541439481080
H   11   1    -2.67503415753480     0.18421555839588    -3.06194479365997
H   12   1    -1.07974048864772     3.03851734677796    -2.43674295017013
C   13   6    -4.21607110578555     2.32938802552922     0.11994162256091
H   14   1     4.24440173074564     1.93368664142019    -2.34976285512790
H   15   1     2.15020713235517     1.04714335134846    -4.81494497423699
C   16   6     5.60746363007797    -1.12419643481196    -4.70268606082550
H   17   1    -3.46838323670267     3.50951302338067     1.66946842715333
H   18   1    -5.11873485366228     0.68575958301209     1.04047743976495
C   19   6    -6.18314754751344     3.80909592987882    -1.39656589068747
H   20   1     6.93011263717176    -1.87550812453645    -3.26656317360070
C   21   6     7.06356622236532     0.52877932406334    -6.57829775293605
H   22   1     4.82318879258361    -2.78573437948532    -5.70504560381835
H   23   1    -6.91582688743803     2.61304780074712    -2.95074552451969
H   24   1    -5.26532430573853     5.45420349051338    -2.31005832200284
C   25   6    -8.39941882261433     4.73263980500213     0.21800571437956
H   26   1     7.83338371486801     2.19084139882824    -5.57093109900697
H   27   1     5.73544244039420     1.27376866537418    -8.01071492370229
C   28   6     9.21124858443101    -0.89699110072176    -7.88926949186242
H   29   1    -7.66272760055236     5.92277078003992     1.77035591474408
H   30   1    -9.31497248082589     3.08753015622020     1.12614408368786
C   31   6   -10.35481709231879     6.21833079391143    -1.30905206253246
H   32   1    10.58815905329501    -1.61074586756696    -6.49512691622620
H   33   1    10.23506248045667     0.32468009384095    -9.23072870921204
H   34   1     8.47665842847139    -2.53598436989925    -8.94921964622535
H   35   1    -9.48948872868064     7.90013588951020    -2.18823918416067
H   36   1   -11.93332513000955     6.86460487874102    -0.11255798845995
H   37   1   -11.15126291841033     5.04495968327630    -2.83849898862534
[GTO]
1 0
 s    8 1.00
                 11720  0.00070964594651845
                  1759  0.0054672722921914
                 400.8   0.027823118610189
                 113.7    0.10474773971146
                 37.03    0.28292084635691
                 13.27    0.44849523869833
                 5.025    0.27081688521277
                 1.013    0.01545029160744
 s    8 1.00
                 11720  -0.00031444341168873
                  1759  -0.0024821376810179
                 400.8  -0.012316355381583
                 113.7  -0.050538917343672
                 37.03   -0.13938490331632
                 13.27   -0.32507749481778
                 5.025   -0.22984830758785
                 1.013     1.0953793467883
 s    1 1.00
                0.3023                   1
 p    3 1.00
                  17.7   0.062679166281506
                 3.854    0.33353656587936
                 1.046    0.74123964163973
 p    1 1.00
                0.2753                   1
 d    1 1.00
                 1.185                   1

2 0
 s    3 1.00
                 13.01   0.033498726389998
                 1.962    0.23480080117413
                0.4446     0.8136829578829
 s    1 1.00
                 0.122                   1
 p    1 1.00
                 0.727                   1

3 0
 s    3 1.00
                 13.01   0.033498726389998
                 1.962    0.23480080117413
                0.4446     0.8136829578829
 s    1 1.00
                 0.122                   1
 p    1 1.00
                 0.727                   1

4 0
 s    8 1.00
                 11720  0.00070964594651845
                  1759  0.0054672722921914
                 400.8   0.027823118610189
                 113.7    0.10474773971146
                 37.03    0.28292084635691
                 13.27    0.44849523869833
                 5.025    0.27081688521277
                 1.013    0.01545029160744
 s    8 1.00
                 11720  -0.00031444341168873
                  1759  -0.0024821376810179
                 400.8  -0.012316355381583
                 113.7  -0.050538917343672
                 37.03   -0.13938490331632
                 13.27   -0.32507749481778
                 5.025   -0.22984830758785
                 1.013     1.0953793467883
 s    1 1.00
                0.3023                   1
 p    3 1.00
                  17.7   0.062679166281506
                 3.854    0.33353656587936
                 1.046    0.74123964163973
 p    1 1.00
                0.2753                   1
 d    1 1.00
                 1.185                   1

5 0
 s    8 1.00
                  6665  0.00069158396281299
                  1000  0.0053257961529341
                   228   0.027060721042034
                 64.71    0.10165684614077
                 21.06     0.2745748236174
                 7.495    0.44829431892377
                 2.797    0.28490261071525
                0.5215   0.015194859206082
 s    8 1.00
                  6665  -0.00029326965268655
                  1000  -0.0023180354739745
                   228  -0.011499786038565
                 64.71  -0.046826727009787
                 21.06   -0.12846616875047
                 7.495   -0.30126627246289
                 2.797   -0.25563070233011
                0.5215      1.093793361012
 s    1 1.00
                0.1596                   1
 p    3 1.00
                 9.439   0.056979251590039
                 2.002    0.31320721150073
                0.5456    0.76037674173753
 p    1 1.00
                0.1517                   1
 d    1 1.00
                  0.55                   1

6 0
 s    8 1.00
                  6665  0.00069158396281299
                  1000  0.0053257961529341
                   228   0.027060721042034
                 64.71    0.10165684614077
                 21.06     0.2745748236174
                 7.495    0.44829431892377
                 2.797    0.28490261071525
                0.5215   0.015194859206082
 s    8 1.00
                  6665  -0.00029326965268655
                  1000  -0.0023180354739745
                   228  -0.011499786038565
                 64.71  -0.046826727009787
                 21.06   -0.12846616875047
                 7.495   -0.30126627246289
                 2.797   -0.25563070233011
                0.5215      1.093793361012
 s    1 1.00
                0.1596                   1
 p    3 1.00
                 9.439   0.056979251590039
                 2.002    0.31320721150073
                0.5456    0.76037674173753
 p    1 1.00
                0.1517                   1
 d    1 1.00
                  0.55                   1

7 0
 s    8 1.00
                  6665  0.00069158396281299
                  1000  0.0053257961529341
                   228   0.027060721042034
                 64.71    0.10165684614077
                 21.06     0.2745748236174
                 7.495    0.44829431892377
                 2.797    0.28490261071525
                0.5215   0.015194859206082
 s    8 1.00
                  6665  -0.00029326965268655
                  1000  -0.0023180354739745
                   228  -0.011499786038565
                 64.71  -0.046826727009787
                 21.06   -0.12846616875047
                 7.495   -0.30126627246289
                 2.797   -0.25563070233011
                0.5215      1.093793361012
 s    1 1.00
                0.1596                   1
 p    3 1.00
                 9.439   0.056979251590039
                 2.002    0.31320721150073
                0.5456    0.76037674173753
 p    1 1.00
                0.1517                   1
 d    1 1.00
                  0.55                   1

8 0
 s    3 1.00
                 13.01   0.033498726389998
                 1.962    0.23480080117413
                0.4446     0.8136829578829
 s    1 1.00
                 0.122                   1
 p    1 1.00
                 0.727                   1

9 0
 s    8 1.00
                  6665  0.00069158396281299
                  1000  0.0053257961529341
                   228   0.027060721042034
                 64.71    0.10165684614077
                 21.06     0.2745748236174
                 7.495    0.44829431892377
                 2.797    0.28490261071525
                0.5215   0.015194859206082
 s    8 1.00
                  6665  -0.00029326965268655
                  1000  -0.0023180354739745
                   228  -0.011499786038565
                 64.71  -0.046826727009787
                 21.06   -0.12846616875047
                 7.495   -0.30126627246289
                 2.797   -0.25563070233011
                0.5215      1.093793361012
 s    1 1.00
                0.1596                   1
 p    3 1.00
                 9.439   0.056979251590039
                 2.002    0.31320721150073
                0.5456    0.76037674173753
 p    1 1.00
                0.1517                   1
 d    1 1.00
                  0.55                   1

10 0
 s    3 1.00
                 13.01   0.033498726389998
                 1.962    0.23480080117413
                0.4446     0.8136829578829
 s    1 1.00
                 0.122                   1
 p    1 1.00
                 0.727                   1

11 0
 s    3 1.00
                 13.01   0.033498726389998
                 1.962    0.23480080117413
                0.4446     0.8136829578829
 s    1 1.00
                 0.122                   1
 p    1 1.00
                 0.727                   1

12 0
 s    3 1.00
                 13.01   0.033498726389998
                 1.962    0.23480080117413
                0.4446     0.8136829578829
 s    1 1.00
                 0.122                   1
 p    1 1.00
                 0.727                   1

13 0
 s    8 1.00
                  6665  0.00069158396281299
                  1000  0.0053257961529341
                   228   0.027060721042034
                 64.71    0.10165684614077
                 21.06     0.2745748236174
                 7.495    0.44829431892377
                 2.797    0.28490261071525
                0.5215   0.015194859206082
 s    8 1.00
                  6665  -0.00029326965268655
                  1000  -0.0023180354739745
                   228  -0.011499786038565
                 64.71  -0.046826727009787
                 21.06   -0.12846616875047
                 7.495   -0.30126627246289
                 2.797   -0.25563070233011
                0.5215      1.093793361012
 s    1 1.00
                0.1596                   1
 p    3 1.00
                 9.439   0.056979251590039
                 2.002    0.31320721150073
                0.5456    0.76037674173753
 p    1 1.00
                0.1517                   1
 d    1 1.00
                  0.55                   1

14 0
 s    3 1.00
                 13.01   0.033498726389998
                 1.962    0.23480080117413
                0.4446     0.8136829578829
 s    1 1.00
                 0.122                   1
 p    1 1.00
                 0.727                   1

15 0
 s    3 1.00
                 13.01   0.033498726389998
                 1.962    0.23480080117413
                0.4446     0.8136829578829
 s    1 1.00
                 0.122                   1
 p    1 1.00
                 0.727                   1

16 0
 s    8 1.00
                  6665  0.00069158396281299
                  1000  0.0053257961529341
                   228   0.027060721042034
                 64.71    0.10165684614077
                 21.06     0.2745748236174
                 7.495    0.44829431892377
                 2.797    0.28490261071525
                0.5215   0.015194859206082
 s    8 1.00
                  6665  -0.00029326965268655
                  1000  -0.0023180354739745
                   228  -0.011499786038565
                 64.71  -0.046826727009787
                 21.06   -0.12846616875047
                 7.495   -0.30126627246289
                 2.797   -0.25563070233011
                0.5215      1.093793361012
 s    1 1.00
                0.1596                   1
 p    3 1.00
                 9.439   0.056979251590039
                 2.002    0.31320721150073
                0.5456    0.76037674173753
 p    1 1.00
                0.1517                   1
 d    1 1.00
                  0.55                   1

17 0
 s    3 1.00
                 13.01   0.033498726389998
                 1.962    0.23480080117413
                0.4446     0.8136829578829
 s    1 1.00
                 0.122                   1
 p    1 1.00
                 0.727                   1

18 0
 s    3 1.00
                 13.01   0.033498726389998
                 1.962    0.23480080117413
                0.4446     0.8136829578829
 s    1 1.00
                 0.122                   1
 p    1 1.00
                 0.727                   1

19 0
 s    8 1.00
                  6665  0.00069158396281299
                  1000  0.0053257961529341
                   228   0.027060721042034
                 64.71    0.10165684614077
                 21.06     0.2745748236174
                 7.495    0.44829431892377
                 2.797    0.28490261071525
                0.5215   0.015194859206082
 s    8 1.00
                  6665  -0.00029326965268655
                  1000  -0.0023180354739745
                   228  -0.011499786038565
                 64.71  -0.046826727009787
                 21.06   -0.12846616875047
                 7.495   -0.30126627246289
                 2.797   -0.25563070233011
                0.5215      1.093793361012
 s    1 1.00
                0.1596                   1
 p    3 1.00
                 9.439   0.056979251590039
                 2.002    0.31320721150073
                0.5456    0.76037674173753
 p    1 1.00
                0.1517                   1
 d    1 1.00
                  0.55                   1

20 0
 s    3 1.00
                 13.01   0.033498726389998
                 1.962    0.23480080117413
                0.4446     0.8136829578829
 s    1 1.00
                 0.122                   1
 p    1 1.00
                 0.727                   1

21 0
 s    8 1.00
                  6665  0.00069158396281299
                  1000  0.0053257961529341
                   228   0.027060721042034
                 64.71    0.10165684614077
                 21.06     0.2745748236174
                 7.495    0.44829431892377
                 2.797    0.28490261071525
                0.5215   0.015194859206082
 s    8 1.00
                  6665  -0.00029326965268655
                  1000  -0.0023180354739745
                   228  -0.011499786038565
                 64.71  -0.046826727009787
                 21.06   -0.12846616875047
                 7.495   -0.30126627246289
                 2.797   -0.25563070233011
                0.5215      1.093793361012
 s    1 1.00
                0.1596                   1
 p    3 1.00
                 9.439   0.056979251590039
                 2.002    0.31320721150073
                0.5456    0.76037674173753
 p    1 1.00
                0.1517                   1
 d    1 1.00
                  0.55                   1

22 0
 s    3 1.00
                 13.01   0.033498726389998
                 1.962    0.23480080117413
                0.4446     0.8136829578829
 s    1 1.00
                 0.122                   1
 p    1 1.00
                 0.727                   1

23 0
 s    3 1.00
                 13.01   0.033498726389998
                 1.962    0.23480080117413
                0.4446     0.8136829578829
 s    1 1.00
                 0.122                   1
 p    1 1.00
                 0.727                   1

24 0
 s    3 1.00
                 13.01   0.033498726389998
                 1.962    0.23480080117413
                0.4446     0.8136829578829
 s    1 1.00
                 0.122                   1
 p    1 1.00
                 0.727                   1

25 0
 s    8 1.00
                  6665  0.00069158396281299
                  1000  0.0053257961529341
                   228   0.027060721042034
                 64.71    0.10165684614077
                 21.06     0.2745748236174
                 7.495    0.44829431892377
                 2.797    0.28490261071525
                0.5215   0.015194859206082
 s    8 1.00
                  6665  -0.00029326965268655
                  1000  -0.0023180354739745
                   228  -0.011499786038565
                 64.71  -0.046826727009787
                 21.06   -0.12846616875047
                 7.495   -0.30126627246289
                 2.797   -0.25563070233011
                0.5215      1.093793361012
 s    1 1.00
                0.1596                   1
 p    3 1.00
                 9.439   0.056979251590039
                 2.002    0.31320721150073
                0.5456    0.76037674173753
 p    1 1.00
                0.1517                   1
 d    1 1.00
                  0.55                   1

26 0
 s    3 1.00
                 13.01   0.033498726389998
                 1.962    0.23480080117413
                0.4446     0.8136829578829
 s    1 1.00
                 0.122                   1
 p    1 1.00
                 0.727                   1

27 0
 s    3 1.00
                 13.01   0.033498726389998
                 1.962    0.23480080117413
                0.4446     0.8136829578829
 s    1 1.00
                 0.122                   1
 p    1 1.00
                 0.727                   1

28 0
 s    8 1.00
                  6665  0.00069158396281299
                  1000  0.0053257961529341
                   228   0.027060721042034
                 64.71    0.10165684614077
                 21.06     0.2745748236174
                 7.495    0.44829431892377
                 2.797    0.28490261071525
                0.5215   0.015194859206082
 s    8 1.00
                  6665  -0.00029326965268655
                  1000  -0.0023180354739745
                   228  -0.011499786038565
                 64.71  -0.046826727009787
                 21.06   -0.12846616875047
                 7.495   -0.30126627246289
                 2.797   -0.25563070233011
                0.5215      1.093793361012
 s    1 1.00
                0.1596                   1
 p    3 1.00
                 9.439   0.056979251590039
                 2.002    0.31320721150073
                0.5456    0.76037674173753
 p    1 1.00
                0.1517                   1
 d    1 1.00
                  0.55                   1

29 0
 s    3 1.00
                 13.01   0.033498726389998
                 1.962    0.23480080117413
                0.4446     0.8136829578829
 s    1 1.00
                 0.122                   1
 p    1 1.00
                 0.727                   1

30 0
 s    3 1.00
                 13.01   0.033498726389998
                 1.962    0.23480080117413
                0.4446     0.8136829578829
 s    1 1.00
                 0.122                   1
 p    1 1.00
                 0.727                   1

31 0
 s    8 1.00
                  6665  0.00069158396281299
                  1000  0.0053257961529341
                   228   0.027060721042034
                 64.71    0.10165684614077
                 21.06     0.2745748236174
                 7.495    0.44829431892377
                 2.797    0.28490261071525
                0.5215   0.015194859206082
 s    8 1.00
                  6665  -0.00029326965268655
                  1000  -0.0023180354739745
                   228  -0.011499786038565
                 64.71  -0.046826727009787
                 21.06   -0.12846616875047
                 7.495   -0.30126627246289
                 2.797   -0.25563070233011
                0.5215      1.093793361012
 s    1 1.00
                0.1596                   1
 p    3 1.00
                 9.439   0.056979251590039
                 2.002    0.31320721150073
                0.5456    0.76037674173753
 p    1 1.00
                0.1517                   1
 d    1 1.00
                  0.55                   1

32 0
 s    3 1.00
                 13.01   0.033498726389998
                 1.962    0.23480080117413
                0.4446     0.8136829578829
 s    1 1.00
                 0.122                   1
 p    1 1.00
                 0.727                   1

33 0
 s    3 1.00
                 13.01   0.033498726389998
                 1.962    0.23480080117413
                0.4446     0.8136829578829
 s    1 1.00
                 0.122                   1
 p    1 1.00
                 0.727                   1

34 0
 s    3 1.00
                 13.01   0.033498726389998
                 1.962    0.23480080117413
                0.4446     0.8136829578829
 s    1 1.00
                 0.122                   1
 p    1 1.00
                 0.727                   1

35 0
 s    3 1.00
                 13.01   0.033498726389998
                 1.962    0.23480080117413
                0.4446     0.8136829578829
 s    1 1.00
                 0.122                   1
 p    1 1.00
                 0.727                   1

36 0
 s    3 1.00
                 13.01   0.033498726389998
                 1.962    0.23480080117413
                0.4446     0.8136829578829
 s    1 1.00
                 0.122                   1
 p    1 1.00
                 0.727                   1

37 0
 s    3 1.00
                 13.01   0.033498726389998
                 1.962    0.23480080117413
                0.4446     0.8136829578829
 s    1 1.00
                 0.122                   1
 p    1 1.00
                 0.727                   1

[5d]
[7f]
[9g]

[MO]
 Sym= A
 Ene=               0
 Spin= Alpha
 Occup=    1.00000
   1    -3.6944082582161e-07
   2    -6.8346232804275e-07
   3    3.0938603986407e-06
   4    -1.7816848349451e-08
   5    1.077075909662e-07
   6    -1.7817543634811e-08
   7    3.1957635177205e-08
   8    -2.8943135983435e-07
   9    -1.7330250384015e-06
  10    2.3322408721789e-07
  11    2.7882160261631e-09
  12    -7.4341747313814e-09
  13    -1.2102331549806e-08
  14    5.0292320415108e-10
  15    -1.3968676332147e-07
  16    -4.4974622195194e-06
  17    2.3791876449072e-08
  18    -1.7887424028508e-09
  19    -9.5542606118767e-07
  20    -8.1913915690903e-08
  21    7.7942927559037e-07
  22    -5.8830230192778e-09
  23    2.8867038802553e-08
  24    8.0619323557475e-08
  25    4.5794049613049e-06
  26    1.3700238882394e-05
  27    -4.7433415729296e-05
  28    4.275499589973e-06
  29    -4.6429859830616e-06
  30    -1.6390769990992e-06
  31    -4.8591059740206e-05
  32    9.2268006771255e-05
  33    -7.7787380563672e-06
  34    8.1321467424348e-07
  35    3.0992545337703e-06
  36    -3.0218053637181e-06
  37    -2.4620161840614e-06
  38    1.6353703151655e-06
  39    -1.5382161914199e-07
  40    5.5850056076625e-06
  41    -5.8166098377184e-05
  42    -4.1144104957504e-05
  43    2.1721409943752e-05
  44    2.1308298279576e-05
  45    0.00085001800144984
  46    -0.00080934297920728
  47    6.9819192909641e-05
  48    -3.2665164125385e-06
  49    -3.0380006894426e-05
  50    3.5177622208956e-05
  51    -1.7843429639398e-05
  52    1.1200777670989e-05
  53    -1.8048192998246e-05
  54    -7.0275782135911e-05
  55    3.4091305923793e-05
  56    -5.8576079420954e-05
  57    -1.5879433260881e-05
  58    5.0331834484412e-05
  59    0.0010119141144089
  60    -0.00015403732796916
  61    -0.00088078742980524
  62    3.6631219548634e-06
  63    -2.1015447474654e-06
  64    -4.2006500718737e-05
  65    -1.3076102840795e-05
  66    4.0224289887372e-05
  67    -5.1416251483791e-06
  68    5.6270320759709e-05
  69    0.00017972857690412
  70    -8.781360762085e-05
  71    2.6386253755546e-05
  72    2.9840297798165e-05
  73    0.0011394894069351
  74    -0.00032100533878969
  75    0.0002351533008546
  76    2.7905861262922e-05
  77    3.9425792866846e-05
  78    -4.7431652165603e-05
  79    -2.6914888293528e-05
  80    1.2579589771973e-05
  81    -1.9201077819364e-05
  82    -5.5451090385134e-05
  83    -1.564239073328e-05
  84    5.5584177880861e-06
  85    2.4553412572028e-05
  86    -2.6513905447399e-05
  87    -0.00018603920136381
  88    -0.0020141030646949
  89    -0.00039310954341201
  90    0.00023463502345636
  91    0.00025116010709226
  92    -0.00039787633829556
  93    0.0010956477001045
  94    0.00015668406445013
  95    1.5108053996388e-05
  96    8.1203131826359e-05
  97    -1.7580316886196e-05
  98    -3.0992043675402e-05
  99    3.2415562080346e-05
 100    -2.9844214005179e-06
 101    0.00014427614735201
 102    -3.9225260257784e-05
 103    2.0336568267652e-05
 104    2.8550056118624e-05
 105    4.8429891636228e-05
 106    5.5967030485951e-05
 107    -3.4442617375534e-05
 108    1.2151272804706e-05
 109    -4.0329631965342e-06
 110    -1.5455146367406e-06
 111    -0.00057341240687091
 112    -1.1520224486403e-05
 113    4.2403667307921e-05
 114    -3.0193877023995e-05
 115    0.00030556470256351
 116    0.00063300584582259
 117    -1.9310831318711e-05
 118    -0.00019476395077935
 119    0.00015860058957745
 120    -0.000125419909807
 121    0.00088823067001558
 122    -0.00036640598014245
 123    -0.00032354565828239
 124    0.0001441390514156
 125    -0.00027416246762125
 126    1.5809808586476e-05
 127    -0.00010279866765329
 128    0.00018921767738618
 129    2.4090154771924e-05
 130    2.5342013467163e-05
 131    -3.1450059197397e-05
 132    -1.2945855355456e-05
 133    4.655154677032e-05
 134    2.4788254643026e-05
 135    0.00012446957869858
 136    -2.8639366524678e-05
 137    -2.4073959382186e-05
 138    1.066275222006e-05
 139    -0.00048070048443573
 140    -0.0011577793517574
 141    0.0062753675890556
 142    -0.0005004999510539
 143    -0.00074468533220932
 144    0.0007431446779094
 145    0.00058888646055009
 146    0.00094031720011823
 147    -0.0015356989739192
 148    4.2829341894134e-05
 149    1.2522018959106e-05
 150    1.8755403356391e-05
 151    0.00013841316172868
 152    1.8139755135518e-05
 153    0.00010561792369496
 154    -0.0001259129070268
 155    -7.7184477602462e-05
 156    2.2182356006428e-05
 157    -4.9429468953921e-05
 158    0.00032161905414364
 159    0.00016747499159039
 160    -0.00011570372682602
 161    7.3692038831659e-05
 162    -3.1287616666044e-05
 163     0.036884077837903
 164    -0.012289456237881
 165    -0.0051320894618855
 166    0.0097425561691497
 167     -0.00370881272261
 168    -1.2564591675543e-05
 169    0.0024022502092407
 170    -0.0019963748744324
 171    0.00018229876411049
 172    0.00033128572160998
 173    0.00084829491252455
 174    -0.00082174763288375
 175    -0.00075034231708843
 176    0.00094118797455434
 177    0.00017925795835758
 178    0.00059253220354838
 179    -7.6217441558974e-05
 180    -4.7625974061775e-06
 181    -5.1645454958633e-07
 182      0.30134227069773
 183     0.010313271076673
 184    0.0017479954983069
 185    0.0046358834708907
 186    0.0064092548244839
 187    -0.0055920708236152
 188    0.0034927732906181
 189    0.0028993546566665
 190    -0.0038597102449314
 191    0.00050720261386714
 192    -0.00030451662936927
 193    -0.00077224323483608
 194    0.0014699361933395
 195    0.0010229607958994
 196    -0.0001774902744997
 197    -0.00029482813631554
 198    -5.9138181236956e-05
 199    -7.8789156210412e-06
 200    9.4715490955405e-05
 201    -0.007428071673754
 202    -0.0020114059791907
 203    -0.00018808633349113
 204    -0.00061792366393608
 205    -0.0006675641705677
 206    -0.0034539354448787
 207    0.0023265121796796
 208    0.00033118142912999
 209    0.00059880470901477
 210    -0.00020532139871454
 211     -0.14335618350468
 212    -0.029358038704751
 213    -0.020584415339524
 214    0.0043152402738978
 215    -0.0079354207997413
 216      0.01458468798816
 217    0.0027747045146683
 218    -0.0049815740013574
 219    0.0079398542623924
 220    -0.0014203991131548
 221    -0.0015755910358953
 222    -0.00067323187534737
 223    -0.0018806177011412
 224    0.00026602331899852
 225    0.0049073525048199
 226    -0.0020073635450396
 227    -0.00024287027057472
 228    -0.00053759128876627
 229    -0.00042574811805479
 230    0.0061760373546638
 231    0.0010044126728492
 232    0.00049635015362068
 233    -0.00023199881167603
 234    0.00031435590448652
 235      0.81967603895046
 236    -0.0092038359683775
 237    -0.014536642705033
 238     0.012490851136185
 239     0.051382218753487
 240    -0.0074581380551276
 241    0.0061248007749037
 242     0.024208335534878
 243    -0.0037222470059533
 244    0.00011784264129583
 245    -0.0023752320908806
 246    -0.0021005629120938
 247    0.00043102791764189
 248    -0.00030987014443041
 249    -0.011195453949928
 250    -0.0056646511469517
 251    0.00060795668534403
 252    0.00024159133817865
 253    0.0011465590023896
 254    -0.0018493568479775
 255    0.0059860731057578
 256    -0.00040214373801724
 257    -0.001025342526734
 258    0.00054213564852941
 259     -0.42111971895808
 260    -0.0063286013992284
 261    0.0019707652114831
 262    -0.0071688865949646
 263     0.058810148201426
 264       0.0159688809207