[Molden Format]
made by pyscf v[2.0.1]
[Atoms] (AU)
O   1   8     0.00000000000000     0.00000000000000     6.78435311142442
H   2   1     0.00000000000000     0.00000000000000     4.96095128952346
H   3   1    -0.05031916615174     1.78353065140343     7.16022480789109
O   4   8     0.00000000000000     0.00000000000000     2.31533471513237
C   5   6     0.00000000000000     0.00000000000000     0.00000000000000
C   6   6     2.01118073026938    -1.40227222164369    -1.50774939176400
C   7   6    -2.01249334291722     1.41331050329955    -1.50315905028694
H   8   1     3.32037363730244    -2.26721897153159    -0.13599698591495
C   9   6     3.45899267434009     0.28739631745591    -3.37437943254505
H   10   1     1.07662969841332    -2.94725144642667    -2.56541439481080
H   11   1    -2.67503415753480     0.18421555839588    -3.06194479365997
H   12   1    -1.07974048864772     3.03851734677796    -2.43674295017013
C   13   6    -4.21607110578555     2.32938802552922     0.11994162256091
H   14   1     4.24440173074564     1.93368664142019    -2.34976285512790
H   15   1     2.15020713235517     1.04714335134846    -4.81494497423699
C   16   6     5.60746363007797    -1.12419643481196    -4.70268606082550
H   17   1    -3.46838323670267     3.50951302338067     1.66946842715333
H   18   1    -5.11873485366228     0.68575958301209     1.04047743976495
C   19   6    -6.18314754751344     3.80909592987882    -1.39656589068747
H   20   1     6.93011263717176    -1.87550812453645    -3.26656317360070
C   21   6     7.06356622236532     0.52877932406334    -6.57829775293605
H   22   1     4.82318879258361    -2.78573437948532    -5.70504560381835
H   23   1    -6.91582688743803     2.61304780074712    -2.95074552451969
H   24   1    -5.26532430573853     5.45420349051338    -2.31005832200284
C   25   6    -8.39941882261433     4.73263980500213     0.21800571437956
H   26   1     7.83338371486801     2.19084139882824    -5.57093109900697
H   27   1     5.73544244039420     1.27376866537418    -8.01071492370229
C   28   6     9.21124858443101    -0.89699110072176    -7.88926949186242
H   29   1    -7.66272760055236     5.92277078003992     1.77035591474408
H   30   1    -9.31497248082589     3.08753015622020     1.12614408368786
C   31   6   -10.35481709231879     6.21833079391143    -1.30905206253246
H   32   1    10.58815905329501    -1.61074586756696    -6.49512691622620
H   33   1    10.23506248045667     0.32468009384095    -9.23072870921204
H   34   1     8.47665842847139    -2.53598436989925    -8.94921964622535
H   35   1    -9.48948872868064     7.90013588951020    -2.18823918416067
H   36   1   -11.93332513000955     6.86460487874102    -0.11255798845995
H   37   1   -11.15126291841033     5.04495968327630    -2.83849898862534
[GTO]
1 0
 s    8 1.00
                 11720  0.00070964594651845
                  1759  0.0054672722921914
                 400.8   0.027823118610189
                 113.7    0.10474773971146
                 37.03    0.28292084635691
                 13.27    0.44849523869833
                 5.025    0.27081688521277
                 1.013    0.01545029160744
 s    8 1.00
                 11720  -0.00031444341168873
                  1759  -0.0024821376810179
                 400.8  -0.012316355381583
                 113.7  -0.050538917343672
                 37.03   -0.13938490331632
                 13.27   -0.32507749481778
                 5.025   -0.22984830758785
                 1.013     1.0953793467883
 s    1 1.00
                0.3023                   1
 p    3 1.00
                  17.7   0.062679166281506
                 3.854    0.33353656587936
                 1.046    0.74123964163973
 p    1 1.00
                0.2753                   1
 d    1 1.00
                 1.185                   1

2 0
 s    3 1.00
                 13.01   0.033498726389998
                 1.962    0.23480080117413
                0.4446     0.8136829578829
 s    1 1.00
                 0.122                   1
 p    1 1.00
                 0.727                   1

3 0
 s    3 1.00
                 13.01   0.033498726389998
                 1.962    0.23480080117413
                0.4446     0.8136829578829
 s    1 1.00
                 0.122                   1
 p    1 1.00
                 0.727                   1

4 0
 s    8 1.00
                 11720  0.00070964594651845
                  1759  0.0054672722921914
                 400.8   0.027823118610189
                 113.7    0.10474773971146
                 37.03    0.28292084635691
                 13.27    0.44849523869833
                 5.025    0.27081688521277
                 1.013    0.01545029160744
 s    8 1.00
                 11720  -0.00031444341168873
                  1759  -0.0024821376810179
                 400.8  -0.012316355381583
                 113.7  -0.050538917343672
                 37.03   -0.13938490331632
                 13.27   -0.32507749481778
                 5.025   -0.22984830758785
                 1.013     1.0953793467883
 s    1 1.00
                0.3023                   1
 p    3 1.00
                  17.7   0.062679166281506
                 3.854    0.33353656587936
                 1.046    0.74123964163973
 p    1 1.00
                0.2753                   1
 d    1 1.00
                 1.185                   1

5 0
 s    8 1.00
                  6665  0.00069158396281299
                  1000  0.0053257961529341
                   228   0.027060721042034
                 64.71    0.10165684614077
                 21.06     0.2745748236174
                 7.495    0.44829431892377
                 2.797    0.28490261071525
                0.5215   0.015194859206082
 s    8 1.00
                  6665  -0.00029326965268655
                  1000  -0.0023180354739745
                   228  -0.011499786038565
                 64.71  -0.046826727009787
                 21.06   -0.12846616875047
                 7.495   -0.30126627246289
                 2.797   -0.25563070233011
                0.5215      1.093793361012
 s    1 1.00
                0.1596                   1
 p    3 1.00
                 9.439   0.056979251590039
                 2.002    0.31320721150073
                0.5456    0.76037674173753
 p    1 1.00
                0.1517                   1
 d    1 1.00
                  0.55                   1

6 0
 s    8 1.00
                  6665  0.00069158396281299
                  1000  0.0053257961529341
                   228   0.027060721042034
                 64.71    0.10165684614077
                 21.06     0.2745748236174
                 7.495    0.44829431892377
                 2.797    0.28490261071525
                0.5215   0.015194859206082
 s    8 1.00
                  6665  -0.00029326965268655
                  1000  -0.0023180354739745
                   228  -0.011499786038565
                 64.71  -0.046826727009787
                 21.06   -0.12846616875047
                 7.495   -0.30126627246289
                 2.797   -0.25563070233011
                0.5215      1.093793361012
 s    1 1.00
                0.1596                   1
 p    3 1.00
                 9.439   0.056979251590039
                 2.002    0.31320721150073
                0.5456    0.76037674173753
 p    1 1.00
                0.1517                   1
 d    1 1.00
                  0.55                   1

7 0
 s    8 1.00
                  6665  0.00069158396281299
                  1000  0.0053257961529341
                   228   0.027060721042034
                 64.71    0.10165684614077
                 21.06     0.2745748236174
                 7.495    0.44829431892377
                 2.797    0.28490261071525
                0.5215   0.015194859206082
 s    8 1.00
                  6665  -0.00029326965268655
                  1000  -0.0023180354739745
                   228  -0.011499786038565
                 64.71  -0.046826727009787
                 21.06   -0.12846616875047
                 7.495   -0.30126627246289
                 2.797   -0.25563070233011
                0.5215      1.093793361012
 s    1 1.00
                0.1596                   1
 p    3 1.00
                 9.439   0.056979251590039
                 2.002    0.31320721150073
                0.5456    0.76037674173753
 p    1 1.00
                0.1517                   1
 d    1 1.00
                  0.55                   1

8 0
 s    3 1.00
                 13.01   0.033498726389998
                 1.962    0.23480080117413
                0.4446     0.8136829578829
 s    1 1.00
                 0.122                   1
 p    1 1.00
                 0.727                   1

9 0
 s    8 1.00
                  6665  0.00069158396281299
                  1000  0.0053257961529341
                   228   0.027060721042034
                 64.71    0.10165684614077
                 21.06     0.2745748236174
                 7.495    0.44829431892377
                 2.797    0.28490261071525
                0.5215   0.015194859206082
 s    8 1.00
                  6665  -0.00029326965268655
                  1000  -0.0023180354739745
                   228  -0.011499786038565
                 64.71  -0.046826727009787
                 21.06   -0.12846616875047
                 7.495   -0.30126627246289
                 2.797   -0.25563070233011
                0.5215      1.093793361012
 s    1 1.00
                0.1596                   1
 p    3 1.00
                 9.439   0.056979251590039
                 2.002    0.31320721150073
                0.5456    0.76037674173753
 p    1 1.00
                0.1517                   1
 d    1 1.00
                  0.55                   1

10 0
 s    3 1.00
                 13.01   0.033498726389998
                 1.962    0.23480080117413
                0.4446     0.8136829578829
 s    1 1.00
                 0.122                   1
 p    1 1.00
                 0.727                   1

11 0
 s    3 1.00
                 13.01   0.033498726389998
                 1.962    0.23480080117413
                0.4446     0.8136829578829
 s    1 1.00
                 0.122                   1
 p    1 1.00
                 0.727                   1

12 0
 s    3 1.00
                 13.01   0.033498726389998
                 1.962    0.23480080117413
                0.4446     0.8136829578829
 s    1 1.00
                 0.122                   1
 p    1 1.00
                 0.727                   1

13 0
 s    8 1.00
                  6665  0.00069158396281299
                  1000  0.0053257961529341
                   228   0.027060721042034
                 64.71    0.10165684614077
                 21.06     0.2745748236174
                 7.495    0.44829431892377
                 2.797    0.28490261071525
                0.5215   0.015194859206082
 s    8 1.00
                  6665  -0.00029326965268655
                  1000  -0.0023180354739745
                   228  -0.011499786038565
                 64.71  -0.046826727009787
                 21.06   -0.12846616875047
                 7.495   -0.30126627246289
                 2.797   -0.25563070233011
                0.5215      1.093793361012
 s    1 1.00
                0.1596                   1
 p    3 1.00
                 9.439   0.056979251590039
                 2.002    0.31320721150073
                0.5456    0.76037674173753
 p    1 1.00
                0.1517                   1
 d    1 1.00
                  0.55                   1

14 0
 s    3 1.00
                 13.01   0.033498726389998
                 1.962    0.23480080117413
                0.4446     0.8136829578829
 s    1 1.00
                 0.122                   1
 p    1 1.00
                 0.727                   1

15 0
 s    3 1.00
                 13.01   0.033498726389998
                 1.962    0.23480080117413
                0.4446     0.8136829578829
 s    1 1.00
                 0.122                   1
 p    1 1.00
                 0.727                   1

16 0
 s    8 1.00
                  6665  0.00069158396281299
                  1000  0.0053257961529341
                   228   0.027060721042034
                 64.71    0.10165684614077
                 21.06     0.2745748236174
                 7.495    0.44829431892377
                 2.797    0.28490261071525
                0.5215   0.015194859206082
 s    8 1.00
                  6665  -0.00029326965268655
                  1000  -0.0023180354739745
                   228  -0.011499786038565
                 64.71  -0.046826727009787
                 21.06   -0.12846616875047
                 7.495   -0.30126627246289
                 2.797   -0.25563070233011
                0.5215      1.093793361012
 s    1 1.00
                0.1596                   1
 p    3 1.00
                 9.439   0.056979251590039
                 2.002    0.31320721150073
                0.5456    0.76037674173753
 p    1 1.00
                0.1517                   1
 d    1 1.00
                  0.55                   1

17 0
 s    3 1.00
                 13.01   0.033498726389998
                 1.962    0.23480080117413
                0.4446     0.8136829578829
 s    1 1.00
                 0.122                   1
 p    1 1.00
                 0.727                   1

18 0
 s    3 1.00
                 13.01   0.033498726389998
                 1.962    0.23480080117413
                0.4446     0.8136829578829
 s    1 1.00
                 0.122                   1
 p    1 1.00
                 0.727                   1

19 0
 s    8 1.00
                  6665  0.00069158396281299
                  1000  0.0053257961529341
                   228   0.027060721042034
                 64.71    0.10165684614077
                 21.06     0.2745748236174
                 7.495    0.44829431892377
                 2.797    0.28490261071525
                0.5215   0.015194859206082
 s    8 1.00
                  6665  -0.00029326965268655
                  1000  -0.0023180354739745
                   228  -0.011499786038565
                 64.71  -0.046826727009787
                 21.06   -0.12846616875047
                 7.495   -0.30126627246289
                 2.797   -0.25563070233011
                0.5215      1.093793361012
 s    1 1.00
                0.1596                   1
 p    3 1.00
                 9.439   0.056979251590039
                 2.002    0.31320721150073
                0.5456    0.76037674173753
 p    1 1.00
                0.1517                   1
 d    1 1.00
                  0.55                   1

20 0
 s    3 1.00
                 13.01   0.033498726389998
                 1.962    0.23480080117413
                0.4446     0.8136829578829
 s    1 1.00
                 0.122                   1
 p    1 1.00
                 0.727                   1

21 0
 s    8 1.00
                  6665  0.00069158396281299
                  1000  0.0053257961529341
                   228   0.027060721042034
                 64.71    0.10165684614077
                 21.06     0.2745748236174
                 7.495    0.44829431892377
                 2.797    0.28490261071525
                0.5215   0.015194859206082
 s    8 1.00
                  6665  -0.00029326965268655
                  1000  -0.0023180354739745
                   228  -0.011499786038565
                 64.71  -0.046826727009787
                 21.06   -0.12846616875047
                 7.495   -0.30126627246289
                 2.797   -0.25563070233011
                0.5215      1.093793361012
 s    1 1.00
                0.1596                   1
 p    3 1.00
                 9.439   0.056979251590039
                 2.002    0.31320721150073
                0.5456    0.76037674173753
 p    1 1.00
                0.1517                   1
 d    1 1.00
                  0.55                   1

22 0
 s    3 1.00
                 13.01   0.033498726389998
                 1.962    0.23480080117413
                0.4446     0.8136829578829
 s    1 1.00
                 0.122                   1
 p    1 1.00
                 0.727                   1

23 0
 s    3 1.00
                 13.01   0.033498726389998
                 1.962    0.23480080117413
                0.4446     0.8136829578829
 s    1 1.00
                 0.122                   1
 p    1 1.00
                 0.727                   1

24 0
 s    3 1.00
                 13.01   0.033498726389998
                 1.962    0.23480080117413
                0.4446     0.8136829578829
 s    1 1.00
                 0.122                   1
 p    1 1.00
                 0.727                   1

25 0
 s    8 1.00
                  6665  0.00069158396281299
                  1000  0.0053257961529341
                   228   0.027060721042034
                 64.71    0.10165684614077
                 21.06     0.2745748236174
                 7.495    0.44829431892377
                 2.797    0.28490261071525
                0.5215   0.015194859206082
 s    8 1.00
                  6665  -0.00029326965268655
                  1000  -0.0023180354739745
                   228  -0.011499786038565
                 64.71  -0.046826727009787
                 21.06   -0.12846616875047
                 7.495   -0.30126627246289
                 2.797   -0.25563070233011
                0.5215      1.093793361012
 s    1 1.00
                0.1596                   1
 p    3 1.00
                 9.439   0.056979251590039
                 2.002    0.31320721150073
                0.5456    0.76037674173753
 p    1 1.00
                0.1517                   1
 d    1 1.00
                  0.55                   1

26 0
 s    3 1.00
                 13.01   0.033498726389998
                 1.962    0.23480080117413
                0.4446     0.8136829578829
 s    1 1.00
                 0.122                   1
 p    1 1.00
                 0.727                   1

27 0
 s    3 1.00
                 13.01   0.033498726389998
                 1.962    0.23480080117413
                0.4446     0.8136829578829
 s    1 1.00
                 0.122                   1
 p    1 1.00
                 0.727                   1

28 0
 s    8 1.00
                  6665  0.00069158396281299
                  1000  0.0053257961529341
                   228   0.027060721042034
                 64.71    0.10165684614077
                 21.06     0.2745748236174
                 7.495    0.44829431892377
                 2.797    0.28490261071525
                0.5215   0.015194859206082
 s    8 1.00
                  6665  -0.00029326965268655
                  1000  -0.0023180354739745
                   228  -0.011499786038565
                 64.71  -0.046826727009787
                 21.06   -0.12846616875047
                 7.495   -0.30126627246289
                 2.797   -0.25563070233011
                0.5215      1.093793361012
 s    1 1.00
                0.1596                   1
 p    3 1.00
                 9.439   0.056979251590039
                 2.002    0.31320721150073
                0.5456    0.76037674173753
 p    1 1.00
                0.1517                   1
 d    1 1.00
                  0.55                   1

29 0
 s    3 1.00
                 13.01   0.033498726389998
                 1.962    0.23480080117413
                0.4446     0.8136829578829
 s    1 1.00
                 0.122                   1
 p    1 1.00
                 0.727                   1

30 0
 s    3 1.00
                 13.01   0.033498726389998
                 1.962    0.23480080117413
                0.4446     0.8136829578829
 s    1 1.00
                 0.122                   1
 p    1 1.00
                 0.727                   1

31 0
 s    8 1.00
                  6665  0.00069158396281299
                  1000  0.0053257961529341
                   228   0.027060721042034
                 64.71    0.10165684614077
                 21.06     0.2745748236174
                 7.495    0.44829431892377
                 2.797    0.28490261071525
                0.5215   0.015194859206082
 s    8 1.00
                  6665  -0.00029326965268655
                  1000  -0.0023180354739745
                   228  -0.011499786038565
                 64.71  -0.046826727009787
                 21.06   -0.12846616875047
                 7.495   -0.30126627246289
                 2.797   -0.25563070233011
                0.5215      1.093793361012
 s    1 1.00
                0.1596                   1
 p    3 1.00
                 9.439   0.056979251590039
                 2.002    0.31320721150073
                0.5456    0.76037674173753
 p    1 1.00
                0.1517                   1
 d    1 1.00
                  0.55                   1

32 0
 s    3 1.00
                 13.01   0.033498726389998
                 1.962    0.23480080117413
                0.4446     0.8136829578829
 s    1 1.00
                 0.122                   1
 p    1 1.00
                 0.727                   1

33 0
 s    3 1.00
                 13.01   0.033498726389998
                 1.962    0.23480080117413
                0.4446     0.8136829578829
 s    1 1.00
                 0.122                   1
 p    1 1.00
                 0.727                   1

34 0
 s    3 1.00
                 13.01   0.033498726389998
                 1.962    0.23480080117413
                0.4446     0.8136829578829
 s    1 1.00
                 0.122                   1
 p    1 1.00
                 0.727                   1

35 0
 s    3 1.00
                 13.01   0.033498726389998
                 1.962    0.23480080117413
                0.4446     0.8136829578829
 s    1 1.00
                 0.122                   1
 p    1 1.00
                 0.727                   1

36 0
 s    3 1.00
                 13.01   0.033498726389998
                 1.962    0.23480080117413
                0.4446     0.8136829578829
 s    1 1.00
                 0.122                   1
 p    1 1.00
                 0.727                   1

37 0
 s    3 1.00
                 13.01   0.033498726389998
                 1.962    0.23480080117413
                0.4446     0.8136829578829
 s    1 1.00
                 0.122                   1
 p    1 1.00
                 0.727                   1

[5d]
[7f]
[9g]

[MO]
 Sym= A
 Ene=               0
 Spin= Alpha
 Occup=    1.00000
   1    4.5596077581163e-06
   2    8.3752992892424e-06
   3    -3.5841438190273e-05
   4    1.0862706943041e-06
   5    -1.9590490239153e-06
   6    6.8741971980066e-07
   7    -9.2356003614236e-07
   8    3.8246587552753e-06
   9    1.3249073783059e-05
  10    -1.3514184341076e-06
  11    -8.9694801724207e-07
  12    8.302436575218e-07
  13    -1.8326098725254e-07
  14    -1.2661180885771e-07
  15    8.865884319295e-06
  16    6.2936624026054e-05
  17    -4.4343473462281e-06
  18    5.4139358862184e-06
  19    3.1555054185462e-06
  20    -9.5766709931068e-07
  21    -7.5044144337134e-06
  22    -1.7567053508157e-07
  23    -4.4447986065058e-07
  24    4.2541073194816e-07
  25    -1.5118576880206e-05
  26    -2.614041497964e-05
  27    0.00021440761567602
  28    -6.9214062696175e-06
  29    7.5599444946159e-06
  30    1.4892205323998e-06
  31    2.9940471776284e-05
  32    -7.8494367658597e-05
  33    -5.8665291776191e-05
  34    2.7255811036475e-06
  35    -1.2392299227661e-06
  36    2.3408223894557e-06
  37    3.0253592009408e-07
  38    1.7672993119506e-06
  39    1.4765183838092e-05
  40    3.3332928310289e-05
  41    7.8916016131165e-05
  42    5.690882986009e-06
  43    -6.6840367077972e-06
  44    -1.7912598768655e-05
  45    -0.00019852441285165
  46    0.00040922347834934
  47    -0.00044236168237933
  48    -1.5240952404652e-05
  49    7.3934033112846e-06
  50    -1.6012739201225e-05
  51    1.0111876188682e-05
  52    1.9995971324924e-06
  53    7.7290398361729e-05
  54    0.00017276039625045
  55    -0.0007676642684429
  56    5.4696500928045e-05
  57    2.2274245801045e-05
  58    -5.3839255084009e-05
  59    -0.00072957988363995
  60    -0.00011857711931944
  61    0.00072955086443076
  62    3.9212819939921e-06
  63    1.9118394379349e-05
  64    3.5025443240164e-05
  65    1.6980868637404e-06
  66    -2.2161413820228e-05
  67    3.7496334737408e-05
  68    4.3761709095525e-05
  69    -0.00061658107887795
  70    4.3608491595121e-05
  71    -5.3816320893988e-06
  72    1.9703196467174e-06
  73    -0.00047103717307038
  74    0.00014938501191101
  75    -0.00035878242011397
  76    6.4770944869268e-07
  77    3.4405685765643e-06
  78    1.8459374222297e-05
  79    6.3588362371231e-06
  80    5.701658616286e-06
  81    3.2162827660626e-05
  82    -2.5516129325131e-05
  83    1.6889549132999e-05
  84    -3.0445658702122e-06
  85    -1.9860177405064e-05
  86    4.3482961339149e-06
  87    0.00015660529399433
  88    0.0022939684462442
  89    0.0003931575592584
  90    -0.00024153998950732
  91    -0.00025940094844261
  92    0.00061242284718422
  93    -0.0012363450637652
  94    -0.00023104188279037
  95    -2.385583604718e-05
  96    -0.00010814973127847
  97    3.0865990866575e-05
  98    3.8735024047578e-05
  99    -4.5005562472075e-05
 100    2.6869609360001e-05
 101    -0.00018003844315058
 102    2.9671241737281e-05
 103    -1.5164674713888e-05
 104    -2.9250281885918e-05
 105    -2.8559995046151e-05
 106    -0.00012932892715291
 107    6.5980386884611e-06
 108    -1.1543151646368e-05
 109    2.4413515782948e-06
 110    3.8365873086618e-05
 111    0.0002307845223745
 112    6.9724704892144e-06
 113    -1.9527200262396e-05
 114    2.4685620566933e-05
 115    -7.0800530470469e-05
 116    -0.00011181179264909
 117    -0.0011655034898372
 118    3.584701051104e-05
 119    -3.107657457559e-05
 120    7.475904307924e-05
 121    0.00079178427268619
 122    -0.00085081670243516
 123    0.00017222610643354
 124    3.1835351360056e-05
 125    1.7781252560233e-05
 126    4.1643073164041e-05
 127    -1.5925917515177e-05
 128    -1.2641619686658e-05
 129    -4.4179183121034e-05
 130    2.0405133295133e-05
 131    2.1466750776222e-05
 132    1.5653464925376e-05
 133    -4.6362810374897e-05
 134    -1.7528349894656e-05
 135    -1.8137351910552e-05
 136    3.1527512306615e-05
 137    2.4095892015523e-05
 138    -4.2163698243059e-07
 139    0.00064490283918977
 140    0.0013686791052301
 141    -0.0070176256704154
 142    0.00050273921995053
 143    0.00072633531032818
 144    -0.0007393062859409
 145    -0.00040587786568941
 146    -0.0011185459230745
 147    0.0015466729442202
 148    -4.2870156371367e-05
 149    2.0242897320208e-05
 150    -7.0748013292292e-05
 151    -0.00020554360790529
 152    1.9403749672583e-05
 153    9.5462929389121e-05
 154    0.00016949726620257
 155    -2.4924631305691e-05
 156    2.8954625542428e-05
 157    2.057346131777e-05
 158    -0.00015124311861892
 159    -0.00037259097360029
 160    5.5562772078043e-06
 161    -3.3381612838101e-05
 162    1.8485080174276e-05
 163    -0.031104941943998
 164    0.0010839361763705
 165    0.0036914461360592
 166    -0.00066838491262619
 167    0.00071631607409394
 168    0.00048167935984468
 169    -0.00069098675581072
 170    0.00075284065119603
 171    0.00098978420698893
 172    0.00027048951187998
 173    -1.4885222159208e-05
 174    0.00051867469823675
 175    -0.00025155126496537
 176    -0.0003352530738403
 177    -3.6940312478462e-05
 178    -0.00055076481529037
 179    6.8408557903781e-05
 180    8.6365375014683e-07
 181    4.1552283613905e-06
 182      -0.2993935233768
 183    -0.0098027173759597
 184    -0.0015285748852332
 185    -0.0055499286631046
 186    -0.0057086466563278
 187    0.0057001536815249
 188    -0.0040235766992776
 189    -0.0024913127131659
 190    0.0040005456515583
 191    -0.00051378719761019
 192    0.00031665706639524
 193    0.00095725325227545
 194    -0.0016430573226305
 195    -0.0011531928301452
 196    0.00036488846317393
 197    0.00047267469093873
 198    6.672672485998e-05
 199    9.5839778385169e-06
 200    -9.0059804963664e-05
 201    0.0013501972616559
 202    0.0018971590328157
 203    -3.1235827845775e-05
 204    6.5474830328027e-05
 205    8.9571753089401e-05
 206    -0.00019294853101747
 207    -0.0014908538214611
 208    -3.4894404195654e-05
 209    -0.00015756194977855
 210    2.808764901623e-05
 211      0.12866640941943
 212    0.0041922943957923
 213    -0.00074092742340797
 214    0.0086463665803731
 215     0.008827373201997
 216    0.0068343181694147
 217    0.0037700456006256
 218    0.0043484368577786
 219    0.0038075673048242
 220    0.00040038101676749
 221    6.1135816039821e-06
 222     0.001598207235281
 223    0.00035098104793603
 224    0.00066937119982266
 225    -0.0039503637317727
 226    0.0028212058576941
 227    0.00019492815998936
 228    0.00051814576896561
 229    0.00039545391801062
 230    -0.0052535039279322
 231    -0.00076484366150124
 232    -0.00045792548212028
 233    0.00023970418543936
 234    -0.00021925199286805
 235     -0.89440072200966
 236      0.01298041539316
 237     0.017604563069425
 238    -0.013787931244325
 239    -0.057254065469889
 240    0.0056409733189114
 241    -0.0067287699107903
 242    -0.027043598378764
 243    0.0028862096461379
 244    -0.00016777540412731
 245    0.0026006971643225
 246    0.0023618340988317
 247    -0.00055985241323505
 248    0.00043819978497766
 249     0.014453558035645
 250    0.0065256174754931
 251    -0.00023605685492072
 252    -0.00029182317861786
 253    -0.00081543978645909
 254    -0.0068514647943197
 255    -0.004760023993512
 256    -3.2440746267397e-05
 257    -8.81966308917e-05
 258    0.00039264637060829
 259      0.26987576560799
 260     -0.01851282224795
 261    -0.013812932631405
 262    -0.0043425563825704
 263      -0.0127296503706
 264    0.0048007018444924
 265    -0.0019206792647403