[Molden Format]
made by pyscf v[2.0.1]
[Atoms] (AU)
O   1   8     0.00000000000000     0.00000000000000     6.78435311142442
H   2   1     0.00000000000000     0.00000000000000     4.96095128952346
H   3   1    -0.05031916615174     1.78353065140343     7.16022480789109
O   4   8     0.00000000000000     0.00000000000000     2.31533471513237
C   5   6     0.00000000000000     0.00000000000000     0.00000000000000
C   6   6     2.01118073026938    -1.40227222164369    -1.50774939176400
C   7   6    -2.01249334291722     1.41331050329955    -1.50315905028694
H   8   1     3.32037363730244    -2.26721897153159    -0.13599698591495
C   9   6     3.45899267434009     0.28739631745591    -3.37437943254505
H   10   1     1.07662969841332    -2.94725144642667    -2.56541439481080
H   11   1    -2.67503415753480     0.18421555839588    -3.06194479365997
H   12   1    -1.07974048864772     3.03851734677796    -2.43674295017013
C   13   6    -4.21607110578555     2.32938802552922     0.11994162256091
H   14   1     4.24440173074564     1.93368664142019    -2.34976285512790
H   15   1     2.15020713235517     1.04714335134846    -4.81494497423699
C   16   6     5.60746363007797    -1.12419643481196    -4.70268606082550
H   17   1    -3.46838323670267     3.50951302338067     1.66946842715333
H   18   1    -5.11873485366228     0.68575958301209     1.04047743976495
C   19   6    -6.18314754751344     3.80909592987882    -1.39656589068747
H   20   1     6.93011263717176    -1.87550812453645    -3.26656317360070
C   21   6     7.06356622236532     0.52877932406334    -6.57829775293605
H   22   1     4.82318879258361    -2.78573437948532    -5.70504560381835
H   23   1    -6.91582688743803     2.61304780074712    -2.95074552451969
H   24   1    -5.26532430573853     5.45420349051338    -2.31005832200284
C   25   6    -8.39941882261433     4.73263980500213     0.21800571437956
H   26   1     7.83338371486801     2.19084139882824    -5.57093109900697
H   27   1     5.73544244039420     1.27376866537418    -8.01071492370229
C   28   6     9.21124858443101    -0.89699110072176    -7.88926949186242
H   29   1    -7.66272760055236     5.92277078003992     1.77035591474408
H   30   1    -9.31497248082589     3.08753015622020     1.12614408368786
C   31   6   -10.35481709231879     6.21833079391143    -1.30905206253246
H   32   1    10.58815905329501    -1.61074586756696    -6.49512691622620
H   33   1    10.23506248045667     0.32468009384095    -9.23072870921204
H   34   1     8.47665842847139    -2.53598436989925    -8.94921964622535
H   35   1    -9.48948872868064     7.90013588951020    -2.18823918416067
H   36   1   -11.93332513000955     6.86460487874102    -0.11255798845995
H   37   1   -11.15126291841033     5.04495968327630    -2.83849898862534
[GTO]
1 0
 s    8 1.00
                 11720  0.00070964594651845
                  1759  0.0054672722921914
                 400.8   0.027823118610189
                 113.7    0.10474773971146
                 37.03    0.28292084635691
                 13.27    0.44849523869833
                 5.025    0.27081688521277
                 1.013    0.01545029160744
 s    8 1.00
                 11720  -0.00031444341168873
                  1759  -0.0024821376810179
                 400.8  -0.012316355381583
                 113.7  -0.050538917343672
                 37.03   -0.13938490331632
                 13.27   -0.32507749481778
                 5.025   -0.22984830758785
                 1.013     1.0953793467883
 s    1 1.00
                0.3023                   1
 p    3 1.00
                  17.7   0.062679166281506
                 3.854    0.33353656587936
                 1.046    0.74123964163973
 p    1 1.00
                0.2753                   1
 d    1 1.00
                 1.185                   1

2 0
 s    3 1.00
                 13.01   0.033498726389998
                 1.962    0.23480080117413
                0.4446     0.8136829578829
 s    1 1.00
                 0.122                   1
 p    1 1.00
                 0.727                   1

3 0
 s    3 1.00
                 13.01   0.033498726389998
                 1.962    0.23480080117413
                0.4446     0.8136829578829
 s    1 1.00
                 0.122                   1
 p    1 1.00
                 0.727                   1

4 0
 s    8 1.00
                 11720  0.00070964594651845
                  1759  0.0054672722921914
                 400.8   0.027823118610189
                 113.7    0.10474773971146
                 37.03    0.28292084635691
                 13.27    0.44849523869833
                 5.025    0.27081688521277
                 1.013    0.01545029160744
 s    8 1.00
                 11720  -0.00031444341168873
                  1759  -0.0024821376810179
                 400.8  -0.012316355381583
                 113.7  -0.050538917343672
                 37.03   -0.13938490331632
                 13.27   -0.32507749481778
                 5.025   -0.22984830758785
                 1.013     1.0953793467883
 s    1 1.00
                0.3023                   1
 p    3 1.00
                  17.7   0.062679166281506
                 3.854    0.33353656587936
                 1.046    0.74123964163973
 p    1 1.00
                0.2753                   1
 d    1 1.00
                 1.185                   1

5 0
 s    8 1.00
                  6665  0.00069158396281299
                  1000  0.0053257961529341
                   228   0.027060721042034
                 64.71    0.10165684614077
                 21.06     0.2745748236174
                 7.495    0.44829431892377
                 2.797    0.28490261071525
                0.5215   0.015194859206082
 s    8 1.00
                  6665  -0.00029326965268655
                  1000  -0.0023180354739745
                   228  -0.011499786038565
                 64.71  -0.046826727009787
                 21.06   -0.12846616875047
                 7.495   -0.30126627246289
                 2.797   -0.25563070233011
                0.5215      1.093793361012
 s    1 1.00
                0.1596                   1
 p    3 1.00
                 9.439   0.056979251590039
                 2.002    0.31320721150073
                0.5456    0.76037674173753
 p    1 1.00
                0.1517                   1
 d    1 1.00
                  0.55                   1

6 0
 s    8 1.00
                  6665  0.00069158396281299
                  1000  0.0053257961529341
                   228   0.027060721042034
                 64.71    0.10165684614077
                 21.06     0.2745748236174
                 7.495    0.44829431892377
                 2.797    0.28490261071525
                0.5215   0.015194859206082
 s    8 1.00
                  6665  -0.00029326965268655
                  1000  -0.0023180354739745
                   228  -0.011499786038565
                 64.71  -0.046826727009787
                 21.06   -0.12846616875047
                 7.495   -0.30126627246289
                 2.797   -0.25563070233011
                0.5215      1.093793361012
 s    1 1.00
                0.1596                   1
 p    3 1.00
                 9.439   0.056979251590039
                 2.002    0.31320721150073
                0.5456    0.76037674173753
 p    1 1.00
                0.1517                   1
 d    1 1.00
                  0.55                   1

7 0
 s    8 1.00
                  6665  0.00069158396281299
                  1000  0.0053257961529341
                   228   0.027060721042034
                 64.71    0.10165684614077
                 21.06     0.2745748236174
                 7.495    0.44829431892377
                 2.797    0.28490261071525
                0.5215   0.015194859206082
 s    8 1.00
                  6665  -0.00029326965268655
                  1000  -0.0023180354739745
                   228  -0.011499786038565
                 64.71  -0.046826727009787
                 21.06   -0.12846616875047
                 7.495   -0.30126627246289
                 2.797   -0.25563070233011
                0.5215      1.093793361012
 s    1 1.00
                0.1596                   1
 p    3 1.00
                 9.439   0.056979251590039
                 2.002    0.31320721150073
                0.5456    0.76037674173753
 p    1 1.00
                0.1517                   1
 d    1 1.00
                  0.55                   1

8 0
 s    3 1.00
                 13.01   0.033498726389998
                 1.962    0.23480080117413
                0.4446     0.8136829578829
 s    1 1.00
                 0.122                   1
 p    1 1.00
                 0.727                   1

9 0
 s    8 1.00
                  6665  0.00069158396281299
                  1000  0.0053257961529341
                   228   0.027060721042034
                 64.71    0.10165684614077
                 21.06     0.2745748236174
                 7.495    0.44829431892377
                 2.797    0.28490261071525
                0.5215   0.015194859206082
 s    8 1.00
                  6665  -0.00029326965268655
                  1000  -0.0023180354739745
                   228  -0.011499786038565
                 64.71  -0.046826727009787
                 21.06   -0.12846616875047
                 7.495   -0.30126627246289
                 2.797   -0.25563070233011
                0.5215      1.093793361012
 s    1 1.00
                0.1596                   1
 p    3 1.00
                 9.439   0.056979251590039
                 2.002    0.31320721150073
                0.5456    0.76037674173753
 p    1 1.00
                0.1517                   1
 d    1 1.00
                  0.55                   1

10 0
 s    3 1.00
                 13.01   0.033498726389998
                 1.962    0.23480080117413
                0.4446     0.8136829578829
 s    1 1.00
                 0.122                   1
 p    1 1.00
                 0.727                   1

11 0
 s    3 1.00
                 13.01   0.033498726389998
                 1.962    0.23480080117413
                0.4446     0.8136829578829
 s    1 1.00
                 0.122                   1
 p    1 1.00
                 0.727                   1

12 0
 s    3 1.00
                 13.01   0.033498726389998
                 1.962    0.23480080117413
                0.4446     0.8136829578829
 s    1 1.00
                 0.122                   1
 p    1 1.00
                 0.727                   1

13 0
 s    8 1.00
                  6665  0.00069158396281299
                  1000  0.0053257961529341
                   228   0.027060721042034
                 64.71    0.10165684614077
                 21.06     0.2745748236174
                 7.495    0.44829431892377
                 2.797    0.28490261071525
                0.5215   0.015194859206082
 s    8 1.00
                  6665  -0.00029326965268655
                  1000  -0.0023180354739745
                   228  -0.011499786038565
                 64.71  -0.046826727009787
                 21.06   -0.12846616875047
                 7.495   -0.30126627246289
                 2.797   -0.25563070233011
                0.5215      1.093793361012
 s    1 1.00
                0.1596                   1
 p    3 1.00
                 9.439   0.056979251590039
                 2.002    0.31320721150073
                0.5456    0.76037674173753
 p    1 1.00
                0.1517                   1
 d    1 1.00
                  0.55                   1

14 0
 s    3 1.00
                 13.01   0.033498726389998
                 1.962    0.23480080117413
                0.4446     0.8136829578829
 s    1 1.00
                 0.122                   1
 p    1 1.00
                 0.727                   1

15 0
 s    3 1.00
                 13.01   0.033498726389998
                 1.962    0.23480080117413
                0.4446     0.8136829578829
 s    1 1.00
                 0.122                   1
 p    1 1.00
                 0.727                   1

16 0
 s    8 1.00
                  6665  0.00069158396281299
                  1000  0.0053257961529341
                   228   0.027060721042034
                 64.71    0.10165684614077
                 21.06     0.2745748236174
                 7.495    0.44829431892377
                 2.797    0.28490261071525
                0.5215   0.015194859206082
 s    8 1.00
                  6665  -0.00029326965268655
                  1000  -0.0023180354739745
                   228  -0.011499786038565
                 64.71  -0.046826727009787
                 21.06   -0.12846616875047
                 7.495   -0.30126627246289
                 2.797   -0.25563070233011
                0.5215      1.093793361012
 s    1 1.00
                0.1596                   1
 p    3 1.00
                 9.439   0.056979251590039
                 2.002    0.31320721150073
                0.5456    0.76037674173753
 p    1 1.00
                0.1517                   1
 d    1 1.00
                  0.55                   1

17 0
 s    3 1.00
                 13.01   0.033498726389998
                 1.962    0.23480080117413
                0.4446     0.8136829578829
 s    1 1.00
                 0.122                   1
 p    1 1.00
                 0.727                   1

18 0
 s    3 1.00
                 13.01   0.033498726389998
                 1.962    0.23480080117413
                0.4446     0.8136829578829
 s    1 1.00
                 0.122                   1
 p    1 1.00
                 0.727                   1

19 0
 s    8 1.00
                  6665  0.00069158396281299
                  1000  0.0053257961529341
                   228   0.027060721042034
                 64.71    0.10165684614077
                 21.06     0.2745748236174
                 7.495    0.44829431892377
                 2.797    0.28490261071525
                0.5215   0.015194859206082
 s    8 1.00
                  6665  -0.00029326965268655
                  1000  -0.0023180354739745
                   228  -0.011499786038565
                 64.71  -0.046826727009787
                 21.06   -0.12846616875047
                 7.495   -0.30126627246289
                 2.797   -0.25563070233011
                0.5215      1.093793361012
 s    1 1.00
                0.1596                   1
 p    3 1.00
                 9.439   0.056979251590039
                 2.002    0.31320721150073
                0.5456    0.76037674173753
 p    1 1.00
                0.1517                   1
 d    1 1.00
                  0.55                   1

20 0
 s    3 1.00
                 13.01   0.033498726389998
                 1.962    0.23480080117413
                0.4446     0.8136829578829
 s    1 1.00
                 0.122                   1
 p    1 1.00
                 0.727                   1

21 0
 s    8 1.00
                  6665  0.00069158396281299
                  1000  0.0053257961529341
                   228   0.027060721042034
                 64.71    0.10165684614077
                 21.06     0.2745748236174
                 7.495    0.44829431892377
                 2.797    0.28490261071525
                0.5215   0.015194859206082
 s    8 1.00
                  6665  -0.00029326965268655
                  1000  -0.0023180354739745
                   228  -0.011499786038565
                 64.71  -0.046826727009787
                 21.06   -0.12846616875047
                 7.495   -0.30126627246289
                 2.797   -0.25563070233011
                0.5215      1.093793361012
 s    1 1.00
                0.1596                   1
 p    3 1.00
                 9.439   0.056979251590039
                 2.002    0.31320721150073
                0.5456    0.76037674173753
 p    1 1.00
                0.1517                   1
 d    1 1.00
                  0.55                   1

22 0
 s    3 1.00
                 13.01   0.033498726389998
                 1.962    0.23480080117413
                0.4446     0.8136829578829
 s    1 1.00
                 0.122                   1
 p    1 1.00
                 0.727                   1

23 0
 s    3 1.00
                 13.01   0.033498726389998
                 1.962    0.23480080117413
                0.4446     0.8136829578829
 s    1 1.00
                 0.122                   1
 p    1 1.00
                 0.727                   1

24 0
 s    3 1.00
                 13.01   0.033498726389998
                 1.962    0.23480080117413
                0.4446     0.8136829578829
 s    1 1.00
                 0.122                   1
 p    1 1.00
                 0.727                   1

25 0
 s    8 1.00
                  6665  0.00069158396281299
                  1000  0.0053257961529341
                   228   0.027060721042034
                 64.71    0.10165684614077
                 21.06     0.2745748236174
                 7.495    0.44829431892377
                 2.797    0.28490261071525
                0.5215   0.015194859206082
 s    8 1.00
                  6665  -0.00029326965268655
                  1000  -0.0023180354739745
                   228  -0.011499786038565
                 64.71  -0.046826727009787
                 21.06   -0.12846616875047
                 7.495   -0.30126627246289
                 2.797   -0.25563070233011
                0.5215      1.093793361012
 s    1 1.00
                0.1596                   1
 p    3 1.00
                 9.439   0.056979251590039
                 2.002    0.31320721150073
                0.5456    0.76037674173753
 p    1 1.00
                0.1517                   1
 d    1 1.00
                  0.55                   1

26 0
 s    3 1.00
                 13.01   0.033498726389998
                 1.962    0.23480080117413
                0.4446     0.8136829578829
 s    1 1.00
                 0.122                   1
 p    1 1.00
                 0.727                   1

27 0
 s    3 1.00
                 13.01   0.033498726389998
                 1.962    0.23480080117413
                0.4446     0.8136829578829
 s    1 1.00
                 0.122                   1
 p    1 1.00
                 0.727                   1

28 0
 s    8 1.00
                  6665  0.00069158396281299
                  1000  0.0053257961529341
                   228   0.027060721042034
                 64.71    0.10165684614077
                 21.06     0.2745748236174
                 7.495    0.44829431892377
                 2.797    0.28490261071525
                0.5215   0.015194859206082
 s    8 1.00
                  6665  -0.00029326965268655
                  1000  -0.0023180354739745
                   228  -0.011499786038565
                 64.71  -0.046826727009787
                 21.06   -0.12846616875047
                 7.495   -0.30126627246289
                 2.797   -0.25563070233011
                0.5215      1.093793361012
 s    1 1.00
                0.1596                   1
 p    3 1.00
                 9.439   0.056979251590039
                 2.002    0.31320721150073
                0.5456    0.76037674173753
 p    1 1.00
                0.1517                   1
 d    1 1.00
                  0.55                   1

29 0
 s    3 1.00
                 13.01   0.033498726389998
                 1.962    0.23480080117413
                0.4446     0.8136829578829
 s    1 1.00
                 0.122                   1
 p    1 1.00
                 0.727                   1

30 0
 s    3 1.00
                 13.01   0.033498726389998
                 1.962    0.23480080117413
                0.4446     0.8136829578829
 s    1 1.00
                 0.122                   1
 p    1 1.00
                 0.727                   1

31 0
 s    8 1.00
                  6665  0.00069158396281299
                  1000  0.0053257961529341
                   228   0.027060721042034
                 64.71    0.10165684614077
                 21.06     0.2745748236174
                 7.495    0.44829431892377
                 2.797    0.28490261071525
                0.5215   0.015194859206082
 s    8 1.00
                  6665  -0.00029326965268655
                  1000  -0.0023180354739745
                   228  -0.011499786038565
                 64.71  -0.046826727009787
                 21.06   -0.12846616875047
                 7.495   -0.30126627246289
                 2.797   -0.25563070233011
                0.5215      1.093793361012
 s    1 1.00
                0.1596                   1
 p    3 1.00
                 9.439   0.056979251590039
                 2.002    0.31320721150073
                0.5456    0.76037674173753
 p    1 1.00
                0.1517                   1
 d    1 1.00
                  0.55                   1

32 0
 s    3 1.00
                 13.01   0.033498726389998
                 1.962    0.23480080117413
                0.4446     0.8136829578829
 s    1 1.00
                 0.122                   1
 p    1 1.00
                 0.727                   1

33 0
 s    3 1.00
                 13.01   0.033498726389998
                 1.962    0.23480080117413
                0.4446     0.8136829578829
 s    1 1.00
                 0.122                   1
 p    1 1.00
                 0.727                   1

34 0
 s    3 1.00
                 13.01   0.033498726389998
                 1.962    0.23480080117413
                0.4446     0.8136829578829
 s    1 1.00
                 0.122                   1
 p    1 1.00
                 0.727                   1

35 0
 s    3 1.00
                 13.01   0.033498726389998
                 1.962    0.23480080117413
                0.4446     0.8136829578829
 s    1 1.00
                 0.122                   1
 p    1 1.00
                 0.727                   1

36 0
 s    3 1.00
                 13.01   0.033498726389998
                 1.962    0.23480080117413
                0.4446     0.8136829578829
 s    1 1.00
                 0.122                   1
 p    1 1.00
                 0.727                   1

37 0
 s    3 1.00
                 13.01   0.033498726389998
                 1.962    0.23480080117413
                0.4446     0.8136829578829
 s    1 1.00
                 0.122                   1
 p    1 1.00
                 0.727                   1

[5d]
[7f]
[9g]

[MO]
 Sym= A
 Ene=               0
 Spin= Alpha
 Occup=    1.00000
   1    -2.5145430882264e-06
   2    -7.4196317056994e-06
   3    1.5701986265725e-06
   4    -2.2285725630078e-06
   5    2.5744785959113e-07
   6    1.757754068023e-05
   7    -2.2029576598275e-06
   8    -2.5315814322597e-06
   9    9.8948995230174e-06
  10    -3.8237339474982e-08
  11    8.8912087676632e-07
  12    -3.5496413115994e-07
  13    3.1796209315365e-07
  14    -4.6786811615955e-08
  15    -1.2291338604558e-05
  16    -1.752963928559e-05
  17    3.3826712963495e-06
  18    -1.7007480736778e-06
  19    -1.3295437304174e-06
  20    1.6184530339324e-06
  21    9.4128204863134e-06
  22    1.5012104342022e-08
  23    -6.7802817768443e-07
  24    -5.7124705461937e-07
  25    8.2329131087929e-06
  26    -8.1491132038344e-06
  27    -0.00013131022670628
  28    5.9548672650969e-06
  29    7.7903695758659e-05
  30    6.2821932940646e-05
  31    -7.8715747961254e-05
  32    0.00013171938356467
  33    0.00010383492760467
  34    -5.5099254556409e-06
  35    -2.1651050024253e-06
  36    -1.9608959783291e-07
  37    -7.3927788200481e-07
  38    -2.5859827635386e-06
  39    -0.00011558919516022
  40    -5.837664808371e-05
  41    0.00075654253944094
  42    9.6612748189491e-05
  43    -0.00011509085422967
  44    -4.9158913367849e-05
  45    0.00054300612218006
  46    -0.00041276773709576
  47    -0.00011229500092999
  48    -9.6077844025453e-06
  49    -1.9989880404332e-05
  50    3.3487773819344e-05
  51    -1.1489983641389e-05
  52    -3.0017632663231e-05
  53    9.5550851130925e-05
  54    -0.00025539199681112
  55    -9.6540967818295e-05
  56    -0.00027431885977124
  57    -0.00034428615472091
  58    0.00033907585475446
  59    0.00053677192719536
  60    -0.00030038861733767
  61    -0.00048485440289492
  62    4.733538968867e-07
  63    1.3541838398533e-05
  64    4.1386873212279e-06
  65    1.8543008030851e-05
  66    6.8480701335118e-06
  67    -8.0734891504538e-06
  68    -3.5603766945854e-05
  69    -0.00010976681859403
  70    -4.5959193473944e-05
  71    4.9178222869227e-05
  72    -2.9050737705025e-05
  73    0.00022941299400419
  74    -5.591629988223e-05
  75    -3.2389853395679e-05
  76    -1.8085873688844e-07
  77    1.2077815590498e-05
  78    -8.4586829101406e-06
  79    -1.0050910956697e-05
  80    4.1020423109035e-06
  81    1.9061728219899e-05
  82    8.0632692165098e-06
  83    -2.0299236859171e-05
  84    -6.907103947478e-07
  85    2.8749883673366e-05
  86    -0.00072822415009574
  87    -0.00050785166146156
  88    -0.00039608053987171
  89    0.00042860082841166
  90    -0.00034312306297308
  91    -0.00024940357006776
  92    0.00051026464832383
  93    0.00034731020223883
  94    -0.00053574017846573
  95    -7.0437750381979e-05
  96    -1.8587613647842e-05
  97    4.9705003600482e-05
  98    -3.9100086624646e-05
  99    -0.00013315840157232
 100    4.3597663896316e-05
 101    1.8510708437292e-05
 102    -4.1254574022622e-05
 103    1.7420858364646e-06
 104    2.9855451911513e-05
 105    -1.9161416406237e-05
 106    5.7006269786057e-05
 107    -1.1446285402949e-05
 108    6.4831776495996e-06
 109    4.6289127681553e-06
 110    -8.1095751053129e-06
 111    0.00010958122225845
 112    -5.8301776746104e-06
 113    -2.2382106960162e-06
 114    -4.1786209428657e-07
 115    -2.6732924469416e-05
 116    -3.6945624768485e-05
 117    0.00020763236418121
 118    1.3794180374676e-05
 119    -6.4937390975704e-06
 120    -7.6886489884244e-06
 121    0.0001835490609727
 122    -0.00014423273579611
 123    -4.5976277904077e-05
 124    9.7675859553521e-07
 125    -1.2492029433085e-05
 126    6.1446914788703e-06
 127    5.9012931253865e-06
 128    -6.5677841231235e-06
 129    -0.00030726231692182
 130    -0.00016199636602196
 131    -1.2843501323689e-05
 132    7.4484728254286e-06
 133    7.6993026411149e-05
 134    -0.00029390475560479
 135    -0.0002189291364023
 136    -7.3333662571438e-05
 137    -1.8365972910748e-05
 138    -9.5503749500605e-06
 139    0.0028355554780979
 140    0.0021853963677572
 141     0.004412495051452
 142    -0.00011598057681771
 143    -0.0024300269643643
 144    0.0010098044061797
 145    0.00090592214488791
 146    -0.00023369909283958
 147    -0.00073209800858166
 148    -6.0168591152713e-06
 149    0.00022181750314761
 150    0.00017991535773508
 151    3.2902267003537e-05
 152    -8.5875384698073e-05
 153    -1.0786558431709e-05
 154    3.2114598936794e-05
 155    -3.1829704582311e-06
 156    2.6179227837347e-06
 157    -1.483638643501e-06
 158    -1.351651799145e-05
 159    -1.3619078981293e-05
 160    -6.0130016476271e-06
 161    2.8480046175755e-06
 162    1.1173435468108e-06
 163    0.00043724349182169
 164    -1.77976829008e-05
 165    6.5993049486687e-05
 166    -1.2659506291898e-05
 167    8.9146070452413e-06
 168    -8.5740395650826e-06
 169    3.9174130481428e-05
 170    -1.0506231058876e-05
 171    -7.8539008962981e-06
 172    -4.9020712863246e-07
 173    1.0667263740551e-06
 174    8.1988134057283e-07
 175    1.5935272187851e-06
 176    1.6230623549619e-07
 177    0.0024060862138308
 178    0.00089298481928505
 179    -0.00017810993250585
 180    7.0222664291436e-05
 181    -0.00021182398410072
 182      0.99973682326422
 183    0.0045931100815509
 184    -0.012357203607885
 185    0.00045325916183202
 186    0.00060201536033744
 187    -0.00062476967484476
 188    0.00041538669101587
 189     0.001580769786423
 190    -0.0009329367210013
 191    -2.6821341802493e-06
 192    0.00034925625435619
 193    5.4359479547258e-05
 194    -0.00010398344468074
 195    2.6308635110125e-05
 196    0.0024055989786168
 197    0.00087948709270707
 198    0.00013311729411653
 199    0.00020171497288469
 200    0.00014724490226279
 201    -4.3414607650563e-06
 202    -5.5503367955197e-06
 203    -2.8114321530472e-06
 204    -4.8911231067797e-07
 205    -1.2049765746739e-06
 206    -2.018300927113e-06
 207    -2.4977510708814e-05
 208    -1.1370004750437e-06
 209    3.7418879941949e-06
 210    -6.8474910280406e-07
 211    -0.00036782886181264
 212    -5.9998774267519e-06
 213    1.0541393564412e-05
 214    1.492264173399e-06
 215    2.1556672649299e-07
 216    -3.0513531643827e-06
 217    6.6126023772307e-05
 218    -3.7083511763754e-05
 219    1.9627892968362e-05
 220    -2.4174297224392e-07
 221    -1.7799557410338e-06
 222    2.0750965468758e-06
 223    7.9705098171915e-07
 224    -6.3933884100673e-07
 225    0.00023139749021519
 226    0.0013904487547818
 227    0.00020796206322354
 228    0.00032102396184009
 229    0.00025053338415425
 230    0.00022735273094866
 231    0.0014230932970064
 232    -0.00029747518149166
 233    0.00010157399345332
 234    -0.00033428836394012
 235     0.074467215685091
 236    0.00024946155749985
 237     0.001857841709739
 238    -0.00011868229058956
 239    0.00019330503843373
 240    2.8761676517067e-05
 241    -0.00081766971583758
 242    0.00056915853670677
 243    0.00049298707518128
 244    4.0743996150305e-05
 245    0.00013610897408277
 246    -9.8475734726502e-05
 247    -7.2119089785813e-05
 248    0.00014789248282486
 249    -4.1226080673326e-06
 250    -3.6766980047705e-06
 251    -1.9410936138452e-06
 252    1.9953488847166e-06
 253    -1.1471034348355e-06
 254    -3.46154666064e-06
 255    4.6515400054472e-06
 256    -1.8263955872877e-06
 257    1.5899710395487e-06
 258    -2.1567153386046e-06
 259    -0.00010187690474816
 260    -8.2342806382885e-06
 261    5.0555350291113e-05
 262    -1.9469630752127e-06