[Molden Format]
made by pyscf v[2.0.1]
[Atoms] (AU)
O   1   8     0.00000000000000     0.00000000000000     8.67407923598948
H   2   1     0.00000000000000     0.00000000000000     6.85067741408852
H   3   1    -0.05031916615174     1.78353065140343     9.04995093245615
O   4   8     0.00000000000000     0.00000000000000     2.31533471513237
C   5   6     0.00000000000000     0.00000000000000     0.00000000000000
C   6   6     2.01118073026938    -1.40227222164369    -1.50774939176400
C   7   6    -2.01249334291722     1.41331050329955    -1.50315905028694
H   8   1     3.32037363730244    -2.26721897153159    -0.13599698591495
C   9   6     3.45899267434009     0.28739631745591    -3.37437943254505
H   10   1     1.07662969841332    -2.94725144642667    -2.56541439481080
H   11   1    -2.67503415753480     0.18421555839588    -3.06194479365997
H   12   1    -1.07974048864772     3.03851734677796    -2.43674295017013
C   13   6    -4.21607110578555     2.32938802552922     0.11994162256091
H   14   1     4.24440173074564     1.93368664142019    -2.34976285512790
H   15   1     2.15020713235517     1.04714335134846    -4.81494497423699
C   16   6     5.60746363007797    -1.12419643481196    -4.70268606082550
H   17   1    -3.46838323670267     3.50951302338067     1.66946842715333
H   18   1    -5.11873485366228     0.68575958301209     1.04047743976495
C   19   6    -6.18314754751344     3.80909592987882    -1.39656589068747
H   20   1     6.93011263717176    -1.87550812453645    -3.26656317360070
C   21   6     7.06356622236532     0.52877932406334    -6.57829775293605
H   22   1     4.82318879258361    -2.78573437948532    -5.70504560381835
H   23   1    -6.91582688743803     2.61304780074712    -2.95074552451969
H   24   1    -5.26532430573853     5.45420349051338    -2.31005832200284
C   25   6    -8.39941882261433     4.73263980500213     0.21800571437956
H   26   1     7.83338371486801     2.19084139882824    -5.57093109900697
H   27   1     5.73544244039420     1.27376866537418    -8.01071492370229
C   28   6     9.21124858443101    -0.89699110072176    -7.88926949186242
H   29   1    -7.66272760055236     5.92277078003992     1.77035591474408
H   30   1    -9.31497248082589     3.08753015622020     1.12614408368786
C   31   6   -10.35481709231879     6.21833079391143    -1.30905206253246
H   32   1    10.58815905329501    -1.61074586756696    -6.49512691622620
H   33   1    10.23506248045667     0.32468009384095    -9.23072870921204
H   34   1     8.47665842847139    -2.53598436989925    -8.94921964622535
H   35   1    -9.48948872868064     7.90013588951020    -2.18823918416067
H   36   1   -11.93332513000955     6.86460487874102    -0.11255798845995
H   37   1   -11.15126291841033     5.04495968327630    -2.83849898862534
[GTO]
1 0
 s    8 1.00
                 11720  0.00070964594651845
                  1759  0.0054672722921914
                 400.8   0.027823118610189
                 113.7    0.10474773971146
                 37.03    0.28292084635691
                 13.27    0.44849523869833
                 5.025    0.27081688521277
                 1.013    0.01545029160744
 s    8 1.00
                 11720  -0.00031444341168873
                  1759  -0.0024821376810179
                 400.8  -0.012316355381583
                 113.7  -0.050538917343672
                 37.03   -0.13938490331632
                 13.27   -0.32507749481778
                 5.025   -0.22984830758785
                 1.013     1.0953793467883
 s    1 1.00
                0.3023                   1
 p    3 1.00
                  17.7   0.062679166281506
                 3.854    0.33353656587936
                 1.046    0.74123964163973
 p    1 1.00
                0.2753                   1
 d    1 1.00
                 1.185                   1

2 0
 s    3 1.00
                 13.01   0.033498726389998
                 1.962    0.23480080117413
                0.4446     0.8136829578829
 s    1 1.00
                 0.122                   1
 p    1 1.00
                 0.727                   1

3 0
 s    3 1.00
                 13.01   0.033498726389998
                 1.962    0.23480080117413
                0.4446     0.8136829578829
 s    1 1.00
                 0.122                   1
 p    1 1.00
                 0.727                   1

4 0
 s    8 1.00
                 11720  0.00070964594651845
                  1759  0.0054672722921914
                 400.8   0.027823118610189
                 113.7    0.10474773971146
                 37.03    0.28292084635691
                 13.27    0.44849523869833
                 5.025    0.27081688521277
                 1.013    0.01545029160744
 s    8 1.00
                 11720  -0.00031444341168873
                  1759  -0.0024821376810179
                 400.8  -0.012316355381583
                 113.7  -0.050538917343672
                 37.03   -0.13938490331632
                 13.27   -0.32507749481778
                 5.025   -0.22984830758785
                 1.013     1.0953793467883
 s    1 1.00
                0.3023                   1
 p    3 1.00
                  17.7   0.062679166281506
                 3.854    0.33353656587936
                 1.046    0.74123964163973
 p    1 1.00
                0.2753                   1
 d    1 1.00
                 1.185                   1

5 0
 s    8 1.00
                  6665  0.00069158396281299
                  1000  0.0053257961529341
                   228   0.027060721042034
                 64.71    0.10165684614077
                 21.06     0.2745748236174
                 7.495    0.44829431892377
                 2.797    0.28490261071525
                0.5215   0.015194859206082
 s    8 1.00
                  6665  -0.00029326965268655
                  1000  -0.0023180354739745
                   228  -0.011499786038565
                 64.71  -0.046826727009787
                 21.06   -0.12846616875047
                 7.495   -0.30126627246289
                 2.797   -0.25563070233011
                0.5215      1.093793361012
 s    1 1.00
                0.1596                   1
 p    3 1.00
                 9.439   0.056979251590039
                 2.002    0.31320721150073
                0.5456    0.76037674173753
 p    1 1.00
                0.1517                   1
 d    1 1.00
                  0.55                   1

6 0
 s    8 1.00
                  6665  0.00069158396281299
                  1000  0.0053257961529341
                   228   0.027060721042034
                 64.71    0.10165684614077
                 21.06     0.2745748236174
                 7.495    0.44829431892377
                 2.797    0.28490261071525
                0.5215   0.015194859206082
 s    8 1.00
                  6665  -0.00029326965268655
                  1000  -0.0023180354739745
                   228  -0.011499786038565
                 64.71  -0.046826727009787
                 21.06   -0.12846616875047
                 7.495   -0.30126627246289
                 2.797   -0.25563070233011
                0.5215      1.093793361012
 s    1 1.00
                0.1596                   1
 p    3 1.00
                 9.439   0.056979251590039
                 2.002    0.31320721150073
                0.5456    0.76037674173753
 p    1 1.00
                0.1517                   1
 d    1 1.00
                  0.55                   1

7 0
 s    8 1.00
                  6665  0.00069158396281299
                  1000  0.0053257961529341
                   228   0.027060721042034
                 64.71    0.10165684614077
                 21.06     0.2745748236174
                 7.495    0.44829431892377
                 2.797    0.28490261071525
                0.5215   0.015194859206082
 s    8 1.00
                  6665  -0.00029326965268655
                  1000  -0.0023180354739745
                   228  -0.011499786038565
                 64.71  -0.046826727009787
                 21.06   -0.12846616875047
                 7.495   -0.30126627246289
                 2.797   -0.25563070233011
                0.5215      1.093793361012
 s    1 1.00
                0.1596                   1
 p    3 1.00
                 9.439   0.056979251590039
                 2.002    0.31320721150073
                0.5456    0.76037674173753
 p    1 1.00
                0.1517                   1
 d    1 1.00
                  0.55                   1

8 0
 s    3 1.00
                 13.01   0.033498726389998
                 1.962    0.23480080117413
                0.4446     0.8136829578829
 s    1 1.00
                 0.122                   1
 p    1 1.00
                 0.727                   1

9 0
 s    8 1.00
                  6665  0.00069158396281299
                  1000  0.0053257961529341
                   228   0.027060721042034
                 64.71    0.10165684614077
                 21.06     0.2745748236174
                 7.495    0.44829431892377
                 2.797    0.28490261071525
                0.5215   0.015194859206082
 s    8 1.00
                  6665  -0.00029326965268655
                  1000  -0.0023180354739745
                   228  -0.011499786038565
                 64.71  -0.046826727009787
                 21.06   -0.12846616875047
                 7.495   -0.30126627246289
                 2.797   -0.25563070233011
                0.5215      1.093793361012
 s    1 1.00
                0.1596                   1
 p    3 1.00
                 9.439   0.056979251590039
                 2.002    0.31320721150073
                0.5456    0.76037674173753
 p    1 1.00
                0.1517                   1
 d    1 1.00
                  0.55                   1

10 0
 s    3 1.00
                 13.01   0.033498726389998
                 1.962    0.23480080117413
                0.4446     0.8136829578829
 s    1 1.00
                 0.122                   1
 p    1 1.00
                 0.727                   1

11 0
 s    3 1.00
                 13.01   0.033498726389998
                 1.962    0.23480080117413
                0.4446     0.8136829578829
 s    1 1.00
                 0.122                   1
 p    1 1.00
                 0.727                   1

12 0
 s    3 1.00
                 13.01   0.033498726389998
                 1.962    0.23480080117413
                0.4446     0.8136829578829
 s    1 1.00
                 0.122                   1
 p    1 1.00
                 0.727                   1

13 0
 s    8 1.00
                  6665  0.00069158396281299
                  1000  0.0053257961529341
                   228   0.027060721042034
                 64.71    0.10165684614077
                 21.06     0.2745748236174
                 7.495    0.44829431892377
                 2.797    0.28490261071525
                0.5215   0.015194859206082
 s    8 1.00
                  6665  -0.00029326965268655
                  1000  -0.0023180354739745
                   228  -0.011499786038565
                 64.71  -0.046826727009787
                 21.06   -0.12846616875047
                 7.495   -0.30126627246289
                 2.797   -0.25563070233011
                0.5215      1.093793361012
 s    1 1.00
                0.1596                   1
 p    3 1.00
                 9.439   0.056979251590039
                 2.002    0.31320721150073
                0.5456    0.76037674173753
 p    1 1.00
                0.1517                   1
 d    1 1.00
                  0.55                   1

14 0
 s    3 1.00
                 13.01   0.033498726389998
                 1.962    0.23480080117413
                0.4446     0.8136829578829
 s    1 1.00
                 0.122                   1
 p    1 1.00
                 0.727                   1

15 0
 s    3 1.00
                 13.01   0.033498726389998
                 1.962    0.23480080117413
                0.4446     0.8136829578829
 s    1 1.00
                 0.122                   1
 p    1 1.00
                 0.727                   1

16 0
 s    8 1.00
                  6665  0.00069158396281299
                  1000  0.0053257961529341
                   228   0.027060721042034
                 64.71    0.10165684614077
                 21.06     0.2745748236174
                 7.495    0.44829431892377
                 2.797    0.28490261071525
                0.5215   0.015194859206082
 s    8 1.00
                  6665  -0.00029326965268655
                  1000  -0.0023180354739745
                   228  -0.011499786038565
                 64.71  -0.046826727009787
                 21.06   -0.12846616875047
                 7.495   -0.30126627246289
                 2.797   -0.25563070233011
                0.5215      1.093793361012
 s    1 1.00
                0.1596                   1
 p    3 1.00
                 9.439   0.056979251590039
                 2.002    0.31320721150073
                0.5456    0.76037674173753
 p    1 1.00
                0.1517                   1
 d    1 1.00
                  0.55                   1

17 0
 s    3 1.00
                 13.01   0.033498726389998
                 1.962    0.23480080117413
                0.4446     0.8136829578829
 s    1 1.00
                 0.122                   1
 p    1 1.00
                 0.727                   1

18 0
 s    3 1.00
                 13.01   0.033498726389998
                 1.962    0.23480080117413
                0.4446     0.8136829578829
 s    1 1.00
                 0.122                   1
 p    1 1.00
                 0.727                   1

19 0
 s    8 1.00
                  6665  0.00069158396281299
                  1000  0.0053257961529341
                   228   0.027060721042034
                 64.71    0.10165684614077
                 21.06     0.2745748236174
                 7.495    0.44829431892377
                 2.797    0.28490261071525
                0.5215   0.015194859206082
 s    8 1.00
                  6665  -0.00029326965268655
                  1000  -0.0023180354739745
                   228  -0.011499786038565
                 64.71  -0.046826727009787
                 21.06   -0.12846616875047
                 7.495   -0.30126627246289
                 2.797   -0.25563070233011
                0.5215      1.093793361012
 s    1 1.00
                0.1596                   1
 p    3 1.00
                 9.439   0.056979251590039
                 2.002    0.31320721150073
                0.5456    0.76037674173753
 p    1 1.00
                0.1517                   1
 d    1 1.00
                  0.55                   1

20 0
 s    3 1.00
                 13.01   0.033498726389998
                 1.962    0.23480080117413
                0.4446     0.8136829578829
 s    1 1.00
                 0.122                   1
 p    1 1.00
                 0.727                   1

21 0
 s    8 1.00
                  6665  0.00069158396281299
                  1000  0.0053257961529341
                   228   0.027060721042034
                 64.71    0.10165684614077
                 21.06     0.2745748236174
                 7.495    0.44829431892377
                 2.797    0.28490261071525
                0.5215   0.015194859206082
 s    8 1.00
                  6665  -0.00029326965268655
                  1000  -0.0023180354739745
                   228  -0.011499786038565
                 64.71  -0.046826727009787
                 21.06   -0.12846616875047
                 7.495   -0.30126627246289
                 2.797   -0.25563070233011
                0.5215      1.093793361012
 s    1 1.00
                0.1596                   1
 p    3 1.00
                 9.439   0.056979251590039
                 2.002    0.31320721150073
                0.5456    0.76037674173753
 p    1 1.00
                0.1517                   1
 d    1 1.00
                  0.55                   1

22 0
 s    3 1.00
                 13.01   0.033498726389998
                 1.962    0.23480080117413
                0.4446     0.8136829578829
 s    1 1.00
                 0.122                   1
 p    1 1.00
                 0.727                   1

23 0
 s    3 1.00
                 13.01   0.033498726389998
                 1.962    0.23480080117413
                0.4446     0.8136829578829
 s    1 1.00
                 0.122                   1
 p    1 1.00
                 0.727                   1

24 0
 s    3 1.00
                 13.01   0.033498726389998
                 1.962    0.23480080117413
                0.4446     0.8136829578829
 s    1 1.00
                 0.122                   1
 p    1 1.00
                 0.727                   1

25 0
 s    8 1.00
                  6665  0.00069158396281299
                  1000  0.0053257961529341
                   228   0.027060721042034
                 64.71    0.10165684614077
                 21.06     0.2745748236174
                 7.495    0.44829431892377
                 2.797    0.28490261071525
                0.5215   0.015194859206082
 s    8 1.00
                  6665  -0.00029326965268655
                  1000  -0.0023180354739745
                   228  -0.011499786038565
                 64.71  -0.046826727009787
                 21.06   -0.12846616875047
                 7.495   -0.30126627246289
                 2.797   -0.25563070233011
                0.5215      1.093793361012
 s    1 1.00
                0.1596                   1
 p    3 1.00
                 9.439   0.056979251590039
                 2.002    0.31320721150073
                0.5456    0.76037674173753
 p    1 1.00
                0.1517                   1
 d    1 1.00
                  0.55                   1

26 0
 s    3 1.00
                 13.01   0.033498726389998
                 1.962    0.23480080117413
                0.4446     0.8136829578829
 s    1 1.00
                 0.122                   1
 p    1 1.00
                 0.727                   1

27 0
 s    3 1.00
                 13.01   0.033498726389998
                 1.962    0.23480080117413
                0.4446     0.8136829578829
 s    1 1.00
                 0.122                   1
 p    1 1.00
                 0.727                   1

28 0
 s    8 1.00
                  6665  0.00069158396281299
                  1000  0.0053257961529341
                   228   0.027060721042034
                 64.71    0.10165684614077
                 21.06     0.2745748236174
                 7.495    0.44829431892377
                 2.797    0.28490261071525
                0.5215   0.015194859206082
 s    8 1.00
                  6665  -0.00029326965268655
                  1000  -0.0023180354739745
                   228  -0.011499786038565
                 64.71  -0.046826727009787
                 21.06   -0.12846616875047
                 7.495   -0.30126627246289
                 2.797   -0.25563070233011
                0.5215      1.093793361012
 s    1 1.00
                0.1596                   1
 p    3 1.00
                 9.439   0.056979251590039
                 2.002    0.31320721150073
                0.5456    0.76037674173753
 p    1 1.00
                0.1517                   1
 d    1 1.00
                  0.55                   1

29 0
 s    3 1.00
                 13.01   0.033498726389998
                 1.962    0.23480080117413
                0.4446     0.8136829578829
 s    1 1.00
                 0.122                   1
 p    1 1.00
                 0.727                   1

30 0
 s    3 1.00
                 13.01   0.033498726389998
                 1.962    0.23480080117413
                0.4446     0.8136829578829
 s    1 1.00
                 0.122                   1
 p    1 1.00
                 0.727                   1

31 0
 s    8 1.00
                  6665  0.00069158396281299
                  1000  0.0053257961529341
                   228   0.027060721042034
                 64.71    0.10165684614077
                 21.06     0.2745748236174
                 7.495    0.44829431892377
                 2.797    0.28490261071525
                0.5215   0.015194859206082
 s    8 1.00
                  6665  -0.00029326965268655
                  1000  -0.0023180354739745
                   228  -0.011499786038565
                 64.71  -0.046826727009787
                 21.06   -0.12846616875047
                 7.495   -0.30126627246289
                 2.797   -0.25563070233011
                0.5215      1.093793361012
 s    1 1.00
                0.1596                   1
 p    3 1.00
                 9.439   0.056979251590039
                 2.002    0.31320721150073
                0.5456    0.76037674173753
 p    1 1.00
                0.1517                   1
 d    1 1.00
                  0.55                   1

32 0
 s    3 1.00
                 13.01   0.033498726389998
                 1.962    0.23480080117413
                0.4446     0.8136829578829
 s    1 1.00
                 0.122                   1
 p    1 1.00
                 0.727                   1

33 0
 s    3 1.00
                 13.01   0.033498726389998
                 1.962    0.23480080117413
                0.4446     0.8136829578829
 s    1 1.00
                 0.122                   1
 p    1 1.00
                 0.727                   1

34 0
 s    3 1.00
                 13.01   0.033498726389998
                 1.962    0.23480080117413
                0.4446     0.8136829578829
 s    1 1.00
                 0.122                   1
 p    1 1.00
                 0.727                   1

35 0
 s    3 1.00
                 13.01   0.033498726389998
                 1.962    0.23480080117413
                0.4446     0.8136829578829
 s    1 1.00
                 0.122                   1
 p    1 1.00
                 0.727                   1

36 0
 s    3 1.00
                 13.01   0.033498726389998
                 1.962    0.23480080117413
                0.4446     0.8136829578829
 s    1 1.00
                 0.122                   1
 p    1 1.00
                 0.727                   1

37 0
 s    3 1.00
                 13.01   0.033498726389998
                 1.962    0.23480080117413
                0.4446     0.8136829578829
 s    1 1.00
                 0.122                   1
 p    1 1.00
                 0.727                   1

[5d]
[7f]
[9g]

[MO]
 Sym= A
 Ene=               0
 Spin= Alpha
 Occup=    1.00000
   1    2.0656509323849e-06
   2    3.8712070790041e-06
   3    -1.6455262977176e-05
   4    2.9843826460573e-07
   5    -6.8778897033732e-07
   6    1.5362222745078e-08
   7    -4.0259555573731e-07
   8     1.15873503409e-06
   9    7.7522757399146e-06
  10    -9.0772334106512e-07
  11    -1.0532914292692e-07
  12    6.160288555333e-08
  13    9.5654744226022e-08
  14    -1.8867254803419e-08
  15    9.5433424256524e-07
  16    2.2573855234035e-05
  17    -6.7548291848248e-07
  18    3.6652048357042e-07
  19    3.4084781066192e-06
  20    1.343233912971e-07
  21    -1.8581941233284e-06
  22    4.7276279442858e-08
  23    -4.3916652305284e-07
  24    -3.8809618070521e-07
  25    -9.4094107885955e-06
  26    -2.0550062547883e-05
  27    0.00012772053015516
  28    -5.3124706851986e-06
  29    6.5079857977447e-06
  30    1.1536556050667e-06
  31    3.6847720212618e-05
  32    -8.2060531455224e-05
  33    -1.338639009461e-05
  34    3.9992186709182e-08
  35    -2.1658515303587e-06
  36    2.6683303546688e-06
  37    1.7544464527472e-06
  38    -3.084794523869e-07
  39    8.8630410362703e-06
  40    1.3203596431719e-05
  41    9.5196238137819e-05
  42    3.0187669298621e-05
  43    -1.5904804850006e-05
  44    -1.9788143365703e-05
  45    -0.00052839307777258
  46    0.00060653238403019
  47    -0.0002481383818482
  48    -1.9045437490403e-06
  49    2.1029150113611e-05
  50    -2.6026603139323e-05
  51    1.5547654314209e-05
  52    -4.6643172740598e-06
  53    4.3570987135228e-05
  54    0.00011389404030862
  55    -0.00045194467852179
  56    5.6325430708741e-05
  57    1.5758380064022e-05
  58    -4.7434122754384e-05
  59    -0.00091241293376458
  60    -9.5752683487837e-06
  61    0.0007992703414691
  62    -1.7645929062054e-06
  63    1.125364718294e-05
  64    4.0715762220559e-05
  65    1.0343375878757e-05
  66    -3.5082400003277e-05
  67    -4.9305113504677e-06
  68    -5.4322166288372e-05
  69    -6.2318548581056e-05
  70    6.2611809236863e-05
  71    -1.2087747642008e-05
  72    -1.4702461927263e-05
  73    -0.0010283908276073
  74    0.00038839949120956
  75    -0.00014650739566813
  76    -1.8101521644943e-05
  77    -3.6780500595088e-05
  78    4.0381445584246e-05
  79    2.8604257137142e-05
  80    -1.7510179228846e-05
  81    2.9100898000416e-05
  82    3.2688565467113e-05
  83    1.6138531570161e-05
  84    -2.9862454815913e-06
  85    -2.2079886105423e-05
  86    2.0339140957066e-05
  87    0.00018127476905881
  88     0.002089856174728
  89    0.00040194554556454
  90    -0.00023582671164359
  91    -0.00026212563022563
  92    0.00037764306272383
  93    -0.0011721296019656
  94    -6.8857898020608e-05
  95    -1.9063092123343e-05
  96    -8.7268106741286e-05
  97    1.9927545389217e-05
  98    2.8344124384686e-05
  99    -3.7264137071862e-05
 100    1.1720931580448e-05
 101    -0.0001904224884904
 102    3.4738189017341e-05
 103    -1.9465054626981e-05
 104    -2.8452658717109e-05
 105    -5.2469062246698e-05
 106    1.8530215993871e-05
 107    2.8553346441364e-05
 108    -1.0171916707739e-05
 109    4.7861610820693e-06
 110    1.5636683042505e-05
 111    0.00039011372586198
 112    1.3237940426591e-05
 113    -3.5596600822858e-05
 114    2.3545004784926e-05
 115    -0.0001283943566045
 116    -0.00031685435974577
 117    -0.001072039390704
 118    0.00014309063652017
 119    -0.00010340221748983
 120    0.00011271880082699
 121    -0.0003256376658426
 122    -0.00022017424290335
 123    0.00050944379676438
 124    -7.2098768335861e-05
 125    0.00017099028858381
 126    -3.4173392551196e-05
 127    1.2494465451646e-05
 128    -0.00011867649142209
 129    -2.6862318505393e-05
 130    -2.3638791960268e-05
 131    3.257140319873e-05
 132     1.63897052193e-05
 133    -5.0109108576367e-05
 134    -1.6971746581641e-05
 135    -6.1364261625914e-05
 136    3.2445958331455e-05
 137    2.5666229875329e-05
 138    -9.7241747554881e-06
 139    0.00056150665950462
 140    0.0012627651219627
 141    -0.0065178125433259
 142    0.00049817653000039
 143    0.00073313819649634
 144    -0.00073771929640422
 145    -0.00052845079039199
 146    -0.00097945703318405
 147    0.0015440195196837
 148    -5.0666595591411e-05
 149    7.1127922565091e-06
 150    -4.2239816630941e-05
 151    -0.00017863557252907
 152    -1.2244439439417e-05
 153    4.027096683295e-05
 154    0.00022458471431622
 155    3.7812612315512e-05
 156    -1.266723919584e-05
 157    2.5715707416027e-05
 158    -0.00018831761722978
 159    -0.00023989909482985
 160    6.923204879238e-05
 161    -6.5788759251858e-05
 162    2.3540013838973e-05
 163    -0.037502659169169
 164      0.00784295195334
 165    0.0051676002329887
 166    -0.0052529247449524
 167    0.0033043156861093
 168    0.00020757128581941
 169    -0.0015375536348665
 170    0.0013468088976754
 171    0.00024988032476102
 172    -3.8448570869053e-05
 173    -0.00062817045586083
 174    0.00079898544009931
 175    0.00021250661494957
 176    -0.00079166040805258
 177    -9.6726767991521e-05
 178    -0.00054936892815585
 179    7.3022397230672e-05
 180    4.9976235383962e-06
 181    -1.6290294881074e-06
 182     -0.29766235738316
 183    -0.010624156555671
 184    -0.0022063579917287
 185    -0.0055888310642297
 186    -0.0059498264101396
 187     0.006047907263077
 188    -0.0040342979331909
 189    -0.0025574341877059
 190    0.0041176890205173
 191    -0.00051509735231991
 192    0.00043267057071005
 193    0.00081149512483053
 194    -0.0016154369381926
 195    -0.0010341832236954
 196    0.00027707871727459
 197    0.00039088573259655
 198    6.4571600587357e-05
 199    1.2155076563287e-05
 200    -9.2804094996607e-05
 201    0.0045245788654141
 202    0.0017748312118832
 203    0.00012460412175469
 204    0.00036608792608287
 205    0.00037566418144775
 206    0.0029782071676764
 207    -0.0014035864236118
 208    -0.0002558842334531
 209    -0.00049733023698844
 210    0.00016305750546751
 211      0.10197481875853
 212     0.023321134855298
 213     0.014944058690069
 214     0.002111966592113
 215     0.013003189301975
 216    -0.0018859599968701
 217    0.00016996830441295
 218    0.0068765471316627
 219    -0.0014621530055713
 220    0.00068534444566756
 221    0.00061626479034954
 222    0.00084408894322085
 223    0.00064931693786131
 224    -0.00017457540621358
 225    -0.0046195009510688
 226    0.0024209159710647
 227    0.00023569300292268
 228    0.0005548145325413
 229    0.00043159426574435
 230    -0.0058729415463255
 231    -0.00081348241666088
 232    -0.00050294072158963
 233    0.00024399764164696
 234    -0.00029793077052517
 235     -0.84729685708197
 236    0.0085675224213084
 237     0.014500221753296
 238    -0.013501965526295
 239    -0.055226729512555
 240    0.0077195982298772
 241    -0.0066646083510993
 242    -0.025994217280657
 243    0.0038923478934343
 244    -0.00013776005959139
 245    0.0025687329910976
 246    0.0022619418328262
 247    -0.00048383220591871
 248    0.00034217556316807
 249     0.018648964019159
 250    0.0061820001497256
 251    -0.00067845769934432
 252    -0.00069022095588959
 253    -0.0014955499526354
 254    -0.00074219204962161
 255    -0.0044466208941357
 256    0.00025465395149406
 257    0.0007540925109268
 258    -0.00012194476443131
 259      0.40054446087964
 260    -0.0031795789534698
 261    -0.0071325904378462
 262     0.010471231341701
 263    -0.021894897425832
 264    0.0024828284642296