[Molden Format]
made by pyscf v[2.0.1]
[Atoms] (AU)
O   1   8     0.00000000000000     0.00000000000000    10.94175058546756
H   2   1     0.00000000000000     0.00000000000000     9.11834876356659
H   3   1    -0.05031916615174     1.78353065140343    11.31762228193423
O   4   8     0.00000000000000     0.00000000000000     2.31533471513237
C   5   6     0.00000000000000     0.00000000000000     0.00000000000000
C   6   6     2.01118073026938    -1.40227222164369    -1.50774939176400
C   7   6    -2.01249334291722     1.41331050329955    -1.50315905028694
H   8   1     3.32037363730244    -2.26721897153159    -0.13599698591495
C   9   6     3.45899267434009     0.28739631745591    -3.37437943254505
H   10   1     1.07662969841332    -2.94725144642667    -2.56541439481080
H   11   1    -2.67503415753480     0.18421555839588    -3.06194479365997
H   12   1    -1.07974048864772     3.03851734677796    -2.43674295017013
C   13   6    -4.21607110578555     2.32938802552922     0.11994162256091
H   14   1     4.24440173074564     1.93368664142019    -2.34976285512790
H   15   1     2.15020713235517     1.04714335134846    -4.81494497423699
C   16   6     5.60746363007797    -1.12419643481196    -4.70268606082550
H   17   1    -3.46838323670267     3.50951302338067     1.66946842715333
H   18   1    -5.11873485366228     0.68575958301209     1.04047743976495
C   19   6    -6.18314754751344     3.80909592987882    -1.39656589068747
H   20   1     6.93011263717176    -1.87550812453645    -3.26656317360070
C   21   6     7.06356622236532     0.52877932406334    -6.57829775293605
H   22   1     4.82318879258361    -2.78573437948532    -5.70504560381835
H   23   1    -6.91582688743803     2.61304780074712    -2.95074552451969
H   24   1    -5.26532430573853     5.45420349051338    -2.31005832200284
C   25   6    -8.39941882261433     4.73263980500213     0.21800571437956
H   26   1     7.83338371486801     2.19084139882824    -5.57093109900697
H   27   1     5.73544244039420     1.27376866537418    -8.01071492370229
C   28   6     9.21124858443101    -0.89699110072176    -7.88926949186242
H   29   1    -7.66272760055236     5.92277078003992     1.77035591474408
H   30   1    -9.31497248082589     3.08753015622020     1.12614408368786
C   31   6   -10.35481709231879     6.21833079391143    -1.30905206253246
H   32   1    10.58815905329501    -1.61074586756696    -6.49512691622620
H   33   1    10.23506248045667     0.32468009384095    -9.23072870921204
H   34   1     8.47665842847139    -2.53598436989925    -8.94921964622535
H   35   1    -9.48948872868064     7.90013588951020    -2.18823918416067
H   36   1   -11.93332513000955     6.86460487874102    -0.11255798845995
H   37   1   -11.15126291841033     5.04495968327630    -2.83849898862534
[GTO]
1 0
 s    8 1.00
                 11720  0.00070964594651845
                  1759  0.0054672722921914
                 400.8   0.027823118610189
                 113.7    0.10474773971146
                 37.03    0.28292084635691
                 13.27    0.44849523869833
                 5.025    0.27081688521277
                 1.013    0.01545029160744
 s    8 1.00
                 11720  -0.00031444341168873
                  1759  -0.0024821376810179
                 400.8  -0.012316355381583
                 113.7  -0.050538917343672
                 37.03   -0.13938490331632
                 13.27   -0.32507749481778
                 5.025   -0.22984830758785
                 1.013     1.0953793467883
 s    1 1.00
                0.3023                   1
 p    3 1.00
                  17.7   0.062679166281506
                 3.854    0.33353656587936
                 1.046    0.74123964163973
 p    1 1.00
                0.2753                   1
 d    1 1.00
                 1.185                   1

2 0
 s    3 1.00
                 13.01   0.033498726389998
                 1.962    0.23480080117413
                0.4446     0.8136829578829
 s    1 1.00
                 0.122                   1
 p    1 1.00
                 0.727                   1

3 0
 s    3 1.00
                 13.01   0.033498726389998
                 1.962    0.23480080117413
                0.4446     0.8136829578829
 s    1 1.00
                 0.122                   1
 p    1 1.00
                 0.727                   1

4 0
 s    8 1.00
                 11720  0.00070964594651845
                  1759  0.0054672722921914
                 400.8   0.027823118610189
                 113.7    0.10474773971146
                 37.03    0.28292084635691
                 13.27    0.44849523869833
                 5.025    0.27081688521277
                 1.013    0.01545029160744
 s    8 1.00
                 11720  -0.00031444341168873
                  1759  -0.0024821376810179
                 400.8  -0.012316355381583
                 113.7  -0.050538917343672
                 37.03   -0.13938490331632
                 13.27   -0.32507749481778
                 5.025   -0.22984830758785
                 1.013     1.0953793467883
 s    1 1.00
                0.3023                   1
 p    3 1.00
                  17.7   0.062679166281506
                 3.854    0.33353656587936
                 1.046    0.74123964163973
 p    1 1.00
                0.2753                   1
 d    1 1.00
                 1.185                   1

5 0
 s    8 1.00
                  6665  0.00069158396281299
                  1000  0.0053257961529341
                   228   0.027060721042034
                 64.71    0.10165684614077
                 21.06     0.2745748236174
                 7.495    0.44829431892377
                 2.797    0.28490261071525
                0.5215   0.015194859206082
 s    8 1.00
                  6665  -0.00029326965268655
                  1000  -0.0023180354739745
                   228  -0.011499786038565
                 64.71  -0.046826727009787
                 21.06   -0.12846616875047
                 7.495   -0.30126627246289
                 2.797   -0.25563070233011
                0.5215      1.093793361012
 s    1 1.00
                0.1596                   1
 p    3 1.00
                 9.439   0.056979251590039
                 2.002    0.31320721150073
                0.5456    0.76037674173753
 p    1 1.00
                0.1517                   1
 d    1 1.00
                  0.55                   1

6 0
 s    8 1.00
                  6665  0.00069158396281299
                  1000  0.0053257961529341
                   228   0.027060721042034
                 64.71    0.10165684614077
                 21.06     0.2745748236174
                 7.495    0.44829431892377
                 2.797    0.28490261071525
                0.5215   0.015194859206082
 s    8 1.00
                  6665  -0.00029326965268655
                  1000  -0.0023180354739745
                   228  -0.011499786038565
                 64.71  -0.046826727009787
                 21.06   -0.12846616875047
                 7.495   -0.30126627246289
                 2.797   -0.25563070233011
                0.5215      1.093793361012
 s    1 1.00
                0.1596                   1
 p    3 1.00
                 9.439   0.056979251590039
                 2.002    0.31320721150073
                0.5456    0.76037674173753
 p    1 1.00
                0.1517                   1
 d    1 1.00
                  0.55                   1

7 0
 s    8 1.00
                  6665  0.00069158396281299
                  1000  0.0053257961529341
                   228   0.027060721042034
                 64.71    0.10165684614077
                 21.06     0.2745748236174
                 7.495    0.44829431892377
                 2.797    0.28490261071525
                0.5215   0.015194859206082
 s    8 1.00
                  6665  -0.00029326965268655
                  1000  -0.0023180354739745
                   228  -0.011499786038565
                 64.71  -0.046826727009787
                 21.06   -0.12846616875047
                 7.495   -0.30126627246289
                 2.797   -0.25563070233011
                0.5215      1.093793361012
 s    1 1.00
                0.1596                   1
 p    3 1.00
                 9.439   0.056979251590039
                 2.002    0.31320721150073
                0.5456    0.76037674173753
 p    1 1.00
                0.1517                   1
 d    1 1.00
                  0.55                   1

8 0
 s    3 1.00
                 13.01   0.033498726389998
                 1.962    0.23480080117413
                0.4446     0.8136829578829
 s    1 1.00
                 0.122                   1
 p    1 1.00
                 0.727                   1

9 0
 s    8 1.00
                  6665  0.00069158396281299
                  1000  0.0053257961529341
                   228   0.027060721042034
                 64.71    0.10165684614077
                 21.06     0.2745748236174
                 7.495    0.44829431892377
                 2.797    0.28490261071525
                0.5215   0.015194859206082
 s    8 1.00
                  6665  -0.00029326965268655
                  1000  -0.0023180354739745
                   228  -0.011499786038565
                 64.71  -0.046826727009787
                 21.06   -0.12846616875047
                 7.495   -0.30126627246289
                 2.797   -0.25563070233011
                0.5215      1.093793361012
 s    1 1.00
                0.1596                   1
 p    3 1.00
                 9.439   0.056979251590039
                 2.002    0.31320721150073
                0.5456    0.76037674173753
 p    1 1.00
                0.1517                   1
 d    1 1.00
                  0.55                   1

10 0
 s    3 1.00
                 13.01   0.033498726389998
                 1.962    0.23480080117413
                0.4446     0.8136829578829
 s    1 1.00
                 0.122                   1
 p    1 1.00
                 0.727                   1

11 0
 s    3 1.00
                 13.01   0.033498726389998
                 1.962    0.23480080117413
                0.4446     0.8136829578829
 s    1 1.00
                 0.122                   1
 p    1 1.00
                 0.727                   1

12 0
 s    3 1.00
                 13.01   0.033498726389998
                 1.962    0.23480080117413
                0.4446     0.8136829578829
 s    1 1.00
                 0.122                   1
 p    1 1.00
                 0.727                   1

13 0
 s    8 1.00
                  6665  0.00069158396281299
                  1000  0.0053257961529341
                   228   0.027060721042034
                 64.71    0.10165684614077
                 21.06     0.2745748236174
                 7.495    0.44829431892377
                 2.797    0.28490261071525
                0.5215   0.015194859206082
 s    8 1.00
                  6665  -0.00029326965268655
                  1000  -0.0023180354739745
                   228  -0.011499786038565
                 64.71  -0.046826727009787
                 21.06   -0.12846616875047
                 7.495   -0.30126627246289
                 2.797   -0.25563070233011
                0.5215      1.093793361012
 s    1 1.00
                0.1596                   1
 p    3 1.00
                 9.439   0.056979251590039
                 2.002    0.31320721150073
                0.5456    0.76037674173753
 p    1 1.00
                0.1517                   1
 d    1 1.00
                  0.55                   1

14 0
 s    3 1.00
                 13.01   0.033498726389998
                 1.962    0.23480080117413
                0.4446     0.8136829578829
 s    1 1.00
                 0.122                   1
 p    1 1.00
                 0.727                   1

15 0
 s    3 1.00
                 13.01   0.033498726389998
                 1.962    0.23480080117413
                0.4446     0.8136829578829
 s    1 1.00
                 0.122                   1
 p    1 1.00
                 0.727                   1

16 0
 s    8 1.00
                  6665  0.00069158396281299
                  1000  0.0053257961529341
                   228   0.027060721042034
                 64.71    0.10165684614077
                 21.06     0.2745748236174
                 7.495    0.44829431892377
                 2.797    0.28490261071525
                0.5215   0.015194859206082
 s    8 1.00
                  6665  -0.00029326965268655
                  1000  -0.0023180354739745
                   228  -0.011499786038565
                 64.71  -0.046826727009787
                 21.06   -0.12846616875047
                 7.495   -0.30126627246289
                 2.797   -0.25563070233011
                0.5215      1.093793361012
 s    1 1.00
                0.1596                   1
 p    3 1.00
                 9.439   0.056979251590039
                 2.002    0.31320721150073
                0.5456    0.76037674173753
 p    1 1.00
                0.1517                   1
 d    1 1.00
                  0.55                   1

17 0
 s    3 1.00
                 13.01   0.033498726389998
                 1.962    0.23480080117413
                0.4446     0.8136829578829
 s    1 1.00
                 0.122                   1
 p    1 1.00
                 0.727                   1

18 0
 s    3 1.00
                 13.01   0.033498726389998
                 1.962    0.23480080117413
                0.4446     0.8136829578829
 s    1 1.00
                 0.122                   1
 p    1 1.00
                 0.727                   1

19 0
 s    8 1.00
                  6665  0.00069158396281299
                  1000  0.0053257961529341
                   228   0.027060721042034
                 64.71    0.10165684614077
                 21.06     0.2745748236174
                 7.495    0.44829431892377
                 2.797    0.28490261071525
                0.5215   0.015194859206082
 s    8 1.00
                  6665  -0.00029326965268655
                  1000  -0.0023180354739745
                   228  -0.011499786038565
                 64.71  -0.046826727009787
                 21.06   -0.12846616875047
                 7.495   -0.30126627246289
                 2.797   -0.25563070233011
                0.5215      1.093793361012
 s    1 1.00
                0.1596                   1
 p    3 1.00
                 9.439   0.056979251590039
                 2.002    0.31320721150073
                0.5456    0.76037674173753
 p    1 1.00
                0.1517                   1
 d    1 1.00
                  0.55                   1

20 0
 s    3 1.00
                 13.01   0.033498726389998
                 1.962    0.23480080117413
                0.4446     0.8136829578829
 s    1 1.00
                 0.122                   1
 p    1 1.00
                 0.727                   1

21 0
 s    8 1.00
                  6665  0.00069158396281299
                  1000  0.0053257961529341
                   228   0.027060721042034
                 64.71    0.10165684614077
                 21.06     0.2745748236174
                 7.495    0.44829431892377
                 2.797    0.28490261071525
                0.5215   0.015194859206082
 s    8 1.00
                  6665  -0.00029326965268655
                  1000  -0.0023180354739745
                   228  -0.011499786038565
                 64.71  -0.046826727009787
                 21.06   -0.12846616875047
                 7.495   -0.30126627246289
                 2.797   -0.25563070233011
                0.5215      1.093793361012
 s    1 1.00
                0.1596                   1
 p    3 1.00
                 9.439   0.056979251590039
                 2.002    0.31320721150073
                0.5456    0.76037674173753
 p    1 1.00
                0.1517                   1
 d    1 1.00
                  0.55                   1

22 0
 s    3 1.00
                 13.01   0.033498726389998
                 1.962    0.23480080117413
                0.4446     0.8136829578829
 s    1 1.00
                 0.122                   1
 p    1 1.00
                 0.727                   1

23 0
 s    3 1.00
                 13.01   0.033498726389998
                 1.962    0.23480080117413
                0.4446     0.8136829578829
 s    1 1.00
                 0.122                   1
 p    1 1.00
                 0.727                   1

24 0
 s    3 1.00
                 13.01   0.033498726389998
                 1.962    0.23480080117413
                0.4446     0.8136829578829
 s    1 1.00
                 0.122                   1
 p    1 1.00
                 0.727                   1

25 0
 s    8 1.00
                  6665  0.00069158396281299
                  1000  0.0053257961529341
                   228   0.027060721042034
                 64.71    0.10165684614077
                 21.06     0.2745748236174
                 7.495    0.44829431892377
                 2.797    0.28490261071525
                0.5215   0.015194859206082
 s    8 1.00
                  6665  -0.00029326965268655
                  1000  -0.0023180354739745
                   228  -0.011499786038565
                 64.71  -0.046826727009787
                 21.06   -0.12846616875047
                 7.495   -0.30126627246289
                 2.797   -0.25563070233011
                0.5215      1.093793361012
 s    1 1.00
                0.1596                   1
 p    3 1.00
                 9.439   0.056979251590039
                 2.002    0.31320721150073
                0.5456    0.76037674173753
 p    1 1.00
                0.1517                   1
 d    1 1.00
                  0.55                   1

26 0
 s    3 1.00
                 13.01   0.033498726389998
                 1.962    0.23480080117413
                0.4446     0.8136829578829
 s    1 1.00
                 0.122                   1
 p    1 1.00
                 0.727                   1

27 0
 s    3 1.00
                 13.01   0.033498726389998
                 1.962    0.23480080117413
                0.4446     0.8136829578829
 s    1 1.00
                 0.122                   1
 p    1 1.00
                 0.727                   1

28 0
 s    8 1.00
                  6665  0.00069158396281299
                  1000  0.0053257961529341
                   228   0.027060721042034
                 64.71    0.10165684614077
                 21.06     0.2745748236174
                 7.495    0.44829431892377
                 2.797    0.28490261071525
                0.5215   0.015194859206082
 s    8 1.00
                  6665  -0.00029326965268655
                  1000  -0.0023180354739745
                   228  -0.011499786038565
                 64.71  -0.046826727009787
                 21.06   -0.12846616875047
                 7.495   -0.30126627246289
                 2.797   -0.25563070233011
                0.5215      1.093793361012
 s    1 1.00
                0.1596                   1
 p    3 1.00
                 9.439   0.056979251590039
                 2.002    0.31320721150073
                0.5456    0.76037674173753
 p    1 1.00
                0.1517                   1
 d    1 1.00
                  0.55                   1

29 0
 s    3 1.00
                 13.01   0.033498726389998
                 1.962    0.23480080117413
                0.4446     0.8136829578829
 s    1 1.00
                 0.122                   1
 p    1 1.00
                 0.727                   1

30 0
 s    3 1.00
                 13.01   0.033498726389998
                 1.962    0.23480080117413
                0.4446     0.8136829578829
 s    1 1.00
                 0.122                   1
 p    1 1.00
                 0.727                   1

31 0
 s    8 1.00
                  6665  0.00069158396281299
                  1000  0.0053257961529341
                   228   0.027060721042034
                 64.71    0.10165684614077
                 21.06     0.2745748236174
                 7.495    0.44829431892377
                 2.797    0.28490261071525
                0.5215   0.015194859206082
 s    8 1.00
                  6665  -0.00029326965268655
                  1000  -0.0023180354739745
                   228  -0.011499786038565
                 64.71  -0.046826727009787
                 21.06   -0.12846616875047
                 7.495   -0.30126627246289
                 2.797   -0.25563070233011
                0.5215      1.093793361012
 s    1 1.00
                0.1596                   1
 p    3 1.00
                 9.439   0.056979251590039
                 2.002    0.31320721150073
                0.5456    0.76037674173753
 p    1 1.00
                0.1517                   1
 d    1 1.00
                  0.55                   1

32 0
 s    3 1.00
                 13.01   0.033498726389998
                 1.962    0.23480080117413
                0.4446     0.8136829578829
 s    1 1.00
                 0.122                   1
 p    1 1.00
                 0.727                   1

33 0
 s    3 1.00
                 13.01   0.033498726389998
                 1.962    0.23480080117413
                0.4446     0.8136829578829
 s    1 1.00
                 0.122                   1
 p    1 1.00
                 0.727                   1

34 0
 s    3 1.00
                 13.01   0.033498726389998
                 1.962    0.23480080117413
                0.4446     0.8136829578829
 s    1 1.00
                 0.122                   1
 p    1 1.00
                 0.727                   1

35 0
 s    3 1.00
                 13.01   0.033498726389998
                 1.962    0.23480080117413
                0.4446     0.8136829578829
 s    1 1.00
                 0.122                   1
 p    1 1.00
                 0.727                   1

36 0
 s    3 1.00
                 13.01   0.033498726389998
                 1.962    0.23480080117413
                0.4446     0.8136829578829
 s    1 1.00
                 0.122                   1
 p    1 1.00
                 0.727                   1

37 0
 s    3 1.00
                 13.01   0.033498726389998
                 1.962    0.23480080117413
                0.4446     0.8136829578829
 s    1 1.00
                 0.122                   1
 p    1 1.00
                 0.727                   1

[5d]
[7f]
[9g]

[MO]
 Sym= A
 Ene=               0
 Spin= Alpha
 Occup=    1.00000
   1    9.0778893505619e-08
   2    7.1025037772472e-08
   3    -2.6712380095457e-08
   4    4.2808590202472e-09
   5    -7.9038705558049e-08
   6    -3.1787630674706e-08
   7    2.0868349385644e-09
   8    5.6219574659973e-08
   9    9.4369992332956e-08
  10    -1.3716574594483e-07
  11    8.0054694254658e-11
  12    1.0633526465964e-08
  13    -1.2907468840174e-08
  14    -6.0655255090734e-10
  15    3.0393794883536e-08
  16    -9.9391017531985e-07
  17    5.1967729466619e-09
  18    -2.6164521733742e-08
  19    3.6962335453358e-07
  20    -2.7283286223603e-08
  21    4.8913115977852e-08
  22    -3.1122421385581e-09
  23    1.0191990757303e-07
  24    2.4993462351647e-09
  25    -8.7629171628253e-06
  26    6.8491239397419e-06
  27    0.00011774509438733
  28    -3.5320691077397e-06
  29      -8.014380387e-05
  30    -6.9268840431095e-05
  31    7.7989059754486e-05
  32    -0.00012958204111502
  33    -8.6157711235557e-05
  34    5.3348229868198e-06
  35    2.0407716863446e-06
  36    1.1530721035667e-06
  37    7.2282111487717e-07
  38    2.562391135291e-06
  39    0.00012057656119057
  40    6.7139276434361e-05
  41    -0.0007476564595165
  42    -9.8285486343587e-05
  43    0.00010855225549508
  44    5.486837218342e-05
  45    -0.00053899485984178
  46    0.00040057779170923
  47    0.00012833523493669
  48    1.1295402233025e-05
  49    2.121957284312e-05
  50    -3.4352679349261e-05
  51    1.1077078997726e-05
  52    2.9659354802709e-05
  53    -9.4377538926321e-05
  54    0.00025392087173578
  55    8.9651049467614e-05
  56    0.00027623319331032
  57    0.00034022030646586
  58    -0.0003393205826242
  59    -0.00053772933159983
  60    0.0002976537429408
  61    0.00048104793587278
  62    -1.9917622961365e-07
  63    -1.3976853111511e-05
  64    -4.3348589541834e-06
  65    -1.7578364473351e-05
  66    -6.7769460445149e-06
  67    7.6131470162435e-06
  68    3.568506462578e-05
  69    0.00012578599629769
  70    4.7358260767547e-05
  71    -4.9421110981714e-05
  72    2.9970141377401e-05
  73    -0.00022587472586293
  74    5.447499702446e-05
  75    3.6686630394647e-05
  76    3.5350039459063e-07
  77    -1.2442007355537e-05
  78    8.3242033048393e-06
  79    9.9424813601833e-06
  80    -4.0370779313323e-06
  81    -1.828667557579e-05
  82    -8.6203383449538e-06
  83    2.0732431212602e-05
  84    3.8579611649044e-07
  85    -2.9113078018177e-05
  86    0.00072648253133252
  87    0.0005114892153735
  88     0.000373745639083
  89    -0.00042784030426074
  90    0.00033797930725404
  91    0.00025078491197373
  92    -0.00051952524648804
  93    -0.00034431576711973
  94    0.00054416150585112
  95    7.0064201191153e-05
  96    1.8896891102697e-05
  97    -5.0288971969179e-05
  98    3.8245549565955e-05
  99    0.00013276800712697
 100    -4.3600548019053e-05
 101    -2.1514893608565e-05
 102    4.1451363275148e-05
 103    -2.0238795685394e-06
 104    -2.9692981858608e-05
 105    1.796875440748e-05
 106    -5.7381881049839e-05
 107    1.1586053465686e-05
 108    -6.7789874870718e-06
 109    -4.4786467640167e-06
 110    9.2438704049876e-06
 111    -0.00010983325973966
 112    5.9935478413011e-06
 113    2.366804672886e-06
 114    5.7287810487932e-07
 115    2.7270022889854e-05
 116    3.7591020412841e-05
 117    -0.00021046223718228
 118    -1.3741643311298e-05
 119    6.276893330409e-06
 120    8.6500707320472e-06
 121    -0.00018820452322878
 122    0.0001471757764805
 123    4.7253772365922e-05
 124    -9.5993888388142e-07
 125    1.2616251305563e-05
 126    -6.2318834674952e-06
 127    -6.0656143895341e-06
 128    6.7907961946421e-06
 129    0.00030737757628342
 130    0.00016205623498791
 131    1.3111721746896e-05
 132    -7.7077131439941e-06
 133    -7.695469530789e-05
 134    0.00029367714518765
 135    0.00022072952535586
 136    7.3317339287726e-05
 137    1.8012935470967e-05
 138    9.4919567697944e-06
 139    -0.0028142570076851
 140    -0.0021591985588323
 141    -0.0043993898236549
 142    0.00012363679358014
 143    0.0024273728957006
 144    -0.001015376619111
 145    -0.00093176376633416
 146    0.00023440493053766
 147    0.00075559288247541
 148    6.2202990365705e-06
 149    -0.0002194730603553
 150    -0.00017806076849338
 151    -3.2156109697565e-05
 152    8.5501895965661e-05
 153    1.1114506434333e-05
 154    -3.3202798684654e-05
 155    3.2194349236849e-06
 156    -2.7897727018477e-06
 157    1.5024773833071e-06
 158    1.4098262190078e-05
 159    1.3974070019628e-05
 160    6.2110887771275e-06
 161    -2.8633862069632e-06
 162    -1.1209029605044e-06
 163    -0.00032825009305324
 164    1.8525360322546e-05
 165    -6.8831209655141e-05
 166    1.2370107998313e-05
 167    -8.8432966230446e-06
 168    8.4462160481707e-06
 169    -3.8959023046651e-05
 170     1.04792047098e-05
 171    6.6359757295628e-06
 172    5.3856640082809e-07
 173    -1.0652968529704e-06
 174    -8.0290884484761e-07
 175    -1.6543280608089e-06
 176    -6.7661918345626e-08
 177    -0.0023974898354088
 178    -0.00089837054054237
 179    0.00017862722043401
 180    -7.004132624417e-05
 181    0.00020943642959108
 182     -0.99838794882928
 183    -0.0045800652137982
 184     0.012338653607546
 185    -0.00047416142538412
 186    -0.00061799481135497
 187    0.00064657300714324
 188    -0.00043477659867246
 189    -0.0015860310713523
 190    0.00095230875746497
 191    2.3708956545186e-06
 192    -0.00035244967229781
 193    -5.6106605470904e-05
 194    0.0001039121133354
 195    -2.6627259771429e-05
 196    -0.002395264985811
 197    -0.00087976766723165
 198    -0.00013110340616101
 199    -0.00020076122793671
 200    -0.00014766999589084
 201    4.5785339973811e-06
 202    5.6938690104554e-06
 203    2.7121061790889e-06
 204    4.5513578825745e-07
 205    1.2166427083421e-06
 206    2.0697316263858e-06
 207    2.5366767506424e-05
 208    1.1475046242529e-06
 209    -3.7067903625824e-06
 210    7.4226263041362e-07
 211    0.00045517567060176
 212    6.2893962861071e-06
 213    -9.7858630873733e-06
 214    -1.4268804164797e-06
 215    -2.5001927390078e-07
 216    3.1702687903617e-06
 217    -6.7288133101742e-05
 218    3.7800193919324e-05
 219    -2.0599232061357e-05
 220    2.4916537004315e-07
 221    1.8263068536672e-06
 222    -2.1063428683931e-06
 223    -8.1693528661335e-07
 224    6.5770095999961e-07
 225    -0.0002300847481591
 226    -0.0013931574273516
 227    -0.00020916896405622
 228    -0.00032127475523741
 229    -0.00025053599970053
 230    -0.00022655191941792
 231    -0.0014250620465736
 232    0.00029671199268408
 233    -0.00010101461580301
 234    0.00033480969289303
 235    -0.090764691155872
 236    -0.00033117394849976
 237    -0.0017004808412188
 238    0.00011756541367485
 239    -0.00019007490971859
 240    -2.8959878477615e-05
 241    0.00080298758872242
 242    -0.00056789130242964
 243    -0.00048118762183249
 244    -4.1769767724025e-05
 245    -0.0001397411810925
 246    0.00010067590212256
 247    7.3805128673106e-05
 248    -0.00015142852066144
 249    4.2171356117425e-06
 250    4.0700097709835e-06
 251    2.0203110377227e-06
 252    -2.0274256657705e-06
 253    1.214982017824e-06
 254    3.4577961819117e-06
 255    -4.6045948734771e-06
 256    1.8925147683716e-06
 257    -1.6709187342206e-06
 258    2.2295233578338e-06
 259    0.00012340422494206
 260    8.4739041924955e-06
 261    -5.2231786473906e-05
 262    1.885600551868e-06
 263    -9.9177397166099e-07