[Molden Format]
made by pyscf v[2.0.1]
[Atoms] (AU)
O   1   8     0.00000000000000     0.00000000000000    10.18586013564153
H   2   1     0.00000000000000     0.00000000000000     8.36245831374057
H   3   1    -0.05031916615174     1.78353065140343    10.56173183210820
O   4   8     0.00000000000000     0.00000000000000     2.31533471513237
C   5   6     0.00000000000000     0.00000000000000     0.00000000000000
C   6   6     2.01118073026938    -1.40227222164369    -1.50774939176400
C   7   6    -2.01249334291722     1.41331050329955    -1.50315905028694
H   8   1     3.32037363730244    -2.26721897153159    -0.13599698591495
C   9   6     3.45899267434009     0.28739631745591    -3.37437943254505
H   10   1     1.07662969841332    -2.94725144642667    -2.56541439481080
H   11   1    -2.67503415753480     0.18421555839588    -3.06194479365997
H   12   1    -1.07974048864772     3.03851734677796    -2.43674295017013
C   13   6    -4.21607110578555     2.32938802552922     0.11994162256091
H   14   1     4.24440173074564     1.93368664142019    -2.34976285512790
H   15   1     2.15020713235517     1.04714335134846    -4.81494497423699
C   16   6     5.60746363007797    -1.12419643481196    -4.70268606082550
H   17   1    -3.46838323670267     3.50951302338067     1.66946842715333
H   18   1    -5.11873485366228     0.68575958301209     1.04047743976495
C   19   6    -6.18314754751344     3.80909592987882    -1.39656589068747
H   20   1     6.93011263717176    -1.87550812453645    -3.26656317360070
C   21   6     7.06356622236532     0.52877932406334    -6.57829775293605
H   22   1     4.82318879258361    -2.78573437948532    -5.70504560381835
H   23   1    -6.91582688743803     2.61304780074712    -2.95074552451969
H   24   1    -5.26532430573853     5.45420349051338    -2.31005832200284
C   25   6    -8.39941882261433     4.73263980500213     0.21800571437956
H   26   1     7.83338371486801     2.19084139882824    -5.57093109900697
H   27   1     5.73544244039420     1.27376866537418    -8.01071492370229
C   28   6     9.21124858443101    -0.89699110072176    -7.88926949186242
H   29   1    -7.66272760055236     5.92277078003992     1.77035591474408
H   30   1    -9.31497248082589     3.08753015622020     1.12614408368786
C   31   6   -10.35481709231879     6.21833079391143    -1.30905206253246
H   32   1    10.58815905329501    -1.61074586756696    -6.49512691622620
H   33   1    10.23506248045667     0.32468009384095    -9.23072870921204
H   34   1     8.47665842847139    -2.53598436989925    -8.94921964622535
H   35   1    -9.48948872868064     7.90013588951020    -2.18823918416067
H   36   1   -11.93332513000955     6.86460487874102    -0.11255798845995
H   37   1   -11.15126291841033     5.04495968327630    -2.83849898862534
[GTO]
1 0
 s    8 1.00
                 11720  0.00070964594651845
                  1759  0.0054672722921914
                 400.8   0.027823118610189
                 113.7    0.10474773971146
                 37.03    0.28292084635691
                 13.27    0.44849523869833
                 5.025    0.27081688521277
                 1.013    0.01545029160744
 s    8 1.00
                 11720  -0.00031444341168873
                  1759  -0.0024821376810179
                 400.8  -0.012316355381583
                 113.7  -0.050538917343672
                 37.03   -0.13938490331632
                 13.27   -0.32507749481778
                 5.025   -0.22984830758785
                 1.013     1.0953793467883
 s    1 1.00
                0.3023                   1
 p    3 1.00
                  17.7   0.062679166281506
                 3.854    0.33353656587936
                 1.046    0.74123964163973
 p    1 1.00
                0.2753                   1
 d    1 1.00
                 1.185                   1

2 0
 s    3 1.00
                 13.01   0.033498726389998
                 1.962    0.23480080117413
                0.4446     0.8136829578829
 s    1 1.00
                 0.122                   1
 p    1 1.00
                 0.727                   1

3 0
 s    3 1.00
                 13.01   0.033498726389998
                 1.962    0.23480080117413
                0.4446     0.8136829578829
 s    1 1.00
                 0.122                   1
 p    1 1.00
                 0.727                   1

4 0
 s    8 1.00
                 11720  0.00070964594651845
                  1759  0.0054672722921914
                 400.8   0.027823118610189
                 113.7    0.10474773971146
                 37.03    0.28292084635691
                 13.27    0.44849523869833
                 5.025    0.27081688521277
                 1.013    0.01545029160744
 s    8 1.00
                 11720  -0.00031444341168873
                  1759  -0.0024821376810179
                 400.8  -0.012316355381583
                 113.7  -0.050538917343672
                 37.03   -0.13938490331632
                 13.27   -0.32507749481778
                 5.025   -0.22984830758785
                 1.013     1.0953793467883
 s    1 1.00
                0.3023                   1
 p    3 1.00
                  17.7   0.062679166281506
                 3.854    0.33353656587936
                 1.046    0.74123964163973
 p    1 1.00
                0.2753                   1
 d    1 1.00
                 1.185                   1

5 0
 s    8 1.00
                  6665  0.00069158396281299
                  1000  0.0053257961529341
                   228   0.027060721042034
                 64.71    0.10165684614077
                 21.06     0.2745748236174
                 7.495    0.44829431892377
                 2.797    0.28490261071525
                0.5215   0.015194859206082
 s    8 1.00
                  6665  -0.00029326965268655
                  1000  -0.0023180354739745
                   228  -0.011499786038565
                 64.71  -0.046826727009787
                 21.06   -0.12846616875047
                 7.495   -0.30126627246289
                 2.797   -0.25563070233011
                0.5215      1.093793361012
 s    1 1.00
                0.1596                   1
 p    3 1.00
                 9.439   0.056979251590039
                 2.002    0.31320721150073
                0.5456    0.76037674173753
 p    1 1.00
                0.1517                   1
 d    1 1.00
                  0.55                   1

6 0
 s    8 1.00
                  6665  0.00069158396281299
                  1000  0.0053257961529341
                   228   0.027060721042034
                 64.71    0.10165684614077
                 21.06     0.2745748236174
                 7.495    0.44829431892377
                 2.797    0.28490261071525
                0.5215   0.015194859206082
 s    8 1.00
                  6665  -0.00029326965268655
                  1000  -0.0023180354739745
                   228  -0.011499786038565
                 64.71  -0.046826727009787
                 21.06   -0.12846616875047
                 7.495   -0.30126627246289
                 2.797   -0.25563070233011
                0.5215      1.093793361012
 s    1 1.00
                0.1596                   1
 p    3 1.00
                 9.439   0.056979251590039
                 2.002    0.31320721150073
                0.5456    0.76037674173753
 p    1 1.00
                0.1517                   1
 d    1 1.00
                  0.55                   1

7 0
 s    8 1.00
                  6665  0.00069158396281299
                  1000  0.0053257961529341
                   228   0.027060721042034
                 64.71    0.10165684614077
                 21.06     0.2745748236174
                 7.495    0.44829431892377
                 2.797    0.28490261071525
                0.5215   0.015194859206082
 s    8 1.00
                  6665  -0.00029326965268655
                  1000  -0.0023180354739745
                   228  -0.011499786038565
                 64.71  -0.046826727009787
                 21.06   -0.12846616875047
                 7.495   -0.30126627246289
                 2.797   -0.25563070233011
                0.5215      1.093793361012
 s    1 1.00
                0.1596                   1
 p    3 1.00
                 9.439   0.056979251590039
                 2.002    0.31320721150073
                0.5456    0.76037674173753
 p    1 1.00
                0.1517                   1
 d    1 1.00
                  0.55                   1

8 0
 s    3 1.00
                 13.01   0.033498726389998
                 1.962    0.23480080117413
                0.4446     0.8136829578829
 s    1 1.00
                 0.122                   1
 p    1 1.00
                 0.727                   1

9 0
 s    8 1.00
                  6665  0.00069158396281299
                  1000  0.0053257961529341
                   228   0.027060721042034
                 64.71    0.10165684614077
                 21.06     0.2745748236174
                 7.495    0.44829431892377
                 2.797    0.28490261071525
                0.5215   0.015194859206082
 s    8 1.00
                  6665  -0.00029326965268655
                  1000  -0.0023180354739745
                   228  -0.011499786038565
                 64.71  -0.046826727009787
                 21.06   -0.12846616875047
                 7.495   -0.30126627246289
                 2.797   -0.25563070233011
                0.5215      1.093793361012
 s    1 1.00
                0.1596                   1
 p    3 1.00
                 9.439   0.056979251590039
                 2.002    0.31320721150073
                0.5456    0.76037674173753
 p    1 1.00
                0.1517                   1
 d    1 1.00
                  0.55                   1

10 0
 s    3 1.00
                 13.01   0.033498726389998
                 1.962    0.23480080117413
                0.4446     0.8136829578829
 s    1 1.00
                 0.122                   1
 p    1 1.00
                 0.727                   1

11 0
 s    3 1.00
                 13.01   0.033498726389998
                 1.962    0.23480080117413
                0.4446     0.8136829578829
 s    1 1.00
                 0.122                   1
 p    1 1.00
                 0.727                   1

12 0
 s    3 1.00
                 13.01   0.033498726389998
                 1.962    0.23480080117413
                0.4446     0.8136829578829
 s    1 1.00
                 0.122                   1
 p    1 1.00
                 0.727                   1

13 0
 s    8 1.00
                  6665  0.00069158396281299
                  1000  0.0053257961529341
                   228   0.027060721042034
                 64.71    0.10165684614077
                 21.06     0.2745748236174
                 7.495    0.44829431892377
                 2.797    0.28490261071525
                0.5215   0.015194859206082
 s    8 1.00
                  6665  -0.00029326965268655
                  1000  -0.0023180354739745
                   228  -0.011499786038565
                 64.71  -0.046826727009787
                 21.06   -0.12846616875047
                 7.495   -0.30126627246289
                 2.797   -0.25563070233011
                0.5215      1.093793361012
 s    1 1.00
                0.1596                   1
 p    3 1.00
                 9.439   0.056979251590039
                 2.002    0.31320721150073
                0.5456    0.76037674173753
 p    1 1.00
                0.1517                   1
 d    1 1.00
                  0.55                   1

14 0
 s    3 1.00
                 13.01   0.033498726389998
                 1.962    0.23480080117413
                0.4446     0.8136829578829
 s    1 1.00
                 0.122                   1
 p    1 1.00
                 0.727                   1

15 0
 s    3 1.00
                 13.01   0.033498726389998
                 1.962    0.23480080117413
                0.4446     0.8136829578829
 s    1 1.00
                 0.122                   1
 p    1 1.00
                 0.727                   1

16 0
 s    8 1.00
                  6665  0.00069158396281299
                  1000  0.0053257961529341
                   228   0.027060721042034
                 64.71    0.10165684614077
                 21.06     0.2745748236174
                 7.495    0.44829431892377
                 2.797    0.28490261071525
                0.5215   0.015194859206082
 s    8 1.00
                  6665  -0.00029326965268655
                  1000  -0.0023180354739745
                   228  -0.011499786038565
                 64.71  -0.046826727009787
                 21.06   -0.12846616875047
                 7.495   -0.30126627246289
                 2.797   -0.25563070233011
                0.5215      1.093793361012
 s    1 1.00
                0.1596                   1
 p    3 1.00
                 9.439   0.056979251590039
                 2.002    0.31320721150073
                0.5456    0.76037674173753
 p    1 1.00
                0.1517                   1
 d    1 1.00
                  0.55                   1

17 0
 s    3 1.00
                 13.01   0.033498726389998
                 1.962    0.23480080117413
                0.4446     0.8136829578829
 s    1 1.00
                 0.122                   1
 p    1 1.00
                 0.727                   1

18 0
 s    3 1.00
                 13.01   0.033498726389998
                 1.962    0.23480080117413
                0.4446     0.8136829578829
 s    1 1.00
                 0.122                   1
 p    1 1.00
                 0.727                   1

19 0
 s    8 1.00
                  6665  0.00069158396281299
                  1000  0.0053257961529341
                   228   0.027060721042034
                 64.71    0.10165684614077
                 21.06     0.2745748236174
                 7.495    0.44829431892377
                 2.797    0.28490261071525
                0.5215   0.015194859206082
 s    8 1.00
                  6665  -0.00029326965268655
                  1000  -0.0023180354739745
                   228  -0.011499786038565
                 64.71  -0.046826727009787
                 21.06   -0.12846616875047
                 7.495   -0.30126627246289
                 2.797   -0.25563070233011
                0.5215      1.093793361012
 s    1 1.00
                0.1596                   1
 p    3 1.00
                 9.439   0.056979251590039
                 2.002    0.31320721150073
                0.5456    0.76037674173753
 p    1 1.00
                0.1517                   1
 d    1 1.00
                  0.55                   1

20 0
 s    3 1.00
                 13.01   0.033498726389998
                 1.962    0.23480080117413
                0.4446     0.8136829578829
 s    1 1.00
                 0.122                   1
 p    1 1.00
                 0.727                   1

21 0
 s    8 1.00
                  6665  0.00069158396281299
                  1000  0.0053257961529341
                   228   0.027060721042034
                 64.71    0.10165684614077
                 21.06     0.2745748236174
                 7.495    0.44829431892377
                 2.797    0.28490261071525
                0.5215   0.015194859206082
 s    8 1.00
                  6665  -0.00029326965268655
                  1000  -0.0023180354739745
                   228  -0.011499786038565
                 64.71  -0.046826727009787
                 21.06   -0.12846616875047
                 7.495   -0.30126627246289
                 2.797   -0.25563070233011
                0.5215      1.093793361012
 s    1 1.00
                0.1596                   1
 p    3 1.00
                 9.439   0.056979251590039
                 2.002    0.31320721150073
                0.5456    0.76037674173753
 p    1 1.00
                0.1517                   1
 d    1 1.00
                  0.55                   1

22 0
 s    3 1.00
                 13.01   0.033498726389998
                 1.962    0.23480080117413
                0.4446     0.8136829578829
 s    1 1.00
                 0.122                   1
 p    1 1.00
                 0.727                   1

23 0
 s    3 1.00
                 13.01   0.033498726389998
                 1.962    0.23480080117413
                0.4446     0.8136829578829
 s    1 1.00
                 0.122                   1
 p    1 1.00
                 0.727                   1

24 0
 s    3 1.00
                 13.01   0.033498726389998
                 1.962    0.23480080117413
                0.4446     0.8136829578829
 s    1 1.00
                 0.122                   1
 p    1 1.00
                 0.727                   1

25 0
 s    8 1.00
                  6665  0.00069158396281299
                  1000  0.0053257961529341
                   228   0.027060721042034
                 64.71    0.10165684614077
                 21.06     0.2745748236174
                 7.495    0.44829431892377
                 2.797    0.28490261071525
                0.5215   0.015194859206082
 s    8 1.00
                  6665  -0.00029326965268655
                  1000  -0.0023180354739745
                   228  -0.011499786038565
                 64.71  -0.046826727009787
                 21.06   -0.12846616875047
                 7.495   -0.30126627246289
                 2.797   -0.25563070233011
                0.5215      1.093793361012
 s    1 1.00
                0.1596                   1
 p    3 1.00
                 9.439   0.056979251590039
                 2.002    0.31320721150073
                0.5456    0.76037674173753
 p    1 1.00
                0.1517                   1
 d    1 1.00
                  0.55                   1

26 0
 s    3 1.00
                 13.01   0.033498726389998
                 1.962    0.23480080117413
                0.4446     0.8136829578829
 s    1 1.00
                 0.122                   1
 p    1 1.00
                 0.727                   1

27 0
 s    3 1.00
                 13.01   0.033498726389998
                 1.962    0.23480080117413
                0.4446     0.8136829578829
 s    1 1.00
                 0.122                   1
 p    1 1.00
                 0.727                   1

28 0
 s    8 1.00
                  6665  0.00069158396281299
                  1000  0.0053257961529341
                   228   0.027060721042034
                 64.71    0.10165684614077
                 21.06     0.2745748236174
                 7.495    0.44829431892377
                 2.797    0.28490261071525
                0.5215   0.015194859206082
 s    8 1.00
                  6665  -0.00029326965268655
                  1000  -0.0023180354739745
                   228  -0.011499786038565
                 64.71  -0.046826727009787
                 21.06   -0.12846616875047
                 7.495   -0.30126627246289
                 2.797   -0.25563070233011
                0.5215      1.093793361012
 s    1 1.00
                0.1596                   1
 p    3 1.00
                 9.439   0.056979251590039
                 2.002    0.31320721150073
                0.5456    0.76037674173753
 p    1 1.00
                0.1517                   1
 d    1 1.00
                  0.55                   1

29 0
 s    3 1.00
                 13.01   0.033498726389998
                 1.962    0.23480080117413
                0.4446     0.8136829578829
 s    1 1.00
                 0.122                   1
 p    1 1.00
                 0.727                   1

30 0
 s    3 1.00
                 13.01   0.033498726389998
                 1.962    0.23480080117413
                0.4446     0.8136829578829
 s    1 1.00
                 0.122                   1
 p    1 1.00
                 0.727                   1

31 0
 s    8 1.00
                  6665  0.00069158396281299
                  1000  0.0053257961529341
                   228   0.027060721042034
                 64.71    0.10165684614077
                 21.06     0.2745748236174
                 7.495    0.44829431892377
                 2.797    0.28490261071525
                0.5215   0.015194859206082
 s    8 1.00
                  6665  -0.00029326965268655
                  1000  -0.0023180354739745
                   228  -0.011499786038565
                 64.71  -0.046826727009787
                 21.06   -0.12846616875047
                 7.495   -0.30126627246289
                 2.797   -0.25563070233011
                0.5215      1.093793361012
 s    1 1.00
                0.1596                   1
 p    3 1.00
                 9.439   0.056979251590039
                 2.002    0.31320721150073
                0.5456    0.76037674173753
 p    1 1.00
                0.1517                   1
 d    1 1.00
                  0.55                   1

32 0
 s    3 1.00
                 13.01   0.033498726389998
                 1.962    0.23480080117413
                0.4446     0.8136829578829
 s    1 1.00
                 0.122                   1
 p    1 1.00
                 0.727                   1

33 0
 s    3 1.00
                 13.01   0.033498726389998
                 1.962    0.23480080117413
                0.4446     0.8136829578829
 s    1 1.00
                 0.122                   1
 p    1 1.00
                 0.727                   1

34 0
 s    3 1.00
                 13.01   0.033498726389998
                 1.962    0.23480080117413
                0.4446     0.8136829578829
 s    1 1.00
                 0.122                   1
 p    1 1.00
                 0.727                   1

35 0
 s    3 1.00
                 13.01   0.033498726389998
                 1.962    0.23480080117413
                0.4446     0.8136829578829
 s    1 1.00
                 0.122                   1
 p    1 1.00
                 0.727                   1

36 0
 s    3 1.00
                 13.01   0.033498726389998
                 1.962    0.23480080117413
                0.4446     0.8136829578829
 s    1 1.00
                 0.122                   1
 p    1 1.00
                 0.727                   1

37 0
 s    3 1.00
                 13.01   0.033498726389998
                 1.962    0.23480080117413
                0.4446     0.8136829578829
 s    1 1.00
                 0.122                   1
 p    1 1.00
                 0.727                   1

[5d]
[7f]
[9g]

[MO]
 Sym= A
 Ene=               0
 Spin= Alpha
 Occup=    1.00000
   1    -7.4591516912294e-07
   2    -1.3850041034418e-06
   3    6.3884736083906e-06
   4    -5.7363050595655e-08
   5    2.2815414221103e-07
   6    -4.0353530800808e-08
   7    9.8820389008441e-08
   8    -5.3980341899926e-07
   9    -3.3920985049069e-06
  10    4.4368825664338e-07
  11    9.8162701194155e-09
  12    -1.1683674235792e-08
  13    -3.1869052677818e-08
  14    2.3473465171447e-09
  15    -2.6723289983579e-07
  16    -9.1302461999706e-06
  17    9.008457952517e-08
  18    -2.8793626907575e-08
  19    -1.8498039397912e-06
  20    -1.1762340636432e-07
  21    1.3137776263732e-06
  22    -1.885733783305e-08
  23    1.0778312224595e-07
  24    1.643686150776e-07
  25    6.1728640734716e-06
  26    1.7248546741263e-05
  27    -8.1426601534756e-05
  28    5.8708590787004e-06
  29    -5.9035409866086e-06
  30    -1.4805293556692e-06
  31    -4.551957988144e-05
  32    8.7332855279145e-05
  33    -2.8846685203983e-06
  34    1.1749622970847e-06
  35    2.7670524671435e-06
  36    -2.8287957604631e-06
  37    -2.5196365942546e-06
  38     1.63105584155e-06
  39    1.2450441042464e-07
  40    8.5116394099588e-06
  41    -0.00013537431242086
  42    -4.0447176596582e-05
  43    2.0094544842806e-05
  44    1.9981191176592e-05
  45    0.00075343931627155
  46    -0.00074241220521507
  47    0.00015816707021715
  48    -3.897893580793e-06
  49    -2.9034038149663e-05
  50    3.2926379844721e-05
  51    -1.7493387660756e-05
  52    9.976229279051e-06
  53    -1.8316067808299e-05
  54    -6.907419544278e-05
  55    0.00017460373212631
  56    -5.9602337051075e-05
  57    -1.1687804305388e-05
  58    4.6419573962651e-05
  59    0.00098513726618143
  60    -9.7546980495576e-05
  61    -0.00082455022608069
  62    4.0824730406311e-06
  63    -4.7511382899426e-06
  64    -4.1651710543138e-05
  65    -1.4361277368703e-05
  66    4.0276535707653e-05
  67    1.927430675268e-05
  68    9.7349551044703e-05
  69    -7.6428956981554e-05
  70    -8.2563639096568e-05
  71    2.3163982883316e-05
  72    2.8643022835894e-05
  73    0.0013282882617601
  74    -0.00047790538647645
  75    0.00011988724730695
  76    3.1567759787144e-05
  77    5.3643886388194e-05
  78    -5.1483948526473e-05
  79    -3.769642581112e-05
  80    2.6626373273284e-05
  81    -2.4743803264741e-05
  82    -6.9782793379445e-05
  83    -1.4568022826217e-05
  84    3.6126234358441e-06
  85    2.3361409302789e-05
  86    -2.8272403382789e-05
  87    -0.00018712863478541
  88    -0.0019376593256469
  89    -0.00039081848182651
  90    0.00022862975998881
  91    0.00025018467856778
  92    -0.00030695996937739
  93    0.0010807500770535
  94    6.5794106928778e-05
  95    1.391256295095e-05
  96    7.4955123182143e-05
  97    -1.3665148009914e-05
  98    -2.6102323720219e-05
  99    3.0641709963246e-05
 100    -1.315111176374e-06
 101    0.00016880358610751
 102    -3.8239373886147e-05
 103    2.1317495458886e-05
 104    2.7527332475269e-05
 105    5.8708311384015e-05
 106    -4.396108776447e-05
 107    -4.1249911728841e-05
 108    1.1317289360179e-05
 109    -6.5916240366927e-06
 110    3.7302477238178e-06
 111    -0.00053627178831542
 112    -1.5906430582684e-05
 113    4.5751492873219e-05
 114    -2.6769796277196e-05
 115    0.00020599608341931
 116    0.00049911561782429
 117    0.00076988501477457
 118    -0.00020657657614478
 119    0.00015872568133262
 120    -0.00013699892440995
 121    0.00083348000143525
 122    -0.00019619905617173
 123    -0.00063071283730713
 124    0.00014103676672744
 125    -0.00027188341661828
 126    4.7517779601017e-05
 127    -6.410580001613e-05
 128    0.00017788016103943
 129    1.9659028516034e-05
 130    3.6897158428382e-05
 131    -3.4852545115917e-05
 132    -1.3840736291053e-05
 133    4.8197925851721e-05
 134    2.2684429393218e-05
 135    0.00010301272015349
 136    -2.9291849891993e-05
 137    -2.4599210576518e-05
 138    1.2504261657937e-05
 139    -0.00047106759710167
 140    -0.0011334160778375
 141    0.0060519541432638
 142    -0.00048557450550044
 143    -0.00072631190501509
 144    0.00072300934147377
 145    0.00058074061485166
 146    0.00088185366033195
 147    -0.0014930477882024
 148    4.6503496542014e-05
 149    1.0141691022699e-05
 150    1.8090244019441e-05
 151    0.00013989998774378
 152    2.5044723120748e-05
 153    3.7256338617558e-05
 154    -0.000171795056128
 155    -7.7637873955564e-05
 156    2.8946111403399e-05
 157    -3.9790741375081e-05
 158    0.0002406117930372
 159    0.00015374063359883
 160    -0.00011019872982874
 161    7.8687905393445e-05
 162    -2.8402631504744e-05
 163     0.039232604780709
 164    -0.012427971926923
 165    -0.0062279658844495
 166    0.0091546479160108
 167    -0.0043555343362937
 168    -4.5362175737666e-05
 169    0.0022641209386705
 170    -0.0018279427533884
 171    5.0182554123757e-05
 172    0.00030995306590703
 173    0.00097861006417339
 174    -0.00089244336253946
 175    -0.00068463046208243
 176    0.0010325622352825
 177    0.00016561632393045
 178    0.00056451436619917
 179    -7.4523560342935e-05
 180    -5.4286524936727e-06
 181    1.7060087000026e-06
 182      0.29280025470575
 183     0.010382604557377
 184    0.0020558170602738
 185    0.0048301982560022
 186    0.0061719325687483
 187    -0.0056923201213575
 188    0.0035916605957391
 189    0.0027333589765235
 190    -0.0038770560514722
 191    0.00049859386388735
 192    -0.00037122136183781
 193    -0.00072147886029979
 194    0.0014690796062497
 195    0.00096707922570673
 196    -0.00017906724858878
 197    -0.00029679068290727
 198    -5.8647660007649e-05
 199    -9.6684274364061e-06
 200    9.2208776535932e-05
 201    -0.0070759499515863
 202    -0.001805521962236
 203    -0.00021927783806539
 204    -0.00060509450140867
 205    -0.00062587652573533
 206    -0.0043125587373575
 207    0.0017782090671381
 208    0.00037149823373374
 209    0.00066892734367152
 210    -0.00022892462091818
 211     -0.10899498554118
 212    -0.034333559286433
 213    -0.023919978489665
 214    0.0042886177801117
 215    -0.011319608285525
 216     0.010788769848271
 217    0.0030300191062595
 218    -0.0065615673561936
 219    0.0063025664759249
 220    -0.0010609319892354
 221    -0.0011873701014292
 222    -0.00056889207742986
 223    -0.0013895822589117
 224    0.00045588741811806
 225    0.0048850114325169
 226    -0.001967659736488
 227    -0.00024599697272678
 228    -0.00053948557671151
 229    -0.00042666474375576
 230    0.0060936277070373
 231    0.00093093932584431
 232    0.00049800292840326
 233    -0.00023098986041985
 234    0.00032387047028766
 235      0.79663805359494
 236    -0.0074587286292104
 237    -0.013283613233745
 238     0.012388018466513
 239     0.050682827886478
 240    -0.0080026096837407
 241    0.0061234666731333
 242     0.023842831177394
 243    -0.004008606154148
 244    0.00011188983300916
 245    -0.0023660012783871
 246    -0.002066634962788
 247    0.00041147442497143
 248    -0.00028273022679314
 249    -0.016618596325521
 250    -0.0055637770659763
 251    0.00084677186704555
 252    0.00064280289106619
 253    0.0015959532300122
 254    -0.0041476219066461
 255    0.0048772569260589
 256    -0.00047232398892627
 257    -0.0013033147641637
 258    0.00058498648451967
 259      -0.4860360483137
 260    -0.0032940365388322
 261    0.0046558403342378
 262    -0.013622895746311
 263     0.044953139365993
 264    0.0037791147459024
 265    -0.0047075202947158