[Molden Format]
made by pyscf v[2.0.1]
[Atoms] (AU)
O   1   8     0.00000000000000     0.00000000000000     8.29613401107647
H   2   1     0.00000000000000     0.00000000000000     6.47273218917551
H   3   1    -0.05031916615174     1.78353065140343     8.67200570754314
O   4   8     0.00000000000000     0.00000000000000     2.31533471513237
C   5   6     0.00000000000000     0.00000000000000     0.00000000000000
C   6   6     2.01118073026938    -1.40227222164369    -1.50774939176400
C   7   6    -2.01249334291722     1.41331050329955    -1.50315905028694
H   8   1     3.32037363730244    -2.26721897153159    -0.13599698591495
C   9   6     3.45899267434009     0.28739631745591    -3.37437943254505
H   10   1     1.07662969841332    -2.94725144642667    -2.56541439481080
H   11   1    -2.67503415753480     0.18421555839588    -3.06194479365997
H   12   1    -1.07974048864772     3.03851734677796    -2.43674295017013
C   13   6    -4.21607110578555     2.32938802552922     0.11994162256091
H   14   1     4.24440173074564     1.93368664142019    -2.34976285512790
H   15   1     2.15020713235517     1.04714335134846    -4.81494497423699
C   16   6     5.60746363007797    -1.12419643481196    -4.70268606082550
H   17   1    -3.46838323670267     3.50951302338067     1.66946842715333
H   18   1    -5.11873485366228     0.68575958301209     1.04047743976495
C   19   6    -6.18314754751344     3.80909592987882    -1.39656589068747
H   20   1     6.93011263717176    -1.87550812453645    -3.26656317360070
C   21   6     7.06356622236532     0.52877932406334    -6.57829775293605
H   22   1     4.82318879258361    -2.78573437948532    -5.70504560381835
H   23   1    -6.91582688743803     2.61304780074712    -2.95074552451969
H   24   1    -5.26532430573853     5.45420349051338    -2.31005832200284
C   25   6    -8.39941882261433     4.73263980500213     0.21800571437956
H   26   1     7.83338371486801     2.19084139882824    -5.57093109900697
H   27   1     5.73544244039420     1.27376866537418    -8.01071492370229
C   28   6     9.21124858443101    -0.89699110072176    -7.88926949186242
H   29   1    -7.66272760055236     5.92277078003992     1.77035591474408
H   30   1    -9.31497248082589     3.08753015622020     1.12614408368786
C   31   6   -10.35481709231879     6.21833079391143    -1.30905206253246
H   32   1    10.58815905329501    -1.61074586756696    -6.49512691622620
H   33   1    10.23506248045667     0.32468009384095    -9.23072870921204
H   34   1     8.47665842847139    -2.53598436989925    -8.94921964622535
H   35   1    -9.48948872868064     7.90013588951020    -2.18823918416067
H   36   1   -11.93332513000955     6.86460487874102    -0.11255798845995
H   37   1   -11.15126291841033     5.04495968327630    -2.83849898862534
[GTO]
1 0
 s    8 1.00
                 11720  0.00070964594651845
                  1759  0.0054672722921914
                 400.8   0.027823118610189
                 113.7    0.10474773971146
                 37.03    0.28292084635691
                 13.27    0.44849523869833
                 5.025    0.27081688521277
                 1.013    0.01545029160744
 s    8 1.00
                 11720  -0.00031444341168873
                  1759  -0.0024821376810179
                 400.8  -0.012316355381583
                 113.7  -0.050538917343672
                 37.03   -0.13938490331632
                 13.27   -0.32507749481778
                 5.025   -0.22984830758785
                 1.013     1.0953793467883
 s    1 1.00
                0.3023                   1
 p    3 1.00
                  17.7   0.062679166281506
                 3.854    0.33353656587936
                 1.046    0.74123964163973
 p    1 1.00
                0.2753                   1
 d    1 1.00
                 1.185                   1

2 0
 s    3 1.00
                 13.01   0.033498726389998
                 1.962    0.23480080117413
                0.4446     0.8136829578829
 s    1 1.00
                 0.122                   1
 p    1 1.00
                 0.727                   1

3 0
 s    3 1.00
                 13.01   0.033498726389998
                 1.962    0.23480080117413
                0.4446     0.8136829578829
 s    1 1.00
                 0.122                   1
 p    1 1.00
                 0.727                   1

4 0
 s    8 1.00
                 11720  0.00070964594651845
                  1759  0.0054672722921914
                 400.8   0.027823118610189
                 113.7    0.10474773971146
                 37.03    0.28292084635691
                 13.27    0.44849523869833
                 5.025    0.27081688521277
                 1.013    0.01545029160744
 s    8 1.00
                 11720  -0.00031444341168873
                  1759  -0.0024821376810179
                 400.8  -0.012316355381583
                 113.7  -0.050538917343672
                 37.03   -0.13938490331632
                 13.27   -0.32507749481778
                 5.025   -0.22984830758785
                 1.013     1.0953793467883
 s    1 1.00
                0.3023                   1
 p    3 1.00
                  17.7   0.062679166281506
                 3.854    0.33353656587936
                 1.046    0.74123964163973
 p    1 1.00
                0.2753                   1
 d    1 1.00
                 1.185                   1

5 0
 s    8 1.00
                  6665  0.00069158396281299
                  1000  0.0053257961529341
                   228   0.027060721042034
                 64.71    0.10165684614077
                 21.06     0.2745748236174
                 7.495    0.44829431892377
                 2.797    0.28490261071525
                0.5215   0.015194859206082
 s    8 1.00
                  6665  -0.00029326965268655
                  1000  -0.0023180354739745
                   228  -0.011499786038565
                 64.71  -0.046826727009787
                 21.06   -0.12846616875047
                 7.495   -0.30126627246289
                 2.797   -0.25563070233011
                0.5215      1.093793361012
 s    1 1.00
                0.1596                   1
 p    3 1.00
                 9.439   0.056979251590039
                 2.002    0.31320721150073
                0.5456    0.76037674173753
 p    1 1.00
                0.1517                   1
 d    1 1.00
                  0.55                   1

6 0
 s    8 1.00
                  6665  0.00069158396281299
                  1000  0.0053257961529341
                   228   0.027060721042034
                 64.71    0.10165684614077
                 21.06     0.2745748236174
                 7.495    0.44829431892377
                 2.797    0.28490261071525
                0.5215   0.015194859206082
 s    8 1.00
                  6665  -0.00029326965268655
                  1000  -0.0023180354739745
                   228  -0.011499786038565
                 64.71  -0.046826727009787
                 21.06   -0.12846616875047
                 7.495   -0.30126627246289
                 2.797   -0.25563070233011
                0.5215      1.093793361012
 s    1 1.00
                0.1596                   1
 p    3 1.00
                 9.439   0.056979251590039
                 2.002    0.31320721150073
                0.5456    0.76037674173753
 p    1 1.00
                0.1517                   1
 d    1 1.00
                  0.55                   1

7 0
 s    8 1.00
                  6665  0.00069158396281299
                  1000  0.0053257961529341
                   228   0.027060721042034
                 64.71    0.10165684614077
                 21.06     0.2745748236174
                 7.495    0.44829431892377
                 2.797    0.28490261071525
                0.5215   0.015194859206082
 s    8 1.00
                  6665  -0.00029326965268655
                  1000  -0.0023180354739745
                   228  -0.011499786038565
                 64.71  -0.046826727009787
                 21.06   -0.12846616875047
                 7.495   -0.30126627246289
                 2.797   -0.25563070233011
                0.5215      1.093793361012
 s    1 1.00
                0.1596                   1
 p    3 1.00
                 9.439   0.056979251590039
                 2.002    0.31320721150073
                0.5456    0.76037674173753
 p    1 1.00
                0.1517                   1
 d    1 1.00
                  0.55                   1

8 0
 s    3 1.00
                 13.01   0.033498726389998
                 1.962    0.23480080117413
                0.4446     0.8136829578829
 s    1 1.00
                 0.122                   1
 p    1 1.00
                 0.727                   1

9 0
 s    8 1.00
                  6665  0.00069158396281299
                  1000  0.0053257961529341
                   228   0.027060721042034
                 64.71    0.10165684614077
                 21.06     0.2745748236174
                 7.495    0.44829431892377
                 2.797    0.28490261071525
                0.5215   0.015194859206082
 s    8 1.00
                  6665  -0.00029326965268655
                  1000  -0.0023180354739745
                   228  -0.011499786038565
                 64.71  -0.046826727009787
                 21.06   -0.12846616875047
                 7.495   -0.30126627246289
                 2.797   -0.25563070233011
                0.5215      1.093793361012
 s    1 1.00
                0.1596                   1
 p    3 1.00
                 9.439   0.056979251590039
                 2.002    0.31320721150073
                0.5456    0.76037674173753
 p    1 1.00
                0.1517                   1
 d    1 1.00
                  0.55                   1

10 0
 s    3 1.00
                 13.01   0.033498726389998
                 1.962    0.23480080117413
                0.4446     0.8136829578829
 s    1 1.00
                 0.122                   1
 p    1 1.00
                 0.727                   1

11 0
 s    3 1.00
                 13.01   0.033498726389998
                 1.962    0.23480080117413
                0.4446     0.8136829578829
 s    1 1.00
                 0.122                   1
 p    1 1.00
                 0.727                   1

12 0
 s    3 1.00
                 13.01   0.033498726389998
                 1.962    0.23480080117413
                0.4446     0.8136829578829
 s    1 1.00
                 0.122                   1
 p    1 1.00
                 0.727                   1

13 0
 s    8 1.00
                  6665  0.00069158396281299
                  1000  0.0053257961529341
                   228   0.027060721042034
                 64.71    0.10165684614077
                 21.06     0.2745748236174
                 7.495    0.44829431892377
                 2.797    0.28490261071525
                0.5215   0.015194859206082
 s    8 1.00
                  6665  -0.00029326965268655
                  1000  -0.0023180354739745
                   228  -0.011499786038565
                 64.71  -0.046826727009787
                 21.06   -0.12846616875047
                 7.495   -0.30126627246289
                 2.797   -0.25563070233011
                0.5215      1.093793361012
 s    1 1.00
                0.1596                   1
 p    3 1.00
                 9.439   0.056979251590039
                 2.002    0.31320721150073
                0.5456    0.76037674173753
 p    1 1.00
                0.1517                   1
 d    1 1.00
                  0.55                   1

14 0
 s    3 1.00
                 13.01   0.033498726389998
                 1.962    0.23480080117413
                0.4446     0.8136829578829
 s    1 1.00
                 0.122                   1
 p    1 1.00
                 0.727                   1

15 0
 s    3 1.00
                 13.01   0.033498726389998
                 1.962    0.23480080117413
                0.4446     0.8136829578829
 s    1 1.00
                 0.122                   1
 p    1 1.00
                 0.727                   1

16 0
 s    8 1.00
                  6665  0.00069158396281299
                  1000  0.0053257961529341
                   228   0.027060721042034
                 64.71    0.10165684614077
                 21.06     0.2745748236174
                 7.495    0.44829431892377
                 2.797    0.28490261071525
                0.5215   0.015194859206082
 s    8 1.00
                  6665  -0.00029326965268655
                  1000  -0.0023180354739745
                   228  -0.011499786038565
                 64.71  -0.046826727009787
                 21.06   -0.12846616875047
                 7.495   -0.30126627246289
                 2.797   -0.25563070233011
                0.5215      1.093793361012
 s    1 1.00
                0.1596                   1
 p    3 1.00
                 9.439   0.056979251590039
                 2.002    0.31320721150073
                0.5456    0.76037674173753
 p    1 1.00
                0.1517                   1
 d    1 1.00
                  0.55                   1

17 0
 s    3 1.00
                 13.01   0.033498726389998
                 1.962    0.23480080117413
                0.4446     0.8136829578829
 s    1 1.00
                 0.122                   1
 p    1 1.00
                 0.727                   1

18 0
 s    3 1.00
                 13.01   0.033498726389998
                 1.962    0.23480080117413
                0.4446     0.8136829578829
 s    1 1.00
                 0.122                   1
 p    1 1.00
                 0.727                   1

19 0
 s    8 1.00
                  6665  0.00069158396281299
                  1000  0.0053257961529341
                   228   0.027060721042034
                 64.71    0.10165684614077
                 21.06     0.2745748236174
                 7.495    0.44829431892377
                 2.797    0.28490261071525
                0.5215   0.015194859206082
 s    8 1.00
                  6665  -0.00029326965268655
                  1000  -0.0023180354739745
                   228  -0.011499786038565
                 64.71  -0.046826727009787
                 21.06   -0.12846616875047
                 7.495   -0.30126627246289
                 2.797   -0.25563070233011
                0.5215      1.093793361012
 s    1 1.00
                0.1596                   1
 p    3 1.00
                 9.439   0.056979251590039
                 2.002    0.31320721150073
                0.5456    0.76037674173753
 p    1 1.00
                0.1517                   1
 d    1 1.00
                  0.55                   1

20 0
 s    3 1.00
                 13.01   0.033498726389998
                 1.962    0.23480080117413
                0.4446     0.8136829578829
 s    1 1.00
                 0.122                   1
 p    1 1.00
                 0.727                   1

21 0
 s    8 1.00
                  6665  0.00069158396281299
                  1000  0.0053257961529341
                   228   0.027060721042034
                 64.71    0.10165684614077
                 21.06     0.2745748236174
                 7.495    0.44829431892377
                 2.797    0.28490261071525
                0.5215   0.015194859206082
 s    8 1.00
                  6665  -0.00029326965268655
                  1000  -0.0023180354739745
                   228  -0.011499786038565
                 64.71  -0.046826727009787
                 21.06   -0.12846616875047
                 7.495   -0.30126627246289
                 2.797   -0.25563070233011
                0.5215      1.093793361012
 s    1 1.00
                0.1596                   1
 p    3 1.00
                 9.439   0.056979251590039
                 2.002    0.31320721150073
                0.5456    0.76037674173753
 p    1 1.00
                0.1517                   1
 d    1 1.00
                  0.55                   1

22 0
 s    3 1.00
                 13.01   0.033498726389998
                 1.962    0.23480080117413
                0.4446     0.8136829578829
 s    1 1.00
                 0.122                   1
 p    1 1.00
                 0.727                   1

23 0
 s    3 1.00
                 13.01   0.033498726389998
                 1.962    0.23480080117413
                0.4446     0.8136829578829
 s    1 1.00
                 0.122                   1
 p    1 1.00
                 0.727                   1

24 0
 s    3 1.00
                 13.01   0.033498726389998
                 1.962    0.23480080117413
                0.4446     0.8136829578829
 s    1 1.00
                 0.122                   1
 p    1 1.00
                 0.727                   1

25 0
 s    8 1.00
                  6665  0.00069158396281299
                  1000  0.0053257961529341
                   228   0.027060721042034
                 64.71    0.10165684614077
                 21.06     0.2745748236174
                 7.495    0.44829431892377
                 2.797    0.28490261071525
                0.5215   0.015194859206082
 s    8 1.00
                  6665  -0.00029326965268655
                  1000  -0.0023180354739745
                   228  -0.011499786038565
                 64.71  -0.046826727009787
                 21.06   -0.12846616875047
                 7.495   -0.30126627246289
                 2.797   -0.25563070233011
                0.5215      1.093793361012
 s    1 1.00
                0.1596                   1
 p    3 1.00
                 9.439   0.056979251590039
                 2.002    0.31320721150073
                0.5456    0.76037674173753
 p    1 1.00
                0.1517                   1
 d    1 1.00
                  0.55                   1

26 0
 s    3 1.00
                 13.01   0.033498726389998
                 1.962    0.23480080117413
                0.4446     0.8136829578829
 s    1 1.00
                 0.122                   1
 p    1 1.00
                 0.727                   1

27 0
 s    3 1.00
                 13.01   0.033498726389998
                 1.962    0.23480080117413
                0.4446     0.8136829578829
 s    1 1.00
                 0.122                   1
 p    1 1.00
                 0.727                   1

28 0
 s    8 1.00
                  6665  0.00069158396281299
                  1000  0.0053257961529341
                   228   0.027060721042034
                 64.71    0.10165684614077
                 21.06     0.2745748236174
                 7.495    0.44829431892377
                 2.797    0.28490261071525
                0.5215   0.015194859206082
 s    8 1.00
                  6665  -0.00029326965268655
                  1000  -0.0023180354739745
                   228  -0.011499786038565
                 64.71  -0.046826727009787
                 21.06   -0.12846616875047
                 7.495   -0.30126627246289
                 2.797   -0.25563070233011
                0.5215      1.093793361012
 s    1 1.00
                0.1596                   1
 p    3 1.00
                 9.439   0.056979251590039
                 2.002    0.31320721150073
                0.5456    0.76037674173753
 p    1 1.00
                0.1517                   1
 d    1 1.00
                  0.55                   1

29 0
 s    3 1.00
                 13.01   0.033498726389998
                 1.962    0.23480080117413
                0.4446     0.8136829578829
 s    1 1.00
                 0.122                   1
 p    1 1.00
                 0.727                   1

30 0
 s    3 1.00
                 13.01   0.033498726389998
                 1.962    0.23480080117413
                0.4446     0.8136829578829
 s    1 1.00
                 0.122                   1
 p    1 1.00
                 0.727                   1

31 0
 s    8 1.00
                  6665  0.00069158396281299
                  1000  0.0053257961529341
                   228   0.027060721042034
                 64.71    0.10165684614077
                 21.06     0.2745748236174
                 7.495    0.44829431892377
                 2.797    0.28490261071525
                0.5215   0.015194859206082
 s    8 1.00
                  6665  -0.00029326965268655
                  1000  -0.0023180354739745
                   228  -0.011499786038565
                 64.71  -0.046826727009787
                 21.06   -0.12846616875047
                 7.495   -0.30126627246289
                 2.797   -0.25563070233011
                0.5215      1.093793361012
 s    1 1.00
                0.1596                   1
 p    3 1.00
                 9.439   0.056979251590039
                 2.002    0.31320721150073
                0.5456    0.76037674173753
 p    1 1.00
                0.1517                   1
 d    1 1.00
                  0.55                   1

32 0
 s    3 1.00
                 13.01   0.033498726389998
                 1.962    0.23480080117413
                0.4446     0.8136829578829
 s    1 1.00
                 0.122                   1
 p    1 1.00
                 0.727                   1

33 0
 s    3 1.00
                 13.01   0.033498726389998
                 1.962    0.23480080117413
                0.4446     0.8136829578829
 s    1 1.00
                 0.122                   1
 p    1 1.00
                 0.727                   1

34 0
 s    3 1.00
                 13.01   0.033498726389998
                 1.962    0.23480080117413
                0.4446     0.8136829578829
 s    1 1.00
                 0.122                   1
 p    1 1.00
                 0.727                   1

35 0
 s    3 1.00
                 13.01   0.033498726389998
                 1.962    0.23480080117413
                0.4446     0.8136829578829
 s    1 1.00
                 0.122                   1
 p    1 1.00
                 0.727                   1

36 0
 s    3 1.00
                 13.01   0.033498726389998
                 1.962    0.23480080117413
                0.4446     0.8136829578829
 s    1 1.00
                 0.122                   1
 p    1 1.00
                 0.727                   1

37 0
 s    3 1.00
                 13.01   0.033498726389998
                 1.962    0.23480080117413
                0.4446     0.8136829578829
 s    1 1.00
                 0.122                   1
 p    1 1.00
                 0.727                   1

[5d]
[7f]
[9g]

[MO]
 Sym= A
 Ene=               0
 Spin= Alpha
 Occup=    1.00000
   1    -1.9640942737365e-06
   2    -3.6407092935568e-06
   3    1.7954276916702e-06
   4    -3.0652503627475e-07
   5    4.3437751911852e-07
   6    5.0624386655582e-06
   7    -3.6021488518409e-07
   8    -8.3105484658027e-07
   9    1.0791815921597e-08
  10    1.0731027184489e-07
  11    9.102163402203e-08
  12    1.7298270107416e-08
  13    8.0677732589442e-09
  14    -1.1627473226789e-08
  15    -2.172900435805e-06
  16    -4.2953900766344e-06
  17    1.3398751622818e-07
  18    3.4788437300903e-07
  19    1.3127058275235e-07
  20    -1.2570144467394e-07
  21    4.3032614243334e-06
  22    2.1673693057095e-08
  23    -3.0933018911551e-07
  24    1.7263632072542e-07
  25    9.2372828794957e-06
  26    -6.3605710827047e-06
  27    -0.00012449212298561
  28    3.9609082802152e-06
  29    7.9721957331896e-05
  30    6.7538373339971e-05
  31    -7.7633790029658e-05
  32    0.00012992694678684
  33    9.1780747520535e-05
  34    -5.6808124655136e-06
  35    -2.048216404598e-06
  36    -9.4675289737438e-07
  37    -7.2450598016808e-07
  38    -2.5804198061226e-06
  39    -0.00011895506281815
  40    -6.3963682303497e-05
  41    0.00075007467615378
  42    9.7878754282018e-05
  43    -0.00011068425877928
  44    -5.2836693486536e-05
  45    0.0005379359419228
  46    -0.00040285531407982
  47    -0.00012224094590144
  48    -1.0567904194256e-05
  49    -2.081746873668e-05
  50    3.4099708705126e-05
  51    -1.1225062956682e-05
  52    -2.9762703656401e-05
  53    9.4790918072797e-05
  54    -0.00025459839090057
  55    -8.9227894150036e-05
  56    -0.00027566438750624
  57    -0.00034171298834952
  58    0.00033939683122808
  59    0.00053637430680156
  60    -0.00029798114201045
  61    -0.00048146815128646
  62    3.4949398805988e-07
  63    1.3748267355832e-05
  64    4.3574444119937e-06
  65    1.7910914486184e-05
  66    6.8188502209429e-06
  67    -7.6298071368512e-06
  68    -3.5472263307443e-05
  69    -0.00012219615639099
  70    -4.6971954017809e-05
  71    4.9411560514163e-05
  72    -2.976179011723e-05
  73    0.00022646509234638
  74    -5.4602333318107e-05
  75    -3.6216583913635e-05
  76    -3.2164669481451e-07
  77    1.2268859342084e-05
  78    -8.3311773055043e-06
  79    -9.9831198218694e-06
  80    4.0783267426237e-06
  81    1.8656847088554e-05
  82    8.2887978915135e-06
  83    -2.0577487488606e-05
  84    -4.9833481884593e-07
  85    2.8961690262435e-05
  86    -0.00072720037137057
  87    -0.00051001920196057
  88    -0.000383585910782
  89    0.00042851140421174
  90    -0.00033995738148235
  91    -0.00025059922299525
  92    0.0005157980213407
  93    0.00034573850811556
  94    -0.00054084815462444
  95    -7.0201820976256e-05
  96    -1.8783679365583e-05
  97    5.0108470890821e-05
  98    -3.8548461622129e-05
  99    -0.00013291508192001
 100    4.3557005873989e-05
 101    2.0532029528842e-05
 102    -4.1369649076519e-05
 103    1.904732063847e-06
 104    2.972984284075e-05
 105    -1.827849298596e-05
 106    5.7105735325696e-05
 107    -1.1511814301034e-05
 108    6.6464147669876e-06
 109    4.5531369133342e-06
 110    -8.747038418893e-06
 111    0.00010958427940238
 112    -5.9239997529744e-06
 113    -2.3080067488153e-06
 114    -4.907323285025e-07
 115    -2.700453263368e-05
 116    -3.7296268025008e-05
 117    0.00020933630215943
 118    1.373138249875e-05
 119    -6.403809446438e-06
 120    -8.4140178814744e-06
 121    0.00018631816477951
 122    -0.00014625504879246
 123    -4.7351957296285e-05
 124    9.5315842406141e-07
 125    -1.260319194369e-05
 126    6.1568227859278e-06
 127    6.0074505398681e-06
 128    -6.6961197110464e-06
 129    -0.00030743955294733
 130    -0.00016207062197502
 131    -1.2982124355485e-05
 132    7.6209761761848e-06
 133    7.6955054427444e-05
 134    -0.00029379855781414
 135    -0.00022009540105746
 136    -7.3303522054294e-05
 137    -1.8151797971847e-05
 138    -9.5350288376946e-06
 139    0.0028229286707977
 140    0.0021698201598629
 141    0.0044059308710422
 142    -0.00012072570849737
 143    -0.0024283419106042
 144    0.0010132490835188
 145    0.00092146231822396
 146    -0.00023348726861279
 147    -0.00074655829563625
 148    -6.1387165472797e-06
 149    0.00022029137081062
 150    0.00017873389001671
 151    3.2450324727417e-05
 152    -8.5635089081342e-05
 153    -1.1094448370948e-05
 154    3.3599675863242e-05
 155    -3.2454953228224e-06
 156    2.6845000888659e-06
 157    -1.5524891613172e-06
 158    -1.3901977807322e-05
 159    -1.3871286525703e-05
 160    -6.1525126846594e-06
 161    2.8506192055812e-06
 162    1.1359477575049e-06
 163    0.00038186699863697
 164    -1.8113700961682e-05
 165    6.7371242326196e-05
 166    -1.2436809575572e-05
 167    8.8466814185548e-06
 168    -8.461409562846e-06
 169    3.8761188378811e-05
 170    -1.0312425334969e-05
 171    -7.03111770479e-06
 172    -5.1064119297634e-07
 173    1.0587882088284e-06
 174    8.1338352837749e-07
 175    1.6326232737107e-06
 176    1.1008888954267e-07
 177    0.0024012069116039
 178    0.00089667021035649
 179    -0.000178433771315
 180    7.0125049355698e-05
 181    -0.0002104260947279
 182      0.99896969852504
 183    0.0045853864544648
 184    -0.012347970061481
 185    0.00046646248999098
 186    0.00061226657633842
 187    -0.00063849933996995
 188    0.00042700758525257
 189     0.001584358378784
 190    -0.00094476161037484
 191    -2.5086807098618e-06
 192    0.00035121873792624
 193    5.5469184109905e-05
 194    -0.00010395001145701
 195    2.6487439381145e-05
 196    0.0023995891268502
 197    0.00087987476829097
 198    0.00013194882552625
 199    0.00020115912006803
 200    0.00014751248116654
 201    -4.4912164819225e-06
 202    -5.6881474263791e-06
 203    -2.7451310301177e-06
 204    -4.7863936016449e-07
 205    -1.2273471743103e-06
 206    -2.0271683891653e-06
 207    -2.5209010597381e-05
 208    -1.1256144148906e-06
 209    3.712560201546e-06
 210    -7.2583829431391e-07
 211    -0.0004303536720804
 212    -6.2119952873764e-06
 213    1.0150647958833e-05
 214    1.4641898571085e-06
 215    2.3782046377809e-07
 216    -3.1375762578085e-06
 217    6.6810146071476e-05
 218    -3.7504467924418e-05
 219    2.0300699633262e-05
 220    -2.4822518354067e-07
 221    -1.7977981302613e-06
 222    2.0931463686407e-06
 223    8.0872095362298e-07
 224    -6.4890532032245e-07
 225    0.00023049781943057
 226    0.0013922254454955
 227    0.00020875414851749
 228    0.00032131345873748
 229    0.00025061993218494
 230    0.00022682545013786
 231    0.0014243682725625
 232    -0.00029707593808147
 233      0.00010126923645
 234    -0.00033467147530517
 235     0.084126967940347
 236    0.00029795133373702
 237    0.0017647927710661
 238    -0.00011804821450012
 239    0.00019140168056517
 240    2.8893292144986e-05
 241    -0.00080904320414674
 242    0.00056850910078221
 243    0.00048604862142566
 244    4.1377714731649e-05
 245    0.00013832235566591
 246    -9.9828100838108e-05
 247    -7.3139997600768e-05
 248    0.00015006258901408
 249    -4.1770527220606e-06
 250    -4.0857049159226e-06
 251    -1.9902169603066e-06
 252    2.0231024509151e-06
 253    -1.1867578748973e-06
 254    -3.4750709061633e-06
 255    4.6214212543183e-06
 256    -1.8616966880507e-06
 257    1.6424875293325e-06
 258    -2.2069390836982e-06
 259    -0.00011647914245807
 260    -8.3689541130919e-06
 261    5.1543339962775e-05
 262    -1.9055733193134e-06
 263    1.0030980865065e-06