[Molden Format]
made by pyscf v[2.0.1]
[Atoms] (AU)
C   1   6     0.69100024066471     0.64692934207205    -3.48223131169301
H   2   1     2.68052439830868     1.13355088658700    -3.25784032593313
C   3   6    -0.36286361513219     0.85440132524594    -5.97030179418974
H   4   1    -2.35448549047279     0.36322488579172    -6.17995817793143
C   5   6     0.93697958957450     1.61209284601821    -8.05828437677121
H   6   1     1.52220939200985     3.58023657898303    -8.21595213017833
C   7   6     1.59282573286669    -0.05175011382745   -10.09734693546315
H   8   1     0.99474836942587    -2.01839690080961    -9.91207388765078
H   9   1     1.55630230933075    -1.92953025305990    12.99630010416247
C   10   6     0.75233899775814    -2.21270439606481    11.10705728102219
H   11   1    -0.43433408177274    -3.90944857546550    11.22216085340412
C   12   6     2.86362581178706    -2.63237380607947     9.17926416456045
H   13   1     4.39038949912609    -1.24955421540245     9.49899813497433
H   14   1     3.74629220191363    -4.48798724300892     9.47414880959024
C   15   6     2.02478325613682    -2.42177285709634     6.44560829588644
C   16   6     3.88048732735477    -3.58795445234514     4.61402886975252
C   17   6    -0.18412382258602    -1.30464291234259     5.76021113872346
C   18   6    -2.10044360464350    -0.26837831858460     7.71610340967100
C   19   6    -3.08956938670431     2.35282328359417     6.88693925039594
C   20   6    -4.37372924086464    -2.09766595989678     7.93610724222001
C   21   6    -0.83850430601230     0.06372213486173    10.33002307638377
H   22   1     0.38411922151109     1.74281358582432    10.27380136542181
H   23   1    -2.30980003007874     0.45460143924521    11.73986301809809
H   24   1     4.58527064644668    -5.38706904487420     5.36778158031719
H   25   1     5.54944938085014    -2.37631462192748     4.35398898413318
H   26   1     3.06633019150423    -3.94118377050688     2.75255466040884
H   27   1    -4.17727778763735     2.26573369139522     5.12914900961283
H   28   1    -1.52662344944051     3.68001877445626     6.59540397144508
H   29   1    -4.32916174397830     3.13643051467482     8.35225460090378
H   30   1    -5.32329548508442    -2.36691813602939     6.11583672749896
H   31   1    -5.77989366602257    -1.33896741843465     9.25748940450990
H   32   1    -3.79310905208926    -3.96389819310853     8.61386170102686
C   33   6    -1.01100794811226    -1.06331657314144     3.11929490449947
C   34   6     0.37686231036534    -0.33275864505552     1.09165013605873
H   35   1    -3.01671213906703    -1.40297922279997     2.77827895090944
C   36   6    -0.64382707979370    -0.11591880174385    -1.42063131251064
H   37   1     2.35569259782137     0.17174499283897     1.33641070251401
H   38   1    -2.63317482980319    -0.60229203511219    -1.66119700387645
C   39   6     2.88089126504443     0.61821658123040   -12.21129238571255
C   40   6     3.45664863859100    -1.22033421200677   -14.18493293343049
H   41   1     3.53070761900678     2.54536442784122   -12.51396089296279
O   42   8     4.60321296142939    -0.74877588551315   -16.13014426558594
H   43   1     2.75622344406002    -3.16930929543288   -13.79624335354022
[GTO]
1 0
 s    6 1.00
             3047.5249  0.0018347001629433
             457.36951    0.01403730124668
             103.94869   0.068842606114048
             29.210155    0.23218442062076
              9.286663    0.46794134155879
              3.163927    0.36231203217765
 s    3 1.00
             7.8682724   -0.11933240861517
             1.8812885   -0.16085421161283
             0.5442493     1.1434564825515
 s    1 1.00
             0.1687144                   1
 p    3 1.00
             7.8682724   0.068999095584993
             1.8812885    0.31642397975315
             0.5442493    0.74430825237435
 p    1 1.00
             0.1687144                   1
 d    1 1.00
                   0.8                   1

2 0
 s    3 1.00
             18.731137    0.03349459952309
             2.8253937    0.23472694665786
             0.6401217    0.81375731841339
 s    1 1.00
             0.1612778                   1

3 0
 s    6 1.00
             3047.5249  0.0018347001629433
             457.36951    0.01403730124668
             103.94869   0.068842606114048
             29.210155    0.23218442062076
              9.286663    0.46794134155879
              3.163927    0.36231203217765
 s    3 1.00
             7.8682724   -0.11933240861517
             1.8812885   -0.16085421161283
             0.5442493     1.1434564825515
 s    1 1.00
             0.1687144                   1
 p    3 1.00
             7.8682724   0.068999095584993
             1.8812885    0.31642397975315
             0.5442493    0.74430825237435
 p    1 1.00
             0.1687144                   1
 d    1 1.00
                   0.8                   1

4 0
 s    3 1.00
             18.731137    0.03349459952309
             2.8253937    0.23472694665786
             0.6401217    0.81375731841339
 s    1 1.00
             0.1612778                   1

5 0
 s    6 1.00
             3047.5249  0.0018347001629433
             457.36951    0.01403730124668
             103.94869   0.068842606114048
             29.210155    0.23218442062076
              9.286663    0.46794134155879
              3.163927    0.36231203217765
 s    3 1.00
             7.8682724   -0.11933240861517
             1.8812885   -0.16085421161283
             0.5442493     1.1434564825515
 s    1 1.00
             0.1687144                   1
 p    3 1.00
             7.8682724   0.068999095584993
             1.8812885    0.31642397975315
             0.5442493    0.74430825237435
 p    1 1.00
             0.1687144                   1
 d    1 1.00
                   0.8                   1

6 0
 s    3 1.00
             18.731137    0.03349459952309
             2.8253937    0.23472694665786
             0.6401217    0.81375731841339
 s    1 1.00
             0.1612778                   1

7 0
 s    6 1.00
             3047.5249  0.0018347001629433
             457.36951    0.01403730124668
             103.94869   0.068842606114048
             29.210155    0.23218442062076
              9.286663    0.46794134155879
              3.163927    0.36231203217765
 s    3 1.00
             7.8682724   -0.11933240861517
             1.8812885   -0.16085421161283
             0.5442493     1.1434564825515
 s    1 1.00
             0.1687144                   1
 p    3 1.00
             7.8682724   0.068999095584993
             1.8812885    0.31642397975315
             0.5442493    0.74430825237435
 p    1 1.00
             0.1687144                   1
 d    1 1.00
                   0.8                   1

8 0
 s    3 1.00
             18.731137    0.03349459952309
             2.8253937    0.23472694665786
             0.6401217    0.81375731841339
 s    1 1.00
             0.1612778                   1

9 0
 s    3 1.00
             18.731137    0.03349459952309
             2.8253937    0.23472694665786
             0.6401217    0.81375731841339
 s    1 1.00
             0.1612778                   1

10 0
 s    6 1.00
             3047.5249  0.0018347001629433
             457.36951    0.01403730124668
             103.94869   0.068842606114048
             29.210155    0.23218442062076
              9.286663    0.46794134155879
              3.163927    0.36231203217765
 s    3 1.00
             7.8682724   -0.11933240861517
             1.8812885   -0.16085421161283
             0.5442493     1.1434564825515
 s    1 1.00
             0.1687144                   1
 p    3 1.00
             7.8682724   0.068999095584993
             1.8812885    0.31642397975315
             0.5442493    0.74430825237435
 p    1 1.00
             0.1687144                   1
 d    1 1.00
                   0.8                   1

11 0
 s    3 1.00
             18.731137    0.03349459952309
             2.8253937    0.23472694665786
             0.6401217    0.81375731841339
 s    1 1.00
             0.1612778                   1

12 0
 s    6 1.00
             3047.5249  0.0018347001629433
             457.36951    0.01403730124668
             103.94869   0.068842606114048
             29.210155    0.23218442062076
              9.286663    0.46794134155879
              3.163927    0.36231203217765
 s    3 1.00
             7.8682724   -0.11933240861517
             1.8812885   -0.16085421161283
             0.5442493     1.1434564825515
 s    1 1.00
             0.1687144                   1
 p    3 1.00
             7.8682724   0.068999095584993
             1.8812885    0.31642397975315
             0.5442493    0.74430825237435
 p    1 1.00
             0.1687144                   1
 d    1 1.00
                   0.8                   1

13 0
 s    3 1.00
             18.731137    0.03349459952309
             2.8253937    0.23472694665786
             0.6401217    0.81375731841339
 s    1 1.00
             0.1612778                   1

14 0
 s    3 1.00
             18.731137    0.03349459952309
             2.8253937    0.23472694665786
             0.6401217    0.81375731841339
 s    1 1.00
             0.1612778                   1

15 0
 s    6 1.00
             3047.5249  0.0018347001629433
             457.36951    0.01403730124668
             103.94869   0.068842606114048
             29.210155    0.23218442062076
              9.286663    0.46794134155879
              3.163927    0.36231203217765
 s    3 1.00
             7.8682724   -0.11933240861517
             1.8812885   -0.16085421161283
             0.5442493     1.1434564825515
 s    1 1.00
             0.1687144                   1
 p    3 1.00
             7.8682724   0.068999095584993
             1.8812885    0.31642397975315
             0.5442493    0.74430825237435
 p    1 1.00
             0.1687144                   1
 d    1 1.00
                   0.8                   1

16 0
 s    6 1.00
             3047.5249  0.0018347001629433
             457.36951    0.01403730124668
             103.94869   0.068842606114048
             29.210155    0.23218442062076
              9.286663    0.46794134155879
              3.163927    0.36231203217765
 s    3 1.00
             7.8682724   -0.11933240861517
             1.8812885   -0.16085421161283
             0.5442493     1.1434564825515
 s    1 1.00
             0.1687144                   1
 p    3 1.00
             7.8682724   0.068999095584993
             1.8812885    0.31642397975315
             0.5442493    0.74430825237435
 p    1 1.00
             0.1687144                   1
 d    1 1.00
                   0.8                   1

17 0
 s    6 1.00
             3047.5249  0.0018347001629433
             457.36951    0.01403730124668
             103.94869   0.068842606114048
             29.210155    0.23218442062076
              9.286663    0.46794134155879
              3.163927    0.36231203217765
 s    3 1.00
             7.8682724   -0.11933240861517
             1.8812885   -0.16085421161283
             0.5442493     1.1434564825515
 s    1 1.00
             0.1687144                   1
 p    3 1.00
             7.8682724   0.068999095584993
             1.8812885    0.31642397975315
             0.5442493    0.74430825237435
 p    1 1.00
             0.1687144                   1
 d    1 1.00
                   0.8                   1

18 0
 s    6 1.00
             3047.5249  0.0018347001629433
             457.36951    0.01403730124668
             103.94869   0.068842606114048
             29.210155    0.23218442062076
              9.286663    0.46794134155879
              3.163927    0.36231203217765
 s    3 1.00
             7.8682724   -0.11933240861517
             1.8812885   -0.16085421161283
             0.5442493     1.1434564825515
 s    1 1.00
             0.1687144                   1
 p    3 1.00
             7.8682724   0.068999095584993
             1.8812885    0.31642397975315
             0.5442493    0.74430825237435
 p    1 1.00
             0.1687144                   1
 d    1 1.00
                   0.8                   1

19 0
 s    6 1.00
             3047.5249  0.0018347001629433
             457.36951    0.01403730124668
             103.94869   0.068842606114048
             29.210155    0.23218442062076
              9.286663    0.46794134155879
              3.163927    0.36231203217765
 s    3 1.00
             7.8682724   -0.11933240861517
             1.8812885   -0.16085421161283
             0.5442493     1.1434564825515
 s    1 1.00
             0.1687144                   1
 p    3 1.00
             7.8682724   0.068999095584993
             1.8812885    0.31642397975315
             0.5442493    0.74430825237435
 p    1 1.00
             0.1687144                   1
 d    1 1.00
                   0.8                   1

20 0
 s    6 1.00
             3047.5249  0.0018347001629433
             457.36951    0.01403730124668
             103.94869   0.068842606114048
             29.210155    0.23218442062076
              9.286663    0.46794134155879
              3.163927    0.36231203217765
 s    3 1.00
             7.8682724   -0.11933240861517
             1.8812885   -0.16085421161283
             0.5442493     1.1434564825515
 s    1 1.00
             0.1687144                   1
 p    3 1.00
             7.8682724   0.068999095584993
             1.8812885    0.31642397975315
             0.5442493    0.74430825237435
 p    1 1.00
             0.1687144                   1
 d    1 1.00
                   0.8                   1

21 0
 s    6 1.00
             3047.5249  0.0018347001629433
             457.36951    0.01403730124668
             103.94869   0.068842606114048
             29.210155    0.23218442062076
              9.286663    0.46794134155879
              3.163927    0.36231203217765
 s    3 1.00
             7.8682724   -0.11933240861517
             1.8812885   -0.16085421161283
             0.5442493     1.1434564825515
 s    1 1.00
             0.1687144                   1
 p    3 1.00
             7.8682724   0.068999095584993
             1.8812885    0.31642397975315
             0.5442493    0.74430825237435
 p    1 1.00
             0.1687144                   1
 d    1 1.00
                   0.8                   1

22 0
 s    3 1.00
             18.731137    0.03349459952309
             2.8253937    0.23472694665786
             0.6401217    0.81375731841339
 s    1 1.00
             0.1612778                   1

23 0
 s    3 1.00
             18.731137    0.03349459952309
             2.8253937    0.23472694665786
             0.6401217    0.81375731841339
 s    1 1.00
             0.1612778                   1

24 0
 s    3 1.00
             18.731137    0.03349459952309
             2.8253937    0.23472694665786
             0.6401217    0.81375731841339
 s    1 1.00
             0.1612778                   1

25 0
 s    3 1.00
             18.731137    0.03349459952309
             2.8253937    0.23472694665786
             0.6401217    0.81375731841339
 s    1 1.00
             0.1612778                   1

26 0
 s    3 1.00
             18.731137    0.03349459952309
             2.8253937    0.23472694665786
             0.6401217    0.81375731841339
 s    1 1.00
             0.1612778                   1

27 0
 s    3 1.00
             18.731137    0.03349459952309
             2.8253937    0.23472694665786
             0.6401217    0.81375731841339
 s    1 1.00
             0.1612778                   1

28 0
 s    3 1.00
             18.731137    0.03349459952309
             2.8253937    0.23472694665786
             0.6401217    0.81375731841339
 s    1 1.00
             0.1612778                   1

29 0
 s    3 1.00
             18.731137    0.03349459952309
             2.8253937    0.23472694665786
             0.6401217    0.81375731841339
 s    1 1.00
             0.1612778                   1

30 0
 s    3 1.00
             18.731137    0.03349459952309
             2.8253937    0.23472694665786
             0.6401217    0.81375731841339
 s    1 1.00
             0.1612778                   1

31 0
 s    3 1.00
             18.731137    0.03349459952309
             2.8253937    0.23472694665786
             0.6401217    0.81375731841339
 s    1 1.00
             0.1612778                   1

32 0
 s    3 1.00
             18.731137    0.03349459952309
             2.8253937    0.23472694665786
             0.6401217    0.81375731841339
 s    1 1.00
             0.1612778                   1

33 0
 s    6 1.00
             3047.5249  0.0018347001629433
             457.36951    0.01403730124668
             103.94869   0.068842606114048
             29.210155    0.23218442062076
              9.286663    0.46794134155879
              3.163927    0.36231203217765
 s    3 1.00
             7.8682724   -0.11933240861517
             1.8812885   -0.16085421161283
             0.5442493     1.1434564825515
 s    1 1.00
             0.1687144                   1
 p    3 1.00
             7.8682724   0.068999095584993
             1.8812885    0.31642397975315
             0.5442493    0.74430825237435
 p    1 1.00
             0.1687144                   1
 d    1 1.00
                   0.8                   1

34 0
 s    6 1.00
             3047.5249  0.0018347001629433
             457.36951    0.01403730124668
             103.94869   0.068842606114048
             29.210155    0.23218442062076
              9.286663    0.46794134155879
              3.163927    0.36231203217765
 s    3 1.00
             7.8682724   -0.11933240861517
             1.8812885   -0.16085421161283
             0.5442493     1.1434564825515
 s    1 1.00
             0.1687144                   1
 p    3 1.00
             7.8682724   0.068999095584993
             1.8812885    0.31642397975315
             0.5442493    0.74430825237435
 p    1 1.00
             0.1687144                   1
 d    1 1.00
                   0.8                   1

35 0
 s    3 1.00
             18.731137    0.03349459952309
             2.8253937    0.23472694665786
             0.6401217    0.81375731841339
 s    1 1.00
             0.1612778                   1

36 0
 s    6 1.00
             3047.5249  0.0018347001629433
             457.36951    0.01403730124668
             103.94869   0.068842606114048
             29.210155    0.23218442062076
              9.286663    0.46794134155879
              3.163927    0.36231203217765
 s    3 1.00
             7.8682724   -0.11933240861517
             1.8812885   -0.16085421161283
             0.5442493     1.1434564825515
 s    1 1.00
             0.1687144                   1
 p    3 1.00
             7.8682724   0.068999095584993
             1.8812885    0.31642397975315
             0.5442493    0.74430825237435
 p    1 1.00
             0.1687144                   1
 d    1 1.00
                   0.8                   1

37 0
 s    3 1.00
             18.731137    0.03349459952309
             2.8253937    0.23472694665786
             0.6401217    0.81375731841339
 s    1 1.00
             0.1612778                   1

38 0
 s    3 1.00
             18.731137    0.03349459952309
             2.8253937    0.23472694665786
             0.6401217    0.81375731841339
 s    1 1.00
             0.1612778                   1

39 0
 s    6 1.00
             3047.5249  0.0018347001629433
             457.36951    0.01403730124668
             103.94869   0.068842606114048
             29.210155    0.23218442062076
              9.286663    0.46794134155879
              3.163927    0.36231203217765
 s    3 1.00
             7.8682724   -0.11933240861517
             1.8812885   -0.16085421161283
             0.5442493     1.1434564825515
 s    1 1.00
             0.1687144                   1
 p    3 1.00
             7.8682724   0.068999095584993
             1.8812885    0.31642397975315
             0.5442493    0.74430825237435
 p    1 1.00
             0.1687144                   1
 d    1 1.00
                   0.8                   1

40 0
 s    6 1.00
             3047.5249  0.0018347001629433
             457.36951    0.01403730124668
             103.94869   0.068842606114048
             29.210155    0.23218442062076
              9.286663    0.46794134155879
              3.163927    0.36231203217765
 s    3 1.00
             7.8682724   -0.11933240861517
             1.8812885   -0.16085421161283
             0.5442493     1.1434564825515
 s    1 1.00
             0.1687144                   1
 p    3 1.00
             7.8682724   0.068999095584993
             1.8812885    0.31642397975315
             0.5442493    0.74430825237435
 p    1 1.00
             0.1687144                   1
 d    1 1.00
                   0.8                   1

41 0
 s    3 1.00
             18.731137    0.03349459952309
             2.8253937    0.23472694665786
             0.6401217    0.81375731841339
 s    1 1.00
             0.1612778                   1

42 0
 s    6 1.00
             5484.6717   0.001831099805527
             825.23495   0.013950098518422
             188.04696    0.06844509273075
               52.9645    0.23271427528445
              16.89757    0.47019295006289
             5.7996353    0.35852086192309
 s    3 1.00
             15.539616   -0.11077750382508
             3.5999336   -0.14802630511126
             1.0137618     1.1307670390447
 s    1 1.00
             0.2700058                   1
 p    3 1.00
             15.539616   0.070874299543311
             3.5999336    0.33975279781076
             1.0137618    0.72715859531445
 p    1 1.00
             0.2700058                   1
 d    1 1.00
                   0.8                   1

43 0
 s    3 1.00
             18.731137    0.03349459952309
             2.8253937    0.23472694665786
             0.6401217    0.81375731841339
 s    1 1.00
             0.1612778                   1

[5d]
[7f]
[9g]

[MO]
 Sym= A
 Ene=               0
 Spin= Alpha
 Occup=    1.00000
   1    -0.015688429742305
   2    0.0011765784697597
   3    -0.007447466544456
   4    -0.00043541274392284
   5    8.6798715880293e-05
   6    -0.0013658106489554
   7    -0.00086142289172319
   8    -0.0010399106045952
   9    0.0053837449688973
  10    0.0010317819900241
  11    0.0009744753128543
  12    -0.00016479049995847
  13    0.00022968291206602
  14    -5.5704506487474e-05
  15    0.00052394360853474
  16    0.00098033362580985
  17      -0.9946440968953
  18    -0.039123213884945
  19     0.030744465871291
  20    -0.00094174211063301
  21    -0.00016936356873358
  22    0.00055774366500202
  23    0.0036692860015972
  24    0.0010574660276422
  25    0.00055440718997162
  26    -0.00083305350780852
  27    0.00029510962274637
  28    0.00038582227565856
  29    -0.00027917803875317
  30    -0.00013433843792253
  31    0.0012452220487537
  32    -0.0042664185167849
  33    -0.017160851423525
  34    0.00042215785558394
  35    -0.001991156034863
  36    -0.0009614328655019
  37    -0.00038207857948156
  38    0.0013527335084961
  39    0.0014034356593744
  40    -0.0032391168872513
  41    -0.0051419593366049
  42    0.00074044295257631
  43    -0.0012470472534874
  44    -0.00050508648989806
  45    0.00037122989572559
  46    0.00047319437198369
  47    0.00058300279496209
  48    0.00063865333076295
  49    0.00056320580773737
  50    0.00058578609841078
  51    -0.00044268128074986
  52    -0.00013252758973273
  53    -4.0052893284196e-05
  54    0.00047619251734669
  55    0.0033888535725304
  56    -0.00097101213030904
  57    -0.007495402717687
  58    0.00010121377124782
  59    -3.3821943078568e-05
  60    -0.00023347104971825
  61    0.00025633727653528
  62    1.1344099234022e-05
  63    0.00046483195704235
  64    -0.0002015785846476
  65    2.7707402040919e-06
  66    4.9492274902132e-06
  67    1.1683474718331e-07
  68    1.0969781409577e-06
  69    -8.6164073244068e-06
  70    -2.3411327655275e-06
  71    4.4583296761128e-06
  72    4.7170030372945e-07
  73    -1.251788099516e-05
  74    -2.4760220443238e-05
  75    -1.036716800183e-05
  76    2.0485141452375e-07
  77    4.2149463132164e-07
  78    -3.6247125327818e-07
  79    -6.0180940464647e-07
  80    7.6421605135409e-08
  81    -2.232805137875e-06
  82    -1.22563249339e-05
  83    -1.7019302054846e-07
  84    -1.4321509347087e-06
  85    6.266616391969e-05
  86    -3.2249240191883e-06
  87    -3.0828175110384e-06
  88    -5.0183064370984e-06
  89    -2.4577476682484e-05
  90    6.3035281976599e-05
  91    -5.7663510632402e-06
  92    -1.6353693094922e-06
  93    2.830539634807e-06
  94    -3.5601762074997e-06
  95    7.9141662828453e-07
  96    1.0824727989367e-06
  97    -6.275632560609e-06
  98    -1.1150036183928e-05
  99    3.1999730094976e-06
 100    1.8489034916999e-05
 101    1.2234256747549e-06
 102    1.3246324385114e-05
 103    -0.00024408919527422
 104    1.054030078289e-06
 105    6.1017813228875e-06
 106    2.9221156340555e-06
 107    0.00019248195862852
 108    -0.00018106822919253
 109    -0.00012731158860365
 110    5.9590134573918e-06
 111    1.8329061259644e-07
 112    -8.1139559383443e-08
 113    -2.1743204388125e-06
 114    5.2915445855779e-06
 115    3.3300803517163e-06
 116    3.3739743668857e-05
 117    -0.00023808032008578
 118    2.3872713407609e-06
 119    -3.2414849438532e-06
 120    -5.2468728929723e-06
 121    4.5761491082666e-05
 122    -7.5463999156388e-06
 123    -2.3809317005438e-05
 124    -1.6421896944261e-06
 125    2.4013239802362e-06
 126    2.5440221743554e-06
 127    -1.7186974099332e-07
 128    2.0110567193102e-06
 129    5.6693835101917e-06
 130    5.3926502810339e-05
 131    -0.00012632485634117
 132    -5.1613623975185e-06
 133    6.2733596666654e-06
 134    -2.2745049925681e-05
 135    0.00034897799860787
 136    -5.8109476918512e-05
 137    0.00039059379597054
 138    -9.4827299972155e-06
 139    -1.2619353572296e-05
 140    -5.4560337724367e-06
 141    -4.4425217676985e-06
 142    -6.6349719926998e-06
 143    1.553608366829e-06
 144    2.2646500394516e-05
 145    -1.0734063728507e-05
 146    -2.3252382383174e-06
 147    -7.0035797478954e-06
 148    -1.1086351303649e-05
 149    -9.7300348264702e-06
 150    1.5064120548209e-05
 151    4.3779533676915e-05
 152    7.1667123880452e-06
 153    3.4016249925479e-06
 154    2.5316117156052e-06
 155    -4.3274514703954e-06
 156    3.3759908408959e-06
 157    -1.2647240302508e-06
 158    -1.0272087677603e-05
 159    1.8084026607062e-05
 160    -5.9197006625026e-06
 161    6.7279702199248e-07
 162    6.7338445515405e-07
 163    4.4073120561871e-05
 164    -1.6859626500563e-05
 165    -7.7328055586314e-06
 166    -3.7001970992782e-06
 167    5.3773732998883e-08
 168    2.4704958019497e-07
 169    -4.802289547121e-07
 170    -1.5969058798185e-06
 171    4.7159431933001e-07
 172    1.212703694999e-05
 173    -2.2180969986247e-05
 174    3.4552608431134e-06
 175    7.948125844538e-09
 176    -1.0630285218962e-05
 177    8.3884707789533e-06
 178    3.746357234039e-06
 179    3.049543836088e-05
 180    -1.8226453459509e-06
 181    -4.314973240548e-06
 182    -5.6519327876669e-07
 183    1.532426429897e-06
 184    -1.2067508650792e-06
 185    3.2587411106356e-06
 186    2.813677983496e-05
 187    -7.8313844359934e-05
 188    2.3678169093533e-06
 189    -7.9404556973584e-07
 190    -5.0686407047206e-06
 191    -3.4735996722227e-07
 192    9.7933971161336e-06
 193    7.0851996577725e-05
 194    -3.483856783044e-06
 195    -1.4128824833172e-06
 196    -2.0655628639573e-06
 197    3.7066985896174e-07
 198    -3.0016540983503e-07
 199    7.6282656395302e-06
 200    1.2954162916593e-06
 201    1.9055594299016e-06
 202    -2.0937155049586e-05
 203    1.1330189402717e-05
 204    6.8856979588264e-06
 205    1.3749502716112e-06
 206    2.7297948302274e-05
 207    -1.1809587572776e-05
 208    7.538546958389e-05
 209    -9.7189662808133e-06
 210    2.7173744099094e-05
 211    -4.9983594921027e-06
 212    -1.5976117769418e-05
 213    7.4919257112703e-07
 214    1.955559367457e-05
 215    1.4216757285552e-06
 216    3.8926241356895e-05
 217    -1.286050207886e-06
 218    -7.6816175409002e-06
 219    -2.898612052096e-07
 220    6.6515894924198e-08
 221    6.8417568967942e-06
 222    7.6438537022772e-05
 223    -0.00077117861223463
 224    1.7005986736685e-05
 225    1.4007067202837e-06
 226    -1.2503096735698e-05
 227    -0.00063137091025347
 228    -0.00027729762441911
 229    0.0008246976021062
 230    2.7490724289911e-07
 231    3.9671020071898e-05
 232    2.0100628189759e-05
 233    -1.9839735447638e-05
 234    -2.1574679423262e-05
 235    1.8008737639511e-05
 236    4.7848771346236e-05
 237    -4.3992441418595e-05
 238    1.8986857525416e-05
 239    2.7469008922149e-07
 240    1.6885395059525e-06
 241    -0.00021951456280656
 242    -0.00030269716619793
 243    0.0015618458300352
 244    -1.7928772986338e-05
 245    -6.8073681426968e-05
 246    -1.5269477066243e-05
 247    -1.7470792773322e-05
 248    -2.1394295042945e-06
 249    2.9817236648547e-05
 250    -0.00032583853993775
 251    2.3687102252723e-05
 252    0.00038679420957326
 253    -0.001739463597564
 254    -9.5274963481699e-05
 255    4.5821606281586e-05
 256    -0.00023594538250923
 257    0.00027385382962707
 258    -0.00043943600173322
 259    0.0017757065687246
 260    7.680665716866e-05
 261    1.3604478916191e-05
 262    2.1121648885322e-05
 263    -0.00013762810868219
 264    -9.7707139663035e-05
 265    8.8177712709094e-05
 266    -0.00020374286487344
 267    0.00015042955128292
 268    0.00060999870826003
 269    7.3135741162909e-05
 270    0.00048427874772951
 271    -0.0063387088514249
 272    9.719262610193e-06
 273    -9.0736939743986e-05
 274    -0.00014466899632487
 275    0.0021022982798812
 276    0.0024867416641304
 277    -0.0022841087679092
 278    -6.8563816562568e-05
 279    0.0001743884345412
 280    6.3726732668825e-05
 281    1.4408095042355e-05