[Molden Format]
made by pyscf v[2.0.1]
[Atoms] (AU)
C   1   6     0.69100024066471     0.64692934207205    -3.48223131169301
H   2   1     2.68052439830868     1.13355088658700    -3.25784032593313
C   3   6    -0.36286361513219     0.85440132524594    -5.97030179418974
H   4   1    -2.35448549047279     0.36322488579172    -6.17995817793143
C   5   6     0.93697958957450     1.61209284601821    -8.05828437677121
H   6   1     1.25179717896080     3.62344259528190    -8.36861463213972
C   7   6     1.93299030663405    -0.10622024085708    -9.90534865945394
H   8   1     1.60367989661651    -2.11561190296467    -9.56827000221191
H   9   1     1.55630230933075    -1.92953025305990    12.99630010416247
C   10   6     0.75233899775814    -2.21270439606481    11.10705728102219
H   11   1    -0.43433408177274    -3.90944857546550    11.22216085340412
C   12   6     2.86362581178706    -2.63237380607947     9.17926416456045
H   13   1     4.39038949912609    -1.24955421540245     9.49899813497433
H   14   1     3.74629220191363    -4.48798724300892     9.47414880959024
C   15   6     2.02478325613682    -2.42177285709634     6.44560829588644
C   16   6     3.88048732735477    -3.58795445234514     4.61402886975252
C   17   6    -0.18412382258602    -1.30464291234259     5.76021113872346
C   18   6    -2.10044360464350    -0.26837831858460     7.71610340967100
C   19   6    -3.08956938670431     2.35282328359417     6.88693925039594
C   20   6    -4.37372924086464    -2.09766595989678     7.93610724222001
C   21   6    -0.83850430601230     0.06372213486173    10.33002307638377
H   22   1     0.38411922151109     1.74281358582432    10.27380136542181
H   23   1    -2.30980003007874     0.45460143924521    11.73986301809809
H   24   1     4.58527064644668    -5.38706904487420     5.36778158031719
H   25   1     5.54944938085014    -2.37631462192748     4.35398898413318
H   26   1     3.06633019150423    -3.94118377050688     2.75255466040884
H   27   1    -4.17727778763735     2.26573369139522     5.12914900961283
H   28   1    -1.52662344944051     3.68001877445626     6.59540397144508
H   29   1    -4.32916174397830     3.13643051467482     8.35225460090378
H   30   1    -5.32329548508442    -2.36691813602939     6.11583672749896
H   31   1    -5.77989366602257    -1.33896741843465     9.25748940450990
H   32   1    -3.79310905208926    -3.96389819310853     8.61386170102686
C   33   6    -1.01100794811226    -1.06331657314144     3.11929490449947
C   34   6     0.37686231036534    -0.33275864505552     1.09165013605873
H   35   1    -3.01671213906703    -1.40297922279997     2.77827895090944
C   36   6    -0.64382707979370    -0.11591880174385    -1.42063131251064
H   37   1     2.35569259782137     0.17174499283897     1.33641070251401
H   38   1    -2.63317482980319    -0.60229203511219    -1.66119700387645
C   39   6     3.23483881481583     0.56109494848388   -12.01167590238676
C   40   6     4.17213386166354    -1.33546547775814   -13.78129708499957
H   41   1     3.62751071831436     2.52907164005278   -12.45960989181140
O   42   8     5.35190984410731    -0.86987395658954   -15.70799822813352
H   43   1     3.72751838268070    -3.32497850208065   -13.24806737881206
[GTO]
1 0
 s    6 1.00
             3047.5249  0.0018347001629433
             457.36951    0.01403730124668
             103.94869   0.068842606114048
             29.210155    0.23218442062076
              9.286663    0.46794134155879
              3.163927    0.36231203217765
 s    3 1.00
             7.8682724   -0.11933240861517
             1.8812885   -0.16085421161283
             0.5442493     1.1434564825515
 s    1 1.00
             0.1687144                   1
 p    3 1.00
             7.8682724   0.068999095584993
             1.8812885    0.31642397975315
             0.5442493    0.74430825237435
 p    1 1.00
             0.1687144                   1
 d    1 1.00
                   0.8                   1

2 0
 s    3 1.00
             18.731137    0.03349459952309
             2.8253937    0.23472694665786
             0.6401217    0.81375731841339
 s    1 1.00
             0.1612778                   1

3 0
 s    6 1.00
             3047.5249  0.0018347001629433
             457.36951    0.01403730124668
             103.94869   0.068842606114048
             29.210155    0.23218442062076
              9.286663    0.46794134155879
              3.163927    0.36231203217765
 s    3 1.00
             7.8682724   -0.11933240861517
             1.8812885   -0.16085421161283
             0.5442493     1.1434564825515
 s    1 1.00
             0.1687144                   1
 p    3 1.00
             7.8682724   0.068999095584993
             1.8812885    0.31642397975315
             0.5442493    0.74430825237435
 p    1 1.00
             0.1687144                   1
 d    1 1.00
                   0.8                   1

4 0
 s    3 1.00
             18.731137    0.03349459952309
             2.8253937    0.23472694665786
             0.6401217    0.81375731841339
 s    1 1.00
             0.1612778                   1

5 0
 s    6 1.00
             3047.5249  0.0018347001629433
             457.36951    0.01403730124668
             103.94869   0.068842606114048
             29.210155    0.23218442062076
              9.286663    0.46794134155879
              3.163927    0.36231203217765
 s    3 1.00
             7.8682724   -0.11933240861517
             1.8812885   -0.16085421161283
             0.5442493     1.1434564825515
 s    1 1.00
             0.1687144                   1
 p    3 1.00
             7.8682724   0.068999095584993
             1.8812885    0.31642397975315
             0.5442493    0.74430825237435
 p    1 1.00
             0.1687144                   1
 d    1 1.00
                   0.8                   1

6 0
 s    3 1.00
             18.731137    0.03349459952309
             2.8253937    0.23472694665786
             0.6401217    0.81375731841339
 s    1 1.00
             0.1612778                   1

7 0
 s    6 1.00
             3047.5249  0.0018347001629433
             457.36951    0.01403730124668
             103.94869   0.068842606114048
             29.210155    0.23218442062076
              9.286663    0.46794134155879
              3.163927    0.36231203217765
 s    3 1.00
             7.8682724   -0.11933240861517
             1.8812885   -0.16085421161283
             0.5442493     1.1434564825515
 s    1 1.00
             0.1687144                   1
 p    3 1.00
             7.8682724   0.068999095584993
             1.8812885    0.31642397975315
             0.5442493    0.74430825237435
 p    1 1.00
             0.1687144                   1
 d    1 1.00
                   0.8                   1

8 0
 s    3 1.00
             18.731137    0.03349459952309
             2.8253937    0.23472694665786
             0.6401217    0.81375731841339
 s    1 1.00
             0.1612778                   1

9 0
 s    3 1.00
             18.731137    0.03349459952309
             2.8253937    0.23472694665786
             0.6401217    0.81375731841339
 s    1 1.00
             0.1612778                   1

10 0
 s    6 1.00
             3047.5249  0.0018347001629433
             457.36951    0.01403730124668
             103.94869   0.068842606114048
             29.210155    0.23218442062076
              9.286663    0.46794134155879
              3.163927    0.36231203217765
 s    3 1.00
             7.8682724   -0.11933240861517
             1.8812885   -0.16085421161283
             0.5442493     1.1434564825515
 s    1 1.00
             0.1687144                   1
 p    3 1.00
             7.8682724   0.068999095584993
             1.8812885    0.31642397975315
             0.5442493    0.74430825237435
 p    1 1.00
             0.1687144                   1
 d    1 1.00
                   0.8                   1

11 0
 s    3 1.00
             18.731137    0.03349459952309
             2.8253937    0.23472694665786
             0.6401217    0.81375731841339
 s    1 1.00
             0.1612778                   1

12 0
 s    6 1.00
             3047.5249  0.0018347001629433
             457.36951    0.01403730124668
             103.94869   0.068842606114048
             29.210155    0.23218442062076
              9.286663    0.46794134155879
              3.163927    0.36231203217765
 s    3 1.00
             7.8682724   -0.11933240861517
             1.8812885   -0.16085421161283
             0.5442493     1.1434564825515
 s    1 1.00
             0.1687144                   1
 p    3 1.00
             7.8682724   0.068999095584993
             1.8812885    0.31642397975315
             0.5442493    0.74430825237435
 p    1 1.00
             0.1687144                   1
 d    1 1.00
                   0.8                   1

13 0
 s    3 1.00
             18.731137    0.03349459952309
             2.8253937    0.23472694665786
             0.6401217    0.81375731841339
 s    1 1.00
             0.1612778                   1

14 0
 s    3 1.00
             18.731137    0.03349459952309
             2.8253937    0.23472694665786
             0.6401217    0.81375731841339
 s    1 1.00
             0.1612778                   1

15 0
 s    6 1.00
             3047.5249  0.0018347001629433
             457.36951    0.01403730124668
             103.94869   0.068842606114048
             29.210155    0.23218442062076
              9.286663    0.46794134155879
              3.163927    0.36231203217765
 s    3 1.00
             7.8682724   -0.11933240861517
             1.8812885   -0.16085421161283
             0.5442493     1.1434564825515
 s    1 1.00
             0.1687144                   1
 p    3 1.00
             7.8682724   0.068999095584993
             1.8812885    0.31642397975315
             0.5442493    0.74430825237435
 p    1 1.00
             0.1687144                   1
 d    1 1.00
                   0.8                   1

16 0
 s    6 1.00
             3047.5249  0.0018347001629433
             457.36951    0.01403730124668
             103.94869   0.068842606114048
             29.210155    0.23218442062076
              9.286663    0.46794134155879
              3.163927    0.36231203217765
 s    3 1.00
             7.8682724   -0.11933240861517
             1.8812885   -0.16085421161283
             0.5442493     1.1434564825515
 s    1 1.00
             0.1687144                   1
 p    3 1.00
             7.8682724   0.068999095584993
             1.8812885    0.31642397975315
             0.5442493    0.74430825237435
 p    1 1.00
             0.1687144                   1
 d    1 1.00
                   0.8                   1

17 0
 s    6 1.00
             3047.5249  0.0018347001629433
             457.36951    0.01403730124668
             103.94869   0.068842606114048
             29.210155    0.23218442062076
              9.286663    0.46794134155879
              3.163927    0.36231203217765
 s    3 1.00
             7.8682724   -0.11933240861517
             1.8812885   -0.16085421161283
             0.5442493     1.1434564825515
 s    1 1.00
             0.1687144                   1
 p    3 1.00
             7.8682724   0.068999095584993
             1.8812885    0.31642397975315
             0.5442493    0.74430825237435
 p    1 1.00
             0.1687144                   1
 d    1 1.00
                   0.8                   1

18 0
 s    6 1.00
             3047.5249  0.0018347001629433
             457.36951    0.01403730124668
             103.94869   0.068842606114048
             29.210155    0.23218442062076
              9.286663    0.46794134155879
              3.163927    0.36231203217765
 s    3 1.00
             7.8682724   -0.11933240861517
             1.8812885   -0.16085421161283
             0.5442493     1.1434564825515
 s    1 1.00
             0.1687144                   1
 p    3 1.00
             7.8682724   0.068999095584993
             1.8812885    0.31642397975315
             0.5442493    0.74430825237435
 p    1 1.00
             0.1687144                   1
 d    1 1.00
                   0.8                   1

19 0
 s    6 1.00
             3047.5249  0.0018347001629433
             457.36951    0.01403730124668
             103.94869   0.068842606114048
             29.210155    0.23218442062076
              9.286663    0.46794134155879
              3.163927    0.36231203217765
 s    3 1.00
             7.8682724   -0.11933240861517
             1.8812885   -0.16085421161283
             0.5442493     1.1434564825515
 s    1 1.00
             0.1687144                   1
 p    3 1.00
             7.8682724   0.068999095584993
             1.8812885    0.31642397975315
             0.5442493    0.74430825237435
 p    1 1.00
             0.1687144                   1
 d    1 1.00
                   0.8                   1

20 0
 s    6 1.00
             3047.5249  0.0018347001629433
             457.36951    0.01403730124668
             103.94869   0.068842606114048
             29.210155    0.23218442062076
              9.286663    0.46794134155879
              3.163927    0.36231203217765
 s    3 1.00
             7.8682724   -0.11933240861517
             1.8812885   -0.16085421161283
             0.5442493     1.1434564825515
 s    1 1.00
             0.1687144                   1
 p    3 1.00
             7.8682724   0.068999095584993
             1.8812885    0.31642397975315
             0.5442493    0.74430825237435
 p    1 1.00
             0.1687144                   1
 d    1 1.00
                   0.8                   1

21 0
 s    6 1.00
             3047.5249  0.0018347001629433
             457.36951    0.01403730124668
             103.94869   0.068842606114048
             29.210155    0.23218442062076
              9.286663    0.46794134155879
              3.163927    0.36231203217765
 s    3 1.00
             7.8682724   -0.11933240861517
             1.8812885   -0.16085421161283
             0.5442493     1.1434564825515
 s    1 1.00
             0.1687144                   1
 p    3 1.00
             7.8682724   0.068999095584993
             1.8812885    0.31642397975315
             0.5442493    0.74430825237435
 p    1 1.00
             0.1687144                   1
 d    1 1.00
                   0.8                   1

22 0
 s    3 1.00
             18.731137    0.03349459952309
             2.8253937    0.23472694665786
             0.6401217    0.81375731841339
 s    1 1.00
             0.1612778                   1

23 0
 s    3 1.00
             18.731137    0.03349459952309
             2.8253937    0.23472694665786
             0.6401217    0.81375731841339
 s    1 1.00
             0.1612778                   1

24 0
 s    3 1.00
             18.731137    0.03349459952309
             2.8253937    0.23472694665786
             0.6401217    0.81375731841339
 s    1 1.00
             0.1612778                   1

25 0
 s    3 1.00
             18.731137    0.03349459952309
             2.8253937    0.23472694665786
             0.6401217    0.81375731841339
 s    1 1.00
             0.1612778                   1

26 0
 s    3 1.00
             18.731137    0.03349459952309
             2.8253937    0.23472694665786
             0.6401217    0.81375731841339
 s    1 1.00
             0.1612778                   1

27 0
 s    3 1.00
             18.731137    0.03349459952309
             2.8253937    0.23472694665786
             0.6401217    0.81375731841339
 s    1 1.00
             0.1612778                   1

28 0
 s    3 1.00
             18.731137    0.03349459952309
             2.8253937    0.23472694665786
             0.6401217    0.81375731841339
 s    1 1.00
             0.1612778                   1

29 0
 s    3 1.00
             18.731137    0.03349459952309
             2.8253937    0.23472694665786
             0.6401217    0.81375731841339
 s    1 1.00
             0.1612778                   1

30 0
 s    3 1.00
             18.731137    0.03349459952309
             2.8253937    0.23472694665786
             0.6401217    0.81375731841339
 s    1 1.00
             0.1612778                   1

31 0
 s    3 1.00
             18.731137    0.03349459952309
             2.8253937    0.23472694665786
             0.6401217    0.81375731841339
 s    1 1.00
             0.1612778                   1

32 0
 s    3 1.00
             18.731137    0.03349459952309
             2.8253937    0.23472694665786
             0.6401217    0.81375731841339
 s    1 1.00
             0.1612778                   1

33 0
 s    6 1.00
             3047.5249  0.0018347001629433
             457.36951    0.01403730124668
             103.94869   0.068842606114048
             29.210155    0.23218442062076
              9.286663    0.46794134155879
              3.163927    0.36231203217765
 s    3 1.00
             7.8682724   -0.11933240861517
             1.8812885   -0.16085421161283
             0.5442493     1.1434564825515
 s    1 1.00
             0.1687144                   1
 p    3 1.00
             7.8682724   0.068999095584993
             1.8812885    0.31642397975315
             0.5442493    0.74430825237435
 p    1 1.00
             0.1687144                   1
 d    1 1.00
                   0.8                   1

34 0
 s    6 1.00
             3047.5249  0.0018347001629433
             457.36951    0.01403730124668
             103.94869   0.068842606114048
             29.210155    0.23218442062076
              9.286663    0.46794134155879
              3.163927    0.36231203217765
 s    3 1.00
             7.8682724   -0.11933240861517
             1.8812885   -0.16085421161283
             0.5442493     1.1434564825515
 s    1 1.00
             0.1687144                   1
 p    3 1.00
             7.8682724   0.068999095584993
             1.8812885    0.31642397975315
             0.5442493    0.74430825237435
 p    1 1.00
             0.1687144                   1
 d    1 1.00
                   0.8                   1

35 0
 s    3 1.00
             18.731137    0.03349459952309
             2.8253937    0.23472694665786
             0.6401217    0.81375731841339
 s    1 1.00
             0.1612778                   1

36 0
 s    6 1.00
             3047.5249  0.0018347001629433
             457.36951    0.01403730124668
             103.94869   0.068842606114048
             29.210155    0.23218442062076
              9.286663    0.46794134155879
              3.163927    0.36231203217765
 s    3 1.00
             7.8682724   -0.11933240861517
             1.8812885   -0.16085421161283
             0.5442493     1.1434564825515
 s    1 1.00
             0.1687144                   1
 p    3 1.00
             7.8682724   0.068999095584993
             1.8812885    0.31642397975315
             0.5442493    0.74430825237435
 p    1 1.00
             0.1687144                   1
 d    1 1.00
                   0.8                   1

37 0
 s    3 1.00
             18.731137    0.03349459952309
             2.8253937    0.23472694665786
             0.6401217    0.81375731841339
 s    1 1.00
             0.1612778                   1

38 0
 s    3 1.00
             18.731137    0.03349459952309
             2.8253937    0.23472694665786
             0.6401217    0.81375731841339
 s    1 1.00
             0.1612778                   1

39 0
 s    6 1.00
             3047.5249  0.0018347001629433
             457.36951    0.01403730124668
             103.94869   0.068842606114048
             29.210155    0.23218442062076
              9.286663    0.46794134155879
              3.163927    0.36231203217765
 s    3 1.00
             7.8682724   -0.11933240861517
             1.8812885   -0.16085421161283
             0.5442493     1.1434564825515
 s    1 1.00
             0.1687144                   1
 p    3 1.00
             7.8682724   0.068999095584993
             1.8812885    0.31642397975315
             0.5442493    0.74430825237435
 p    1 1.00
             0.1687144                   1
 d    1 1.00
                   0.8                   1

40 0
 s    6 1.00
             3047.5249  0.0018347001629433
             457.36951    0.01403730124668
             103.94869   0.068842606114048
             29.210155    0.23218442062076
              9.286663    0.46794134155879
              3.163927    0.36231203217765
 s    3 1.00
             7.8682724   -0.11933240861517
             1.8812885   -0.16085421161283
             0.5442493     1.1434564825515
 s    1 1.00
             0.1687144                   1
 p    3 1.00
             7.8682724   0.068999095584993
             1.8812885    0.31642397975315
             0.5442493    0.74430825237435
 p    1 1.00
             0.1687144                   1
 d    1 1.00
                   0.8                   1

41 0
 s    3 1.00
             18.731137    0.03349459952309
             2.8253937    0.23472694665786
             0.6401217    0.81375731841339
 s    1 1.00
             0.1612778                   1

42 0
 s    6 1.00
             5484.6717   0.001831099805527
             825.23495   0.013950098518422
             188.04696    0.06844509273075
               52.9645    0.23271427528445
              16.89757    0.47019295006289
             5.7996353    0.35852086192309
 s    3 1.00
             15.539616   -0.11077750382508
             3.5999336   -0.14802630511126
             1.0137618     1.1307670390447
 s    1 1.00
             0.2700058                   1
 p    3 1.00
             15.539616   0.070874299543311
             3.5999336    0.33975279781076
             1.0137618    0.72715859531445
 p    1 1.00
             0.2700058                   1
 d    1 1.00
                   0.8                   1

43 0
 s    3 1.00
             18.731137    0.03349459952309
             2.8253937    0.23472694665786
             0.6401217    0.81375731841339
 s    1 1.00
             0.1612778                   1

[5d]
[7f]
[9g]

[MO]
 Sym= A
 Ene=               0
 Spin= Alpha
 Occup=    1.00000
   1     0.016402021542171
   2    -0.0011670194273799
   3    0.0076231951812763
   4    0.00043213819607279
   5    -0.00011811999217518
   6    0.0013594114826853
   7    0.00089154113426049
   8     0.001225968988686
   9    -0.005880622304073
  10    -0.0010108593800791
  11    -0.00096115436207554
  12    0.00016360208515073
  13    -0.00022107421249312
  14    5.3881841629514e-05
  15    -0.00054102835613344
  16    -0.0009848720854672
  17      0.99468747595278
  18     0.039288873080072
  19     -0.03124198807511
  20    0.0010001215208789
  21    0.00017687488380033
  22    -0.00062267579891897
  23    -0.0038975155076647
  24    -0.0011265348764624
  25    -0.00075472639406005
  26    0.00081798266385695
  27    -0.00031239173587045
  28    -0.00037003161217153
  29    0.00028510681212878
  30    0.00016044646918116
  31    -0.0012724319591048
  32    0.0042470276767771
  33       0.0145133136242
  34    -0.00037323616921244
  35    0.0013535037106677
  36    0.00096055611160019
  37    0.0003751074865892
  38    -0.001317843668714
  39    -0.0020361265327589
  40    0.0037104291735598
  41     0.004902594327544
  42    -0.00071331361193057
  43    0.0012965473979655
  44    0.00050564413322915
  45    -0.00037141170716361
  46    -0.00044880968346964
  47    -0.00060178007072648
  48    -0.00065116454057675
  49    -0.00044699210011329
  50    -0.00060539500247863
  51    0.00040346308606547
  52    0.00021141652877518
  53    2.3050810744694e-05
  54    -0.00047043381129214
  55    -0.0044665437119047
  56    0.0012403303525554
  57    0.0078341877582258
  58    -0.00013827003880881
  59    3.2378879771419e-06
  60    0.00021751364330871
  61    -0.00028222806982899
  62    -0.00011428151397723
  63    -0.00050626259632701
  64    0.00026600543186736
  65    -2.9099601379959e-06
  66    -4.6159549172705e-06
  67    -1.2555842266777e-07
  68    -1.4763172026411e-06
  69    8.2898620996715e-06
  70    2.4808616567325e-06
  71    -4.8572596692549e-06
  72    -3.1201106701815e-07
  73    1.3759547991657e-05
  74    2.6548606949706e-05
  75    1.014397161582e-05
  76    -1.4648605687439e-07
  77    -3.9317021736513e-07
  78    3.8826500156032e-07
  79    6.4823919214294e-07
  80    -4.6644631814194e-08
  81    2.4783590656597e-06
  82    1.328110666474e-05
  83    2.5245984800075e-07
  84    1.7066306584841e-06
  85    -6.9457059974346e-05
  86    3.7058925542251e-06
  87    3.3138567728272e-06
  88    5.5424321590056e-06
  89    2.6401295165836e-05
  90    -6.8205766113382e-05
  91    7.0277266142918e-06
  92    1.6950149009695e-06
  93    -2.9932991701282e-06
  94    3.9708749866851e-06
  95    -8.5294557888913e-07
  96    -1.1235251977694e-06
  97    7.1758805989184e-06
  98    1.2516072693981e-05
  99    -3.5225933555438e-06
 100    -2.0050489402265e-05
 101    -1.3696686655878e-06
 102    -1.3495533595355e-05
 103    0.00026253163784099
 104    -1.876738993259e-06
 105    -7.466875082127e-06
 106    -3.6354638152877e-06
 107    -0.00020656130783845
 108    0.0001962762005617
 109    0.00013823445077811
 110    -6.220467598805e-06
 111    -2.8829499005877e-08
 112    2.607812210747e-09
 113    1.8889023896084e-06
 114    -5.8199624484519e-06
 115    -3.4736201339203e-06
 116    -3.4801290529979e-05
 117    0.00025021866393715
 118    -2.5588790740141e-06
 119    3.4892249262874e-06
 120    5.4219472690754e-06
 121    -4.9287621217506e-05
 122    8.2910850290613e-06
 123    2.9070691531652e-05
 124    1.7465221578933e-06
 125    -2.823832327837e-06
 126    -2.7269092972327e-06
 127    3.8822273500179e-07
 128    -2.2014457320425e-06
 129    -5.8214767478084e-06
 130    -5.5922203844186e-05
 131    0.00014921054140608
 132    6.4909916931779e-06
 133    -5.6705891583833e-06
 134    2.3326265434405e-05
 135    -0.00038168901543118
 136    5.4775619805709e-05
 137    -0.00042195571851382
 138    9.9485152979909e-06
 139    1.3712266821958e-05
 140    6.1075292282992e-06
 141    4.6512995981698e-06
 142    7.2588828718636e-06
 143    -1.7790271675056e-06
 144    -2.5958823851995e-05
 145    1.342908797744e-05
 146    2.3158814769836e-06
 147    6.7640810362608e-06
 148    1.3238684547449e-05
 149    1.0127492373131e-05
 150    -4.874810876599e-06
 151    -5.7121131560308e-05
 152    -7.5430510131363e-06
 153    -3.7758861421509e-06
 154    -3.1591684240331e-06
 155    4.4885011962141e-06
 156    -3.946586169245e-06
 157    1.5893719018627e-06
 158    1.247503630795e-05
 159    -3.1372696721456e-05
 160    6.3151083964577e-06
 161    -2.7598960749683e-07
 162    -1.1414070634736e-06
 163    -4.9982511016374e-05
 164    2.244761504017e-05
 165    1.0009577276611e-05
 166    4.3165623401096e-06
 167    -3.7851306472904e-07
 168    -2.3007216585858e-07
 169    7.2696963280716e-07
 170    1.9010875563262e-06
 171    -4.9207215212533e-07
 172    -1.269156808741e-05
 173    2.3008672250724e-05
 174    -3.9725339406775e-06
 175    -1.2769104235198e-07
 176    1.1563797790101e-05
 177    -3.5008527191498e-06
 178    -2.5269675524862e-06
 179    -2.9407898952685e-05
 180    1.7656556787646e-06
 181    4.9161076531772e-06
 182    7.070074212469e-07
 183    -1.3869772667334e-06
 184    1.596796191314e-06
 185    -3.5793363076911e-06
 186    -3.0778968726814e-05
 187    8.9468666198432e-05
 188    -2.7307493514808e-06
 189    7.5318274928711e-07
 190    5.202305401349e-06
 191    -1.0764347571448e-06
 192    -1.3059107675986e-05
 193    -7.7177228368074e-05
 194    3.6712712735294e-06
 195    1.7205149192593e-06
 196    2.6300462102653e-06
 197    -4.2985990879607e-07
 198    4.1116592557886e-07
 199    -8.2501186459257e-06
 200    -6.4623385457985e-07
 201    -2.2594913935676e-06
 202    2.179243499633e-05
 203    -1.2082951898591e-05
 204    -7.6052486174927e-06
 205    -7.5489505639767e-07
 206    -2.8603331033476e-05
 207    1.1582194568074e-05
 208    -7.3109609332572e-05
 209    1.1034821514813e-05
 210    -2.7878957749304e-05
 211    5.9968741486907e-06
 212    1.8009140568809e-05
 213    -6.2014507164832e-07
 214    -2.1649299687687e-05
 215    -2.5602348891885e-06
 216    -3.2831864741747e-05
 217    1.5761398950679e-06
 218    8.7912707977707e-06
 219    5.0639989254824e-07
 220    -9.5105284570635e-07
 221    -8.509663674295e-06
 222    -8.8382483230141e-05
 223    0.00088420358750156
 224    -1.5502702823142e-05
 225    -3.1936036287353e-07
 226    1.3209040816277e-05
 227    0.00066507855104739
 228    0.00030972451704489
 229    -0.00093834319767066
 230    1.7148863559207e-06
 231    -4.433165780724e-05
 232    -2.2572453274831e-05
 233    2.2002235651511e-05
 234    2.3357287802686e-05
 235    -1.657250448016e-05
 236    -4.2179567248959e-05
 237    -0.00016361237242851
 238    -2.1105024509927e-05
 239    -3.317796911072e-06
 240    7.2060597576567e-06
 241    0.00028509233285768
 242    0.00033727381753396
 243    -0.0016040217449964
 244    1.3053102073797e-05
 245    7.3214058311039e-05
 246    1.6426735026116e-05
 247    1.8950183128343e-05
 248    3.3237328742008e-07
 249    -3.3820582083301e-05
 250    0.00032662124334667
 251    -2.6548996884788e-05
 252    -0.00041296364937493
 253    0.0020975697280084
 254    8.9542349823514e-05
 255    -4.6238427836927e-05
 256    0.00023341909875952
 257    -9.0218194803505e-05
 258    0.0004539045953854
 259    -0.0018363934492738
 260    -7.2351084753209e-05
 261    -1.8672756173897e-05
 262    -2.0669649400899e-05
 263    0.00014395586097315
 264    9.6336087514508e-05
 265    -9.4312126845328e-05
 266    0.0002123496231058
 267    -0.00014650143720711
 268    -0.00056726844576349
 269    -7.9960613765073e-05
 270    -0.00053360407601708
 271    0.0070148041445918
 272    -4.0889394745774e-05
 273    0.00011349074774399
 274    0.00014766144592232
 275    -0.0019328301634346
 276    -0.0028777290454459
 277    0.0026439063339519
 278    7.9029697734009e-05
 279    -0.00018938532961259
 280    -8.6159079651071e-05