[Molden Format]
made by pyscf v[2.0.1]
[Atoms] (AU)
C   1   6     0.69100024066471     0.64692934207205    -3.48223131169301
H   2   1     2.68052439830868     1.13355088658700    -3.25784032593313
C   3   6    -0.36286361513219     0.85440132524594    -5.97030179418974
H   4   1    -2.35448549047279     0.36322488579172    -6.17995817793143
C   5   6     0.93697958957450     1.61209284601821    -8.05828437677121
H   6   1     0.88481995546627     3.59633991549139    -8.60690604548455
C   7   6     2.39466048338875    -0.07229584893402    -9.60563204708460
H   8   1     2.43004158789144    -2.05446799383120    -9.03164251308345
H   9   1     1.55630230933075    -1.92953025305990    12.99630010416247
C   10   6     0.75233899775814    -2.21270439606481    11.10705728102219
H   11   1    -0.43433408177274    -3.90944857546550    11.22216085340412
C   12   6     2.86362581178706    -2.63237380607947     9.17926416456045
H   13   1     4.39038949912609    -1.24955421540245     9.49899813497433
H   14   1     3.74629220191363    -4.48798724300892     9.47414880959024
C   15   6     2.02478325613682    -2.42177285709634     6.44560829588644
C   16   6     3.88048732735477    -3.58795445234514     4.61402886975252
C   17   6    -0.18412382258602    -1.30464291234259     5.76021113872346
C   18   6    -2.10044360464350    -0.26837831858460     7.71610340967100
C   19   6    -3.08956938670431     2.35282328359417     6.88693925039594
C   20   6    -4.37372924086464    -2.09766595989678     7.93610724222001
C   21   6    -0.83850430601230     0.06372213486173    10.33002307638377
H   22   1     0.38411922151109     1.74281358582432    10.27380136542181
H   23   1    -2.30980003007874     0.45460143924521    11.73986301809809
H   24   1     4.58527064644668    -5.38706904487420     5.36778158031719
H   25   1     5.54944938085014    -2.37631462192748     4.35398898413318
H   26   1     3.06633019150423    -3.94118377050688     2.75255466040884
H   27   1    -4.17727778763735     2.26573369139522     5.12914900961283
H   28   1    -1.52662344944051     3.68001877445626     6.59540397144508
H   29   1    -4.32916174397830     3.13643051467482     8.35225460090378
H   30   1    -5.32329548508442    -2.36691813602939     6.11583672749896
H   31   1    -5.77989366602257    -1.33896741843465     9.25748940450990
H   32   1    -3.79310905208926    -3.96389819310853     8.61386170102686
C   33   6    -1.01100794811226    -1.06331657314144     3.11929490449947
C   34   6     0.37686231036534    -0.33275864505552     1.09165013605873
H   35   1    -3.01671213906703    -1.40297922279997     2.77827895090944
C   36   6    -0.64382707979370    -0.11591880174385    -1.42063131251064
H   37   1     2.35569259782137     0.17174499283897     1.33641070251401
H   38   1    -2.63317482980319    -0.60229203511219    -1.66119700387645
C   39   6     3.71533383510959     0.59576232705089   -11.69997054074953
C   40   6     5.14333780052268    -1.26490852400141   -13.15108433486960
H   41   1     3.75910290759049     2.53760054456126   -12.37459410036833
O   42   8     6.36836167706676    -0.79692659131490   -15.04874962161569
H   43   1     5.04579305514285    -3.22830651971947   -12.39231411193817
[GTO]
1 0
 s    6 1.00
             3047.5249  0.0018347001629433
             457.36951    0.01403730124668
             103.94869   0.068842606114048
             29.210155    0.23218442062076
              9.286663    0.46794134155879
              3.163927    0.36231203217765
 s    3 1.00
             7.8682724   -0.11933240861517
             1.8812885   -0.16085421161283
             0.5442493     1.1434564825515
 s    1 1.00
             0.1687144                   1
 p    3 1.00
             7.8682724   0.068999095584993
             1.8812885    0.31642397975315
             0.5442493    0.74430825237435
 p    1 1.00
             0.1687144                   1
 d    1 1.00
                   0.8                   1

2 0
 s    3 1.00
             18.731137    0.03349459952309
             2.8253937    0.23472694665786
             0.6401217    0.81375731841339
 s    1 1.00
             0.1612778                   1

3 0
 s    6 1.00
             3047.5249  0.0018347001629433
             457.36951    0.01403730124668
             103.94869   0.068842606114048
             29.210155    0.23218442062076
              9.286663    0.46794134155879
              3.163927    0.36231203217765
 s    3 1.00
             7.8682724   -0.11933240861517
             1.8812885   -0.16085421161283
             0.5442493     1.1434564825515
 s    1 1.00
             0.1687144                   1
 p    3 1.00
             7.8682724   0.068999095584993
             1.8812885    0.31642397975315
             0.5442493    0.74430825237435
 p    1 1.00
             0.1687144                   1
 d    1 1.00
                   0.8                   1

4 0
 s    3 1.00
             18.731137    0.03349459952309
             2.8253937    0.23472694665786
             0.6401217    0.81375731841339
 s    1 1.00
             0.1612778                   1

5 0
 s    6 1.00
             3047.5249  0.0018347001629433
             457.36951    0.01403730124668
             103.94869   0.068842606114048
             29.210155    0.23218442062076
              9.286663    0.46794134155879
              3.163927    0.36231203217765
 s    3 1.00
             7.8682724   -0.11933240861517
             1.8812885   -0.16085421161283
             0.5442493     1.1434564825515
 s    1 1.00
             0.1687144                   1
 p    3 1.00
             7.8682724   0.068999095584993
             1.8812885    0.31642397975315
             0.5442493    0.74430825237435
 p    1 1.00
             0.1687144                   1
 d    1 1.00
                   0.8                   1

6 0
 s    3 1.00
             18.731137    0.03349459952309
             2.8253937    0.23472694665786
             0.6401217    0.81375731841339
 s    1 1.00
             0.1612778                   1

7 0
 s    6 1.00
             3047.5249  0.0018347001629433
             457.36951    0.01403730124668
             103.94869   0.068842606114048
             29.210155    0.23218442062076
              9.286663    0.46794134155879
              3.163927    0.36231203217765
 s    3 1.00
             7.8682724   -0.11933240861517
             1.8812885   -0.16085421161283
             0.5442493     1.1434564825515
 s    1 1.00
             0.1687144                   1
 p    3 1.00
             7.8682724   0.068999095584993
             1.8812885    0.31642397975315
             0.5442493    0.74430825237435
 p    1 1.00
             0.1687144                   1
 d    1 1.00
                   0.8                   1

8 0
 s    3 1.00
             18.731137    0.03349459952309
             2.8253937    0.23472694665786
             0.6401217    0.81375731841339
 s    1 1.00
             0.1612778                   1

9 0
 s    3 1.00
             18.731137    0.03349459952309
             2.8253937    0.23472694665786
             0.6401217    0.81375731841339
 s    1 1.00
             0.1612778                   1

10 0
 s    6 1.00
             3047.5249  0.0018347001629433
             457.36951    0.01403730124668
             103.94869   0.068842606114048
             29.210155    0.23218442062076
              9.286663    0.46794134155879
              3.163927    0.36231203217765
 s    3 1.00
             7.8682724   -0.11933240861517
             1.8812885   -0.16085421161283
             0.5442493     1.1434564825515
 s    1 1.00
             0.1687144                   1
 p    3 1.00
             7.8682724   0.068999095584993
             1.8812885    0.31642397975315
             0.5442493    0.74430825237435
 p    1 1.00
             0.1687144                   1
 d    1 1.00
                   0.8                   1

11 0
 s    3 1.00
             18.731137    0.03349459952309
             2.8253937    0.23472694665786
             0.6401217    0.81375731841339
 s    1 1.00
             0.1612778                   1

12 0
 s    6 1.00
             3047.5249  0.0018347001629433
             457.36951    0.01403730124668
             103.94869   0.068842606114048
             29.210155    0.23218442062076
              9.286663    0.46794134155879
              3.163927    0.36231203217765
 s    3 1.00
             7.8682724   -0.11933240861517
             1.8812885   -0.16085421161283
             0.5442493     1.1434564825515
 s    1 1.00
             0.1687144                   1
 p    3 1.00
             7.8682724   0.068999095584993
             1.8812885    0.31642397975315
             0.5442493    0.74430825237435
 p    1 1.00
             0.1687144                   1
 d    1 1.00
                   0.8                   1

13 0
 s    3 1.00
             18.731137    0.03349459952309
             2.8253937    0.23472694665786
             0.6401217    0.81375731841339
 s    1 1.00
             0.1612778                   1

14 0
 s    3 1.00
             18.731137    0.03349459952309
             2.8253937    0.23472694665786
             0.6401217    0.81375731841339
 s    1 1.00
             0.1612778                   1

15 0
 s    6 1.00
             3047.5249  0.0018347001629433
             457.36951    0.01403730124668
             103.94869   0.068842606114048
             29.210155    0.23218442062076
              9.286663    0.46794134155879
              3.163927    0.36231203217765
 s    3 1.00
             7.8682724   -0.11933240861517
             1.8812885   -0.16085421161283
             0.5442493     1.1434564825515
 s    1 1.00
             0.1687144                   1
 p    3 1.00
             7.8682724   0.068999095584993
             1.8812885    0.31642397975315
             0.5442493    0.74430825237435
 p    1 1.00
             0.1687144                   1
 d    1 1.00
                   0.8                   1

16 0
 s    6 1.00
             3047.5249  0.0018347001629433
             457.36951    0.01403730124668
             103.94869   0.068842606114048
             29.210155    0.23218442062076
              9.286663    0.46794134155879
              3.163927    0.36231203217765
 s    3 1.00
             7.8682724   -0.11933240861517
             1.8812885   -0.16085421161283
             0.5442493     1.1434564825515
 s    1 1.00
             0.1687144                   1
 p    3 1.00
             7.8682724   0.068999095584993
             1.8812885    0.31642397975315
             0.5442493    0.74430825237435
 p    1 1.00
             0.1687144                   1
 d    1 1.00
                   0.8                   1

17 0
 s    6 1.00
             3047.5249  0.0018347001629433
             457.36951    0.01403730124668
             103.94869   0.068842606114048
             29.210155    0.23218442062076
              9.286663    0.46794134155879
              3.163927    0.36231203217765
 s    3 1.00
             7.8682724   -0.11933240861517
             1.8812885   -0.16085421161283
             0.5442493     1.1434564825515
 s    1 1.00
             0.1687144                   1
 p    3 1.00
             7.8682724   0.068999095584993
             1.8812885    0.31642397975315
             0.5442493    0.74430825237435
 p    1 1.00
             0.1687144                   1
 d    1 1.00
                   0.8                   1

18 0
 s    6 1.00
             3047.5249  0.0018347001629433
             457.36951    0.01403730124668
             103.94869   0.068842606114048
             29.210155    0.23218442062076
              9.286663    0.46794134155879
              3.163927    0.36231203217765
 s    3 1.00
             7.8682724   -0.11933240861517
             1.8812885   -0.16085421161283
             0.5442493     1.1434564825515
 s    1 1.00
             0.1687144                   1
 p    3 1.00
             7.8682724   0.068999095584993
             1.8812885    0.31642397975315
             0.5442493    0.74430825237435
 p    1 1.00
             0.1687144                   1
 d    1 1.00
                   0.8                   1

19 0
 s    6 1.00
             3047.5249  0.0018347001629433
             457.36951    0.01403730124668
             103.94869   0.068842606114048
             29.210155    0.23218442062076
              9.286663    0.46794134155879
              3.163927    0.36231203217765
 s    3 1.00
             7.8682724   -0.11933240861517
             1.8812885   -0.16085421161283
             0.5442493     1.1434564825515
 s    1 1.00
             0.1687144                   1
 p    3 1.00
             7.8682724   0.068999095584993
             1.8812885    0.31642397975315
             0.5442493    0.74430825237435
 p    1 1.00
             0.1687144                   1
 d    1 1.00
                   0.8                   1

20 0
 s    6 1.00
             3047.5249  0.0018347001629433
             457.36951    0.01403730124668
             103.94869   0.068842606114048
             29.210155    0.23218442062076
              9.286663    0.46794134155879
              3.163927    0.36231203217765
 s    3 1.00
             7.8682724   -0.11933240861517
             1.8812885   -0.16085421161283
             0.5442493     1.1434564825515
 s    1 1.00
             0.1687144                   1
 p    3 1.00
             7.8682724   0.068999095584993
             1.8812885    0.31642397975315
             0.5442493    0.74430825237435
 p    1 1.00
             0.1687144                   1
 d    1 1.00
                   0.8                   1

21 0
 s    6 1.00
             3047.5249  0.0018347001629433
             457.36951    0.01403730124668
             103.94869   0.068842606114048
             29.210155    0.23218442062076
              9.286663    0.46794134155879
              3.163927    0.36231203217765
 s    3 1.00
             7.8682724   -0.11933240861517
             1.8812885   -0.16085421161283
             0.5442493     1.1434564825515
 s    1 1.00
             0.1687144                   1
 p    3 1.00
             7.8682724   0.068999095584993
             1.8812885    0.31642397975315
             0.5442493    0.74430825237435
 p    1 1.00
             0.1687144                   1
 d    1 1.00
                   0.8                   1

22 0
 s    3 1.00
             18.731137    0.03349459952309
             2.8253937    0.23472694665786
             0.6401217    0.81375731841339
 s    1 1.00
             0.1612778                   1

23 0
 s    3 1.00
             18.731137    0.03349459952309
             2.8253937    0.23472694665786
             0.6401217    0.81375731841339
 s    1 1.00
             0.1612778                   1

24 0
 s    3 1.00
             18.731137    0.03349459952309
             2.8253937    0.23472694665786
             0.6401217    0.81375731841339
 s    1 1.00
             0.1612778                   1

25 0
 s    3 1.00
             18.731137    0.03349459952309
             2.8253937    0.23472694665786
             0.6401217    0.81375731841339
 s    1 1.00
             0.1612778                   1

26 0
 s    3 1.00
             18.731137    0.03349459952309
             2.8253937    0.23472694665786
             0.6401217    0.81375731841339
 s    1 1.00
             0.1612778                   1

27 0
 s    3 1.00
             18.731137    0.03349459952309
             2.8253937    0.23472694665786
             0.6401217    0.81375731841339
 s    1 1.00
             0.1612778                   1

28 0
 s    3 1.00
             18.731137    0.03349459952309
             2.8253937    0.23472694665786
             0.6401217    0.81375731841339
 s    1 1.00
             0.1612778                   1

29 0
 s    3 1.00
             18.731137    0.03349459952309
             2.8253937    0.23472694665786
             0.6401217    0.81375731841339
 s    1 1.00
             0.1612778                   1

30 0
 s    3 1.00
             18.731137    0.03349459952309
             2.8253937    0.23472694665786
             0.6401217    0.81375731841339
 s    1 1.00
             0.1612778                   1

31 0
 s    3 1.00
             18.731137    0.03349459952309
             2.8253937    0.23472694665786
             0.6401217    0.81375731841339
 s    1 1.00
             0.1612778                   1

32 0
 s    3 1.00
             18.731137    0.03349459952309
             2.8253937    0.23472694665786
             0.6401217    0.81375731841339
 s    1 1.00
             0.1612778                   1

33 0
 s    6 1.00
             3047.5249  0.0018347001629433
             457.36951    0.01403730124668
             103.94869   0.068842606114048
             29.210155    0.23218442062076
              9.286663    0.46794134155879
              3.163927    0.36231203217765
 s    3 1.00
             7.8682724   -0.11933240861517
             1.8812885   -0.16085421161283
             0.5442493     1.1434564825515
 s    1 1.00
             0.1687144                   1
 p    3 1.00
             7.8682724   0.068999095584993
             1.8812885    0.31642397975315
             0.5442493    0.74430825237435
 p    1 1.00
             0.1687144                   1
 d    1 1.00
                   0.8                   1

34 0
 s    6 1.00
             3047.5249  0.0018347001629433
             457.36951    0.01403730124668
             103.94869   0.068842606114048
             29.210155    0.23218442062076
              9.286663    0.46794134155879
              3.163927    0.36231203217765
 s    3 1.00
             7.8682724   -0.11933240861517
             1.8812885   -0.16085421161283
             0.5442493     1.1434564825515
 s    1 1.00
             0.1687144                   1
 p    3 1.00
             7.8682724   0.068999095584993
             1.8812885    0.31642397975315
             0.5442493    0.74430825237435
 p    1 1.00
             0.1687144                   1
 d    1 1.00
                   0.8                   1

35 0
 s    3 1.00
             18.731137    0.03349459952309
             2.8253937    0.23472694665786
             0.6401217    0.81375731841339
 s    1 1.00
             0.1612778                   1

36 0
 s    6 1.00
             3047.5249  0.0018347001629433
             457.36951    0.01403730124668
             103.94869   0.068842606114048
             29.210155    0.23218442062076
              9.286663    0.46794134155879
              3.163927    0.36231203217765
 s    3 1.00
             7.8682724   -0.11933240861517
             1.8812885   -0.16085421161283
             0.5442493     1.1434564825515
 s    1 1.00
             0.1687144                   1
 p    3 1.00
             7.8682724   0.068999095584993
             1.8812885    0.31642397975315
             0.5442493    0.74430825237435
 p    1 1.00
             0.1687144                   1
 d    1 1.00
                   0.8                   1

37 0
 s    3 1.00
             18.731137    0.03349459952309
             2.8253937    0.23472694665786
             0.6401217    0.81375731841339
 s    1 1.00
             0.1612778                   1

38 0
 s    3 1.00
             18.731137    0.03349459952309
             2.8253937    0.23472694665786
             0.6401217    0.81375731841339
 s    1 1.00
             0.1612778                   1

39 0
 s    6 1.00
             3047.5249  0.0018347001629433
             457.36951    0.01403730124668
             103.94869   0.068842606114048
             29.210155    0.23218442062076
              9.286663    0.46794134155879
              3.163927    0.36231203217765
 s    3 1.00
             7.8682724   -0.11933240861517
             1.8812885   -0.16085421161283
             0.5442493     1.1434564825515
 s    1 1.00
             0.1687144                   1
 p    3 1.00
             7.8682724   0.068999095584993
             1.8812885    0.31642397975315
             0.5442493    0.74430825237435
 p    1 1.00
             0.1687144                   1
 d    1 1.00
                   0.8                   1

40 0
 s    6 1.00
             3047.5249  0.0018347001629433
             457.36951    0.01403730124668
             103.94869   0.068842606114048
             29.210155    0.23218442062076
              9.286663    0.46794134155879
              3.163927    0.36231203217765
 s    3 1.00
             7.8682724   -0.11933240861517
             1.8812885   -0.16085421161283
             0.5442493     1.1434564825515
 s    1 1.00
             0.1687144                   1
 p    3 1.00
             7.8682724   0.068999095584993
             1.8812885    0.31642397975315
             0.5442493    0.74430825237435
 p    1 1.00
             0.1687144                   1
 d    1 1.00
                   0.8                   1

41 0
 s    3 1.00
             18.731137    0.03349459952309
             2.8253937    0.23472694665786
             0.6401217    0.81375731841339
 s    1 1.00
             0.1612778                   1

42 0
 s    6 1.00
             5484.6717   0.001831099805527
             825.23495   0.013950098518422
             188.04696    0.06844509273075
               52.9645    0.23271427528445
              16.89757    0.47019295006289
             5.7996353    0.35852086192309
 s    3 1.00
             15.539616   -0.11077750382508
             3.5999336   -0.14802630511126
             1.0137618     1.1307670390447
 s    1 1.00
             0.2700058                   1
 p    3 1.00
             15.539616   0.070874299543311
             3.5999336    0.33975279781076
             1.0137618    0.72715859531445
 p    1 1.00
             0.2700058                   1
 d    1 1.00
                   0.8                   1

43 0
 s    3 1.00
             18.731137    0.03349459952309
             2.8253937    0.23472694665786
             0.6401217    0.81375731841339
 s    1 1.00
             0.1612778                   1

[5d]
[7f]
[9g]

[MO]
 Sym= A
 Ene=               0
 Spin= Alpha
 Occup=    1.00000
   1    -0.017338496752074
   2    0.0011192562362489
   3    -0.0077366254834345
   4    -0.00044284792845285
   5    0.00017113084202295
   6    -0.0013319158360428
   7    -0.00088653080331046
   8    -0.0014697011669552
   9    0.0060849529304588
  10    0.0009916988455658
  11    0.00096418330862815
  12    -0.00015304373681799
  13    0.00021731452717492
  14    -5.238038405941e-05
  15    0.0005389754476251
  16    0.0010090225542452
  17     -0.99469771138981
  18    -0.039358663231885
  19     0.031469576727545
  20    -0.0010602540951694
  21    -0.00020749254999583
  22    0.00063065247739397
  23    0.0040773709423456
  24     0.001238364106228
  25    0.00086048796554681
  26    -0.00079963179299861
  27    0.00032695458413949
  28    0.0003463202909618
  29    -0.00027323328063852
  30    -0.00021350415469065
  31    0.0013123336587119
  32    -0.0041756253852957
  33    -0.013066237385214
  34    0.00039279431135248
  35    -0.001295134213282
  36    -0.0009613501038739
  37    -0.00037942090488425
  38    0.0012976384048319
  39    0.0028846635031697
  40    -0.0037233681152896
  41    -0.0043145748327996
  42    0.0006616255004387
  43    -0.0013275852382519
  44    -0.00054021366853507
  45    0.00039689921932594
  46    0.00041346706674777
  47    0.00060858244906395
  48    0.0006200133115954
  49    0.00036154545106536
  50    0.0005928769023161
  51    -0.00015397070964223
  52    -0.00030995084211218
  53    -3.3088067963214e-05
  54    0.00041973532958932
  55    0.0056569204571737
  56    -0.0010990519677023
  57    -0.0074095852056294
  58    0.00018164279552753
  59    1.1175313527113e-05
  60    -0.00013979615900314
  61    0.00023790616214527
  62    0.00024932282400327
  63    0.00051912463682779
  64    -0.00026854493974866
  65    2.8296194471409e-06
  66    4.3748591795697e-06
  67    6.5088045978172e-08
  68    1.3893335132259e-06
  69    -6.1432854185129e-06
  70    -2.0651641235693e-06
  71    4.881691184594e-06
  72    2.3166647031519e-08
  73    -1.452441970411e-05
  74    -2.823868385343e-05
  75    -1.0251776372765e-05
  76    1.1663642111232e-07
  77    2.9558349793108e-07
  78    -3.1314822719123e-07
  79    -6.1298885290156e-07
  80    -5.3222986975925e-09
  81    -2.813146296057e-06
  82    -1.4530476545444e-05
  83    -2.3723665067809e-07
  84    -1.3294121873052e-06
  85    7.2301413455688e-05
  86    -4.3733246784198e-06
  87    -3.6460339879462e-06
  88    -5.540422270647e-06
  89    -2.5308758538858e-05
  90    6.9858295171467e-05
  91    -8.6036285780904e-06
  92    -1.7388091719416e-06
  93    2.8726841416048e-06
  94    -4.1478457287701e-06
  95    7.7058265676567e-07
  96    1.1177897980256e-06
  97    -8.0467482692169e-06
  98    -1.4081056584146e-05
  99    3.8589829417023e-06
 100    2.1140792591025e-05
 101    1.2078853084198e-06
 102    1.1689230053422e-05
 103    -0.00024209469600719
 104    3.1036806813835e-06
 105    1.0093583089085e-05
 106    3.6229473675431e-06
 107    0.0002035966433807
 108    -0.00019786134756689
 109    -0.00015075262583554
 110    6.5901973499005e-06
 111    1.251571944013e-07
 112    -2.0118980485568e-08
 113    -1.2198261328855e-06
 114    5.7265951059021e-06
 115    3.6066744898902e-06
 116    3.5406980674586e-05
 117    -0.00025516491947471
 118    2.3656894028556e-06
 119    -2.9723704209024e-06
 120    -5.4615619071316e-06
 121    5.4103695637535e-05
 122    -1.4685649630435e-05
 123    -3.1756287652651e-05
 124    -1.6360435567967e-06
 125    3.3078485777481e-06
 126    2.6264569124487e-06
 127    -9.1874441466676e-07
 128    2.3699457432206e-06
 129    5.8080609504281e-06
 130    5.6144151585138e-05
 131    -0.00015754401205202
 132    -5.7413839325392e-06
 133    5.5598412821083e-06
 134    -2.3590965973679e-05
 135    0.00037098692836419
 136    -3.4993673030495e-05
 137     0.000433868088197
 138    -9.3995278498745e-06
 139    -1.4705857514928e-05
 140    -6.002561025428e-06
 141    -4.9477178966499e-06
 142    -7.3461017180101e-06
 143    2.1957515159862e-06
 144    3.0495251246482e-05
 145    -3.6035588715408e-05
 146    -2.1438302963768e-06
 147    -6.3886068098596e-06
 148    -1.4669292714922e-05
 149    -1.5884225936206e-05
 150    -4.1826771034923e-06
 151    7.4155007960171e-05
 152    7.1545393365842e-06
 153    4.3548514240536e-06
 154    3.3923966039656e-06
 155    -4.4372061024371e-06
 156    4.4353015844181e-06
 157    -1.8153400673223e-06
 158    -1.4149375264372e-05
 159    4.4780590434883e-05
 160    -6.4973647916029e-06
 161    -2.8155548579687e-08
 162    1.7011162442957e-06
 163    5.4296718938987e-05
 164    -2.8275296251715e-05
 165    -1.270545149493e-05
 166    -4.8701407578759e-06
 167    9.2565740413015e-07
 168    2.4363601886977e-07
 169    -1.0264774546597e-06
 170    -2.1183336841879e-06
 171    5.2864153200712e-07
 172    1.3799585311619e-05
 173    -2.5697915782713e-05
 174    4.5889471169323e-06
 175    3.1777316001616e-07
 176    -1.206016996187e-05
 177    -2.5362754884266e-07
 178    1.9492178804231e-06
 179    2.8202034494467e-05
 180    -1.6882390822304e-06
 181    -5.2561022723437e-06
 182    -1.0078504706802e-06
 183    1.2224782327401e-06
 184    -1.8000725964239e-06
 185    3.6788407883972e-06
 186    3.1178044534315e-05
 187    -9.3077020671503e-05
 188    2.660981577841e-06
 189    -6.3569247050379e-07
 190    -4.8891792626442e-06
 191    4.6625802669686e-06
 192    1.5600746492363e-05
 193    7.7859465650073e-05
 194    -3.4293588770343e-06
 195    -1.9343214107865e-06
 196    -3.0361964926653e-06
 197    3.232838043101e-07
 198    -4.9156028484882e-07
 199    8.0770631345516e-06
 200    -8.2338963625577e-07
 201    2.8664305940948e-06
 202    -2.0757178826994e-05
 203    1.2284595993978e-05
 204    5.283588055672e-06
 205    3.1056066060617e-07
 206    2.9259794166029e-05
 207    -1.0019581560619e-05
 208    6.5493186721151e-05
 209    -1.2067101518735e-05
 210    2.7762188673284e-05
 211    -6.9261450292589e-06
 212    -1.8946558045091e-05
 213    6.6798003213907e-07
 214    2.3059977137748e-05
 215    3.0822854073615e-06
 216    2.9524679790195e-05
 217    -1.5671009178845e-06
 218    -9.9742738826181e-06
 219    -4.8971851235089e-07
 220    2.0478657774172e-06
 221    9.3662000450437e-06
 222    9.4237925868721e-05
 223    -0.00095144841713651
 224    1.4326709827655e-05
 225    2.2107626245747e-07
 226    -1.3172281280856e-05
 227    -0.00067996401539023
 228    -0.00033155064905706
 229    0.00098055348579203
 230    -3.1441389057098e-06
 231    4.6955503909223e-05
 232    2.3171937067461e-05
 233    -2.3384951090138e-05
 234    -2.3980465616752e-05
 235    1.6034718332091e-05
 236    3.887063496624e-05
 237    0.00025313440784784
 238    2.2733517100708e-05
 239    2.475048442222e-06
 240    -1.2378065796716e-05
 241    -0.00030885446440359
 242    -0.00037664628518287
 243    0.0016322599035825
 244    -9.6685019028698e-06
 245    -7.6455565813101e-05
 246    -1.3598640462422e-05
 247    -2.0615473170987e-05
 248    3.4599650207623e-06
 249    3.6137645529495e-05
 250    -0.00032619501560604
 251    2.7008644261027e-05
 252    0.00042383500735898
 253    -0.0022470986193756
 254    -8.1585505861277e-05
 255    3.5171558376054e-05
 256    -0.00023759655597887
 257    -7.2432515729524e-06
 258    -0.00037817437920503
 259    0.0018804316075783
 260    7.0163799196801e-05
 261    2.0513483778193e-05
 262    1.2569744525205e-05
 263    -0.00015101169715442
 264    -8.6782229174628e-05
 265    9.6917812389274e-05
 266    -0.00021560694150606
 267    0.00014580792385253
 268    0.00054591521189249
 269    8.3371143123474e-05
 270    0.0005569098351627
 271    -0.0073562084877063
 272    9.8542636102698e-05
 273    -0.00011801827249258
 274    -0.00012086488570663
 275    0.0015164502521002
 276    0.0029652950918182
 277    -0.0030837384956037
 278    -9.5646889268557e-05
 279    0.00018843096854484
 280    0.00011299388920612
 281    3.0030908514342e-05