[Molden Format]
made by pyscf v[2.0.1]
[Atoms] (AU)
C   1   6     0.69100024066471     0.64692934207205    -3.48223131169301
H   2   1     2.68052439830868     1.13355088658700    -3.25784032593313
C   3   6    -0.36286361513219     0.85440132524594    -5.97030179418974
H   4   1    -2.35448549047279     0.36322488579172    -6.17995817793143
C   5   6     0.93697958957450     1.61209284601821    -8.05828437677121
H   6   1     0.01358296644616     2.85086245433209    -9.41980240085128
C   7   6     3.49095983212942     0.86501358647737    -8.58301400036413
H   8   1     4.39173101664678    -0.37544723242066    -7.20113468241566
H   9   1     1.55630230933075    -1.92953025305990    12.99630010416247
C   10   6     0.75233899775814    -2.21270439606481    11.10705728102219
H   11   1    -0.43433408177274    -3.90944857546550    11.22216085340412
C   12   6     2.86362581178706    -2.63237380607947     9.17926416456045
H   13   1     4.39038949912609    -1.24955421540245     9.49899813497433
H   14   1     3.74629220191363    -4.48798724300892     9.47414880959024
C   15   6     2.02478325613682    -2.42177285709634     6.44560829588644
C   16   6     3.88048732735477    -3.58795445234514     4.61402886975252
C   17   6    -0.18412382258602    -1.30464291234259     5.76021113872346
C   18   6    -2.10044360464350    -0.26837831858460     7.71610340967100
C   19   6    -3.08956938670431     2.35282328359417     6.88693925039594
C   20   6    -4.37372924086464    -2.09766595989678     7.93610724222001
C   21   6    -0.83850430601230     0.06372213486173    10.33002307638377
H   22   1     0.38411922151109     1.74281358582432    10.27380136542181
H   23   1    -2.30980003007874     0.45460143924521    11.73986301809809
H   24   1     4.58527064644668    -5.38706904487420     5.36778158031719
H   25   1     5.54944938085014    -2.37631462192748     4.35398898413318
H   26   1     3.06633019150423    -3.94118377050688     2.75255466040884
H   27   1    -4.17727778763735     2.26573369139522     5.12914900961283
H   28   1    -1.52662344944051     3.68001877445626     6.59540397144508
H   29   1    -4.32916174397830     3.13643051467482     8.35225460090378
H   30   1    -5.32329548508442    -2.36691813602939     6.11583672749896
H   31   1    -5.77989366602257    -1.33896741843465     9.25748940450990
H   32   1    -3.79310905208926    -3.96389819310853     8.61386170102686
C   33   6    -1.01100794811226    -1.06331657314144     3.11929490449947
C   34   6     0.37686231036534    -0.33275864505552     1.09165013605873
H   35   1    -3.01671213906703    -1.40297922279997     2.77827895090944
C   36   6    -0.64382707979370    -0.11591880174385    -1.42063131251064
H   37   1     2.35569259782137     0.17174499283897     1.33641070251401
H   38   1    -2.63317482980319    -0.60229203511219    -1.66119700387645
C   39   6     4.85727779250226     1.56932506344372   -10.63578143211247
C   40   6     7.45078580641309     0.70440198785573   -10.99998857146552
H   41   1     4.07326566832422     2.80126406203857   -12.08333786763668
O   42   8     8.78463246786107     1.26137953491899   -12.79761289932761
H   43   1     8.17650804893433    -0.55247504818230    -9.47232163774676
[GTO]
1 0
 s    6 1.00
             3047.5249  0.0018347001629433
             457.36951    0.01403730124668
             103.94869   0.068842606114048
             29.210155    0.23218442062076
              9.286663    0.46794134155879
              3.163927    0.36231203217765
 s    3 1.00
             7.8682724   -0.11933240861517
             1.8812885   -0.16085421161283
             0.5442493     1.1434564825515
 s    1 1.00
             0.1687144                   1
 p    3 1.00
             7.8682724   0.068999095584993
             1.8812885    0.31642397975315
             0.5442493    0.74430825237435
 p    1 1.00
             0.1687144                   1
 d    1 1.00
                   0.8                   1

2 0
 s    3 1.00
             18.731137    0.03349459952309
             2.8253937    0.23472694665786
             0.6401217    0.81375731841339
 s    1 1.00
             0.1612778                   1

3 0
 s    6 1.00
             3047.5249  0.0018347001629433
             457.36951    0.01403730124668
             103.94869   0.068842606114048
             29.210155    0.23218442062076
              9.286663    0.46794134155879
              3.163927    0.36231203217765
 s    3 1.00
             7.8682724   -0.11933240861517
             1.8812885   -0.16085421161283
             0.5442493     1.1434564825515
 s    1 1.00
             0.1687144                   1
 p    3 1.00
             7.8682724   0.068999095584993
             1.8812885    0.31642397975315
             0.5442493    0.74430825237435
 p    1 1.00
             0.1687144                   1
 d    1 1.00
                   0.8                   1

4 0
 s    3 1.00
             18.731137    0.03349459952309
             2.8253937    0.23472694665786
             0.6401217    0.81375731841339
 s    1 1.00
             0.1612778                   1

5 0
 s    6 1.00
             3047.5249  0.0018347001629433
             457.36951    0.01403730124668
             103.94869   0.068842606114048
             29.210155    0.23218442062076
              9.286663    0.46794134155879
              3.163927    0.36231203217765
 s    3 1.00
             7.8682724   -0.11933240861517
             1.8812885   -0.16085421161283
             0.5442493     1.1434564825515
 s    1 1.00
             0.1687144                   1
 p    3 1.00
             7.8682724   0.068999095584993
             1.8812885    0.31642397975315
             0.5442493    0.74430825237435
 p    1 1.00
             0.1687144                   1
 d    1 1.00
                   0.8                   1

6 0
 s    3 1.00
             18.731137    0.03349459952309
             2.8253937    0.23472694665786
             0.6401217    0.81375731841339
 s    1 1.00
             0.1612778                   1

7 0
 s    6 1.00
             3047.5249  0.0018347001629433
             457.36951    0.01403730124668
             103.94869   0.068842606114048
             29.210155    0.23218442062076
              9.286663    0.46794134155879
              3.163927    0.36231203217765
 s    3 1.00
             7.8682724   -0.11933240861517
             1.8812885   -0.16085421161283
             0.5442493     1.1434564825515
 s    1 1.00
             0.1687144                   1
 p    3 1.00
             7.8682724   0.068999095584993
             1.8812885    0.31642397975315
             0.5442493    0.74430825237435
 p    1 1.00
             0.1687144                   1
 d    1 1.00
                   0.8                   1

8 0
 s    3 1.00
             18.731137    0.03349459952309
             2.8253937    0.23472694665786
             0.6401217    0.81375731841339
 s    1 1.00
             0.1612778                   1

9 0
 s    3 1.00
             18.731137    0.03349459952309
             2.8253937    0.23472694665786
             0.6401217    0.81375731841339
 s    1 1.00
             0.1612778                   1

10 0
 s    6 1.00
             3047.5249  0.0018347001629433
             457.36951    0.01403730124668
             103.94869   0.068842606114048
             29.210155    0.23218442062076
              9.286663    0.46794134155879
              3.163927    0.36231203217765
 s    3 1.00
             7.8682724   -0.11933240861517
             1.8812885   -0.16085421161283
             0.5442493     1.1434564825515
 s    1 1.00
             0.1687144                   1
 p    3 1.00
             7.8682724   0.068999095584993
             1.8812885    0.31642397975315
             0.5442493    0.74430825237435
 p    1 1.00
             0.1687144                   1
 d    1 1.00
                   0.8                   1

11 0
 s    3 1.00
             18.731137    0.03349459952309
             2.8253937    0.23472694665786
             0.6401217    0.81375731841339
 s    1 1.00
             0.1612778                   1

12 0
 s    6 1.00
             3047.5249  0.0018347001629433
             457.36951    0.01403730124668
             103.94869   0.068842606114048
             29.210155    0.23218442062076
              9.286663    0.46794134155879
              3.163927    0.36231203217765
 s    3 1.00
             7.8682724   -0.11933240861517
             1.8812885   -0.16085421161283
             0.5442493     1.1434564825515
 s    1 1.00
             0.1687144                   1
 p    3 1.00
             7.8682724   0.068999095584993
             1.8812885    0.31642397975315
             0.5442493    0.74430825237435
 p    1 1.00
             0.1687144                   1
 d    1 1.00
                   0.8                   1

13 0
 s    3 1.00
             18.731137    0.03349459952309
             2.8253937    0.23472694665786
             0.6401217    0.81375731841339
 s    1 1.00
             0.1612778                   1

14 0
 s    3 1.00
             18.731137    0.03349459952309
             2.8253937    0.23472694665786
             0.6401217    0.81375731841339
 s    1 1.00
             0.1612778                   1

15 0
 s    6 1.00
             3047.5249  0.0018347001629433
             457.36951    0.01403730124668
             103.94869   0.068842606114048
             29.210155    0.23218442062076
              9.286663    0.46794134155879
              3.163927    0.36231203217765
 s    3 1.00
             7.8682724   -0.11933240861517
             1.8812885   -0.16085421161283
             0.5442493     1.1434564825515
 s    1 1.00
             0.1687144                   1
 p    3 1.00
             7.8682724   0.068999095584993
             1.8812885    0.31642397975315
             0.5442493    0.74430825237435
 p    1 1.00
             0.1687144                   1
 d    1 1.00
                   0.8                   1

16 0
 s    6 1.00
             3047.5249  0.0018347001629433
             457.36951    0.01403730124668
             103.94869   0.068842606114048
             29.210155    0.23218442062076
              9.286663    0.46794134155879
              3.163927    0.36231203217765
 s    3 1.00
             7.8682724   -0.11933240861517
             1.8812885   -0.16085421161283
             0.5442493     1.1434564825515
 s    1 1.00
             0.1687144                   1
 p    3 1.00
             7.8682724   0.068999095584993
             1.8812885    0.31642397975315
             0.5442493    0.74430825237435
 p    1 1.00
             0.1687144                   1
 d    1 1.00
                   0.8                   1

17 0
 s    6 1.00
             3047.5249  0.0018347001629433
             457.36951    0.01403730124668
             103.94869   0.068842606114048
             29.210155    0.23218442062076
              9.286663    0.46794134155879
              3.163927    0.36231203217765
 s    3 1.00
             7.8682724   -0.11933240861517
             1.8812885   -0.16085421161283
             0.5442493     1.1434564825515
 s    1 1.00
             0.1687144                   1
 p    3 1.00
             7.8682724   0.068999095584993
             1.8812885    0.31642397975315
             0.5442493    0.74430825237435
 p    1 1.00
             0.1687144                   1
 d    1 1.00
                   0.8                   1

18 0
 s    6 1.00
             3047.5249  0.0018347001629433
             457.36951    0.01403730124668
             103.94869   0.068842606114048
             29.210155    0.23218442062076
              9.286663    0.46794134155879
              3.163927    0.36231203217765
 s    3 1.00
             7.8682724   -0.11933240861517
             1.8812885   -0.16085421161283
             0.5442493     1.1434564825515
 s    1 1.00
             0.1687144                   1
 p    3 1.00
             7.8682724   0.068999095584993
             1.8812885    0.31642397975315
             0.5442493    0.74430825237435
 p    1 1.00
             0.1687144                   1
 d    1 1.00
                   0.8                   1

19 0
 s    6 1.00
             3047.5249  0.0018347001629433
             457.36951    0.01403730124668
             103.94869   0.068842606114048
             29.210155    0.23218442062076
              9.286663    0.46794134155879
              3.163927    0.36231203217765
 s    3 1.00
             7.8682724   -0.11933240861517
             1.8812885   -0.16085421161283
             0.5442493     1.1434564825515
 s    1 1.00
             0.1687144                   1
 p    3 1.00
             7.8682724   0.068999095584993
             1.8812885    0.31642397975315
             0.5442493    0.74430825237435
 p    1 1.00
             0.1687144                   1
 d    1 1.00
                   0.8                   1

20 0
 s    6 1.00
             3047.5249  0.0018347001629433
             457.36951    0.01403730124668
             103.94869   0.068842606114048
             29.210155    0.23218442062076
              9.286663    0.46794134155879
              3.163927    0.36231203217765
 s    3 1.00
             7.8682724   -0.11933240861517
             1.8812885   -0.16085421161283
             0.5442493     1.1434564825515
 s    1 1.00
             0.1687144                   1
 p    3 1.00
             7.8682724   0.068999095584993
             1.8812885    0.31642397975315
             0.5442493    0.74430825237435
 p    1 1.00
             0.1687144                   1
 d    1 1.00
                   0.8                   1

21 0
 s    6 1.00
             3047.5249  0.0018347001629433
             457.36951    0.01403730124668
             103.94869   0.068842606114048
             29.210155    0.23218442062076
              9.286663    0.46794134155879
              3.163927    0.36231203217765
 s    3 1.00
             7.8682724   -0.11933240861517
             1.8812885   -0.16085421161283
             0.5442493     1.1434564825515
 s    1 1.00
             0.1687144                   1
 p    3 1.00
             7.8682724   0.068999095584993
             1.8812885    0.31642397975315
             0.5442493    0.74430825237435
 p    1 1.00
             0.1687144                   1
 d    1 1.00
                   0.8                   1

22 0
 s    3 1.00
             18.731137    0.03349459952309
             2.8253937    0.23472694665786
             0.6401217    0.81375731841339
 s    1 1.00
             0.1612778                   1

23 0
 s    3 1.00
             18.731137    0.03349459952309
             2.8253937    0.23472694665786
             0.6401217    0.81375731841339
 s    1 1.00
             0.1612778                   1

24 0
 s    3 1.00
             18.731137    0.03349459952309
             2.8253937    0.23472694665786
             0.6401217    0.81375731841339
 s    1 1.00
             0.1612778                   1

25 0
 s    3 1.00
             18.731137    0.03349459952309
             2.8253937    0.23472694665786
             0.6401217    0.81375731841339
 s    1 1.00
             0.1612778                   1

26 0
 s    3 1.00
             18.731137    0.03349459952309
             2.8253937    0.23472694665786
             0.6401217    0.81375731841339
 s    1 1.00
             0.1612778                   1

27 0
 s    3 1.00
             18.731137    0.03349459952309
             2.8253937    0.23472694665786
             0.6401217    0.81375731841339
 s    1 1.00
             0.1612778                   1

28 0
 s    3 1.00
             18.731137    0.03349459952309
             2.8253937    0.23472694665786
             0.6401217    0.81375731841339
 s    1 1.00
             0.1612778                   1

29 0
 s    3 1.00
             18.731137    0.03349459952309
             2.8253937    0.23472694665786
             0.6401217    0.81375731841339
 s    1 1.00
             0.1612778                   1

30 0
 s    3 1.00
             18.731137    0.03349459952309
             2.8253937    0.23472694665786
             0.6401217    0.81375731841339
 s    1 1.00
             0.1612778                   1

31 0
 s    3 1.00
             18.731137    0.03349459952309
             2.8253937    0.23472694665786
             0.6401217    0.81375731841339
 s    1 1.00
             0.1612778                   1

32 0
 s    3 1.00
             18.731137    0.03349459952309
             2.8253937    0.23472694665786
             0.6401217    0.81375731841339
 s    1 1.00
             0.1612778                   1

33 0
 s    6 1.00
             3047.5249  0.0018347001629433
             457.36951    0.01403730124668
             103.94869   0.068842606114048
             29.210155    0.23218442062076
              9.286663    0.46794134155879
              3.163927    0.36231203217765
 s    3 1.00
             7.8682724   -0.11933240861517
             1.8812885   -0.16085421161283
             0.5442493     1.1434564825515
 s    1 1.00
             0.1687144                   1
 p    3 1.00
             7.8682724   0.068999095584993
             1.8812885    0.31642397975315
             0.5442493    0.74430825237435
 p    1 1.00
             0.1687144                   1
 d    1 1.00
                   0.8                   1

34 0
 s    6 1.00
             3047.5249  0.0018347001629433
             457.36951    0.01403730124668
             103.94869   0.068842606114048
             29.210155    0.23218442062076
              9.286663    0.46794134155879
              3.163927    0.36231203217765
 s    3 1.00
             7.8682724   -0.11933240861517
             1.8812885   -0.16085421161283
             0.5442493     1.1434564825515
 s    1 1.00
             0.1687144                   1
 p    3 1.00
             7.8682724   0.068999095584993
             1.8812885    0.31642397975315
             0.5442493    0.74430825237435
 p    1 1.00
             0.1687144                   1
 d    1 1.00
                   0.8                   1

35 0
 s    3 1.00
             18.731137    0.03349459952309
             2.8253937    0.23472694665786
             0.6401217    0.81375731841339
 s    1 1.00
             0.1612778                   1

36 0
 s    6 1.00
             3047.5249  0.0018347001629433
             457.36951    0.01403730124668
             103.94869   0.068842606114048
             29.210155    0.23218442062076
              9.286663    0.46794134155879
              3.163927    0.36231203217765
 s    3 1.00
             7.8682724   -0.11933240861517
             1.8812885   -0.16085421161283
             0.5442493     1.1434564825515
 s    1 1.00
             0.1687144                   1
 p    3 1.00
             7.8682724   0.068999095584993
             1.8812885    0.31642397975315
             0.5442493    0.74430825237435
 p    1 1.00
             0.1687144                   1
 d    1 1.00
                   0.8                   1

37 0
 s    3 1.00
             18.731137    0.03349459952309
             2.8253937    0.23472694665786
             0.6401217    0.81375731841339
 s    1 1.00
             0.1612778                   1

38 0
 s    3 1.00
             18.731137    0.03349459952309
             2.8253937    0.23472694665786
             0.6401217    0.81375731841339
 s    1 1.00
             0.1612778                   1

39 0
 s    6 1.00
             3047.5249  0.0018347001629433
             457.36951    0.01403730124668
             103.94869   0.068842606114048
             29.210155    0.23218442062076
              9.286663    0.46794134155879
              3.163927    0.36231203217765
 s    3 1.00
             7.8682724   -0.11933240861517
             1.8812885   -0.16085421161283
             0.5442493     1.1434564825515
 s    1 1.00
             0.1687144                   1
 p    3 1.00
             7.8682724   0.068999095584993
             1.8812885    0.31642397975315
             0.5442493    0.74430825237435
 p    1 1.00
             0.1687144                   1
 d    1 1.00
                   0.8                   1

40 0
 s    6 1.00
             3047.5249  0.0018347001629433
             457.36951    0.01403730124668
             103.94869   0.068842606114048
             29.210155    0.23218442062076
              9.286663    0.46794134155879
              3.163927    0.36231203217765
 s    3 1.00
             7.8682724   -0.11933240861517
             1.8812885   -0.16085421161283
             0.5442493     1.1434564825515
 s    1 1.00
             0.1687144                   1
 p    3 1.00
             7.8682724   0.068999095584993
             1.8812885    0.31642397975315
             0.5442493    0.74430825237435
 p    1 1.00
             0.1687144                   1
 d    1 1.00
                   0.8                   1

41 0
 s    3 1.00
             18.731137    0.03349459952309
             2.8253937    0.23472694665786
             0.6401217    0.81375731841339
 s    1 1.00
             0.1612778                   1

42 0
 s    6 1.00
             5484.6717   0.001831099805527
             825.23495   0.013950098518422
             188.04696    0.06844509273075
               52.9645    0.23271427528445
              16.89757    0.47019295006289
             5.7996353    0.35852086192309
 s    3 1.00
             15.539616   -0.11077750382508
             3.5999336   -0.14802630511126
             1.0137618     1.1307670390447
 s    1 1.00
             0.2700058                   1
 p    3 1.00
             15.539616   0.070874299543311
             3.5999336    0.33975279781076
             1.0137618    0.72715859531445
 p    1 1.00
             0.2700058                   1
 d    1 1.00
                   0.8                   1

43 0
 s    3 1.00
             18.731137    0.03349459952309
             2.8253937    0.23472694665786
             0.6401217    0.81375731841339
 s    1 1.00
             0.1612778                   1

[5d]
[7f]
[9g]

[MO]
 Sym= A
 Ene=               0
 Spin= Alpha
 Occup=    1.00000
   1     0.013129507464778
   2    -0.0012259744626849
   3    0.0083924038790566
   4    0.00052818855737514
   5    -0.0001808981556164
   6    0.0012449322714387
   7    0.00018136156182134
   8    0.0010998343425829
   9    -0.0040284562274168
  10    -0.0010136472597121
  11    -0.0010429403643879
  12    0.00011504476047149
  13    -0.00025385340456456
  14    7.0140983829473e-05
  15    -0.00042422668184971
  16    -0.001015795919242
  17      0.99449873751996
  18     0.038679998766193
  19    -0.030122573291596
  20    0.0009290668600278
  21    0.00024331951002008
  22    -0.00022397986105262
  23    -0.0036752158188201
  24    -0.00096743822989205
  25    -0.00054077687387667
  26    0.00077946995691443
  27    -0.00027684287917414
  28    -0.0003784672999314
  29    0.00019332855515755
  30    0.00023554882728099
  31    -0.0013336315193555
  32    0.0040639056919686
  33     0.024593800669655
  34    -0.00094947827512892
  35    0.0063113842994385
  36    0.00093541185934629
  37    0.00049082017622307
  38    -0.0014416738255579
  39    -0.002089274652147
  40    7.6281378613472e-05
  41    0.0029497828689952
  42    -0.00061491900034588
  43    0.0011462346105505
  44    0.00063477361915024
  45    -0.00037825828363065
  46    -0.00050458843258319
  47    -0.00040996779216406
  48    5.7295978854925e-05
  49    -0.00063690562840074
  50    -0.00033554742736904
  51    -0.0022359997057009
  52    0.00031846393948987
  53    0.00017621542017474
  54    -0.00021407335168085
  55    -0.0031575972348119
  56    -0.0013804866006319
  57    0.0031395481934303
  58    -7.2830066021357e-05
  59    0.00017525139161346
  60    -7.1834304247669e-05
  61    5.2626941294044e-05
  62    -0.00015879728360138
  63    -0.00032374588321852
  64    -0.00015634536721852
  65    -2.1746702656992e-06
  66    -6.363470196266e-06
  67    2.0281819367228e-07
  68    2.3971999938223e-06
  69    -4.7990625328428e-06
  70    2.3260777595234e-07
  71    -3.0528976644964e-06
  72    -1.0404870699988e-06
  73    1.2499394094618e-05
  74    2.5675475340193e-05
  75    1.413197202049e-05
  76    -2.0653076514519e-07
  77    1.3158368577933e-07
  78    -2.0691007151598e-07
  79    1.8747402170904e-07
  80    1.9927327052908e-07
  81    2.8337044931779e-06
  82    1.4915185973682e-05
  83    -2.6571841099689e-07
  84    -9.1062096199709e-07
  85    -2.2564296656692e-05
  86    2.0426879015113e-06
  87    3.4860805845229e-06
  88    1.859849582925e-06
  89    4.781218643847e-06
  90    -4.8118892476036e-05
  91    8.1927780572873e-07
  92    1.5352902477402e-06
  93    -1.2158113635169e-06
  94    2.0375894343807e-06
  95    -3.7674291963769e-07
  96    -8.6997775084081e-07
  97    4.5284649381321e-06
  98    1.165959839695e-05
  99    -3.4347874607579e-06
 100    -1.6342598278856e-05
 101    3.9664376284286e-07
 102    -3.1570624706814e-06
 103    4.7050099486706e-05
 104    -1.2481519603621e-06
 105    -7.4428525798387e-06
 106    1.6482052489904e-06
 107    -8.3828548596295e-05
 108     0.000103244394731
 109    8.4147804864746e-05
 110    -6.4725369039633e-06
 111    -4.2595525475253e-07
 112    6.9635970179803e-08
 113    -2.22289652513e-07
 114    -1.8774094278578e-06
 115    -2.8834220453678e-06
 116    -3.0378576799684e-05
 117    0.00016903467298112
 118    3.6408839896252e-07
 119    -3.0751157493409e-06
 120    6.0659077491838e-06
 121    -4.2397139473898e-05
 122    3.253011840733e-05
 123    1.4024955837284e-06
 124    8.8370617950161e-07
 125    -2.353873433494e-06
 126    -1.5334020113132e-06
 127    1.3362180441917e-06
 128    -1.6003423540992e-06
 129    -3.3734387269678e-06
 130    -3.6642403264853e-05
 131    -5.5826145954849e-05
 132    -3.3892571539147e-06
 133    -4.4165171035553e-06
 134    2.1178692463478e-05
 135    -0.00011847583016437
 136    -1.8208772464269e-05
 137    -0.00015123100192329
 138    -6.5025596374897e-07
 139    1.0470720003969e-05
 140    2.3369783054382e-06
 141    5.1623634184895e-06
 142    5.4449013652246e-06
 143    -1.9396621692044e-06
 144    -2.3134553758068e-05
 145    6.565284131394e-05
 146    2.765569027286e-06
 147    5.4908049856829e-06
 148    7.3114582507518e-06
 149    3.8654396330909e-06
 150    -5.3427213368071e-06
 151    -7.6470505401435e-05
 152    -2.1265356326792e-06
 153    -4.7068218169943e-06
 154    -9.5649747876592e-07
 155    2.3537280338825e-06
 156    -1.7280606705276e-06
 157    1.1526591657682e-06
 158    9.5708441491259e-06
 159    -3.4278440389576e-05
 160    4.277151384219e-06
 161    -1.4593509434375e-07
 162    -2.1744314821304e-06
 163    -3.2809568976755e-05
 164    2.5253364048267e-05
 165    1.3112233364662e-05
 166    3.1274356420736e-06
 167    -1.0546768369256e-06
 168    -5.6464489822825e-07
 169    1.4902988840947e-06
 170    5.8599050167807e-07
 171    -9.3664191992462e-07
 172    -1.5682605852367e-05
 173    3.255525779149e-05
 174    -3.6037396332795e-06
 175    2.4157515950813e-07
 176    9.4006034985977e-06
 177    -4.4741292891623e-06
 178    -1.2079613106606e-05
 179    -2.9215848423046e-05
 180    1.6704662306901e-06
 181    3.5203946559907e-06
 182    1.257084747922e-06
 183    -6.0543240146223e-07
 184    5.3758853433213e-07
 185    -1.9764355483405e-06
 186    -1.5630121881628e-05
 187    5.7524741147536e-05
 188    -4.2776324687025e-07
 189    9.0437699111755e-08
 190    2.0889265782675e-06
 191    -1.7417997602123e-05
 192    -9.3955055199173e-06
 193    -4.4901059075041e-05
 194    1.4218258091957e-06
 195    1.3494084717161e-06
 196    1.3854555219242e-06
 197    2.1936092908205e-07
 198    5.3809759638159e-07
 199    -3.5878680998046e-06
 200    4.7444117367452e-06
 201    -2.9119371780883e-06
 202    7.8512708325478e-06
 203    -6.1380147371375e-06
 204    1.3263153296094e-05
 205    -3.5384567690802e-06
 206    -2.5867990305379e-05
 207    6.3667312334261e-06
 208    -5.0779938654263e-05
 209    8.8630350396818e-06
 210    -1.6699728562445e-05
 211    4.8925652571444e-06
 212    9.3463758296262e-06
 213    -8.319656430531e-07
 214    -1.6331173649513e-05
 215    1.3842534336621e-08
 216    -4.7624218236473e-05
 217    8.9476894251431e-08
 218    1.119563007617e-05
 219    -1.4806357515162e-06
 220    -5.6481562608444e-06
 221    -4.8203936108586e-06
 222    -5.7294676150897e-05
 223    0.00082412884755279
 224    -2.045622927726e-05
 225    -6.0676082089798e-06
 226    -3.1834838056432e-06
 227    0.00064217108353977
 228    0.00022630426778222
 229    -0.00040241553500075
 230    2.2095389863498e-06
 231    -2.8598842482252e-05
 232    -1.1613437906896e-05
 233    1.6764604936817e-05
 234    1.5734297041469e-05
 235    -2.1915499470572e-05
 236    -6.209499012671e-05
 237    0.00050883362691173
 238    -1.8006456561679e-05
 239    -1.0871337234687e-06
 240    -1.3734033388997e-05
 241    0.00012304373280556
 242    0.0003800524655274
 243    -0.0016245781271553
 244    2.7264561431708e-05
 245    6.1960345491206e-05
 246    -3.0182943748538e-06
 247    1.751339891189e-05
 248    -8.2974245585085e-06
 249    -1.2246622673685e-05
 250    0.00032336403482644
 251    -6.5643947564316e-06
 252    -0.00026839395038233
 253    7.4414787027817e-05
 254    8.2793764931283e-05
 255    -4.7361522776896e-06
 256    0.00026336742777807
 257    -0.0008304760031346
 258    -0.00011066443064483
 259    -0.0013104110499913
 260    -9.8862973354031e-05
 261    9.6488279919585e-06
 262    1.8156507647543e-05
 263    0.00013693288375507
 264    5.9112049586465e-05
 265    -8.1424800716496e-05
 266    0.00015212349549798
 267    -0.00015387773627644
 268    -0.00069347176978303
 269    -5.5410424650522e-05
 270    -0.00034125726549676
 271     0.004541837835287
 272    -9.8221036926966e-05
 273    -7.3976224398953e-06
 274    3.6468671915379e-05
 275    -0.0010531745558859
 276    -0.00085601061701881
 277    0.0025551143035071
 278    0.00010608244812466
 279    -0.00010073763440523
 280    -7.0895733068971e-05