[Molden Format]
made by pyscf v[2.0.1]
[Atoms] (AU)
C   1   6     0.69100024066471     0.64692934207205    -3.48223131169301
H   2   1     2.68052439830868     1.13355088658700    -3.25784032593313
C   3   6    -0.36286361513219     0.85440132524594    -5.97030179418974
H   4   1    -2.35448549047279     0.36322488579172    -6.17995817793143
C   5   6     0.93697958957450     1.61209284601821    -8.05828437677121
H   6   1    -0.10682308805726     2.30253989392639    -9.69373588628611
C   7   6     3.64263503193718     1.55467149193689    -8.23832629511906
H   8   1     4.66272936056768     0.85936926442728    -6.58433578959761
H   9   1     1.55630230933075    -1.92953025305990    12.99630010416247
C   10   6     0.75233899775814    -2.21270439606481    11.10705728102219
H   11   1    -0.43433408177274    -3.90944857546550    11.22216085340412
C   12   6     2.86362581178706    -2.63237380607947     9.17926416456045
H   13   1     4.39038949912609    -1.24955421540245     9.49899813497433
H   14   1     3.74629220191363    -4.48798724300892     9.47414880959024
C   15   6     2.02478325613682    -2.42177285709634     6.44560829588644
C   16   6     3.88048732735477    -3.58795445234514     4.61402886975252
C   17   6    -0.18412382258602    -1.30464291234259     5.76021113872346
C   18   6    -2.10044360464350    -0.26837831858460     7.71610340967100
C   19   6    -3.08956938670431     2.35282328359417     6.88693925039594
C   20   6    -4.37372924086464    -2.09766595989678     7.93610724222001
C   21   6    -0.83850430601230     0.06372213486173    10.33002307638377
H   22   1     0.38411922151109     1.74281358582432    10.27380136542181
H   23   1    -2.30980003007874     0.45460143924521    11.73986301809809
H   24   1     4.58527064644668    -5.38706904487420     5.36778158031719
H   25   1     5.54944938085014    -2.37631462192748     4.35398898413318
H   26   1     3.06633019150423    -3.94118377050688     2.75255466040884
H   27   1    -4.17727778763735     2.26573369139522     5.12914900961283
H   28   1    -1.52662344944051     3.68001877445626     6.59540397144508
H   29   1    -4.32916174397830     3.13643051467482     8.35225460090378
H   30   1    -5.32329548508442    -2.36691813602939     6.11583672749896
H   31   1    -5.77989366602257    -1.33896741843465     9.25748940450990
H   32   1    -3.79310905208926    -3.96389819310853     8.61386170102686
C   33   6    -1.01100794811226    -1.06331657314144     3.11929490449947
C   34   6     0.37686231036534    -0.33275864505552     1.09165013605873
H   35   1    -3.01671213906703    -1.40297922279997     2.77827895090944
C   36   6    -0.64382707979370    -0.11591880174385    -1.42063131251064
H   37   1     2.35569259782137     0.17174499283897     1.33641070251401
H   38   1    -2.63317482980319    -0.60229203511219    -1.66119700387645
C   39   6     5.01588399354044     2.28654094702299   -10.27677863573407
C   40   6     7.77080404832789     2.15450646451281   -10.27454889780196
H   41   1     4.11782812209845     2.99683739506263   -11.98462609656630
O   42   8     9.12060555425099     2.77825484064970   -12.03801083010553
H   43   1     8.60983853061047     1.41663292301779    -8.48800399433497
[GTO]
1 0
 s    6 1.00
             3047.5249  0.0018347001629433
             457.36951    0.01403730124668
             103.94869   0.068842606114048
             29.210155    0.23218442062076
              9.286663    0.46794134155879
              3.163927    0.36231203217765
 s    3 1.00
             7.8682724   -0.11933240861517
             1.8812885   -0.16085421161283
             0.5442493     1.1434564825515
 s    1 1.00
             0.1687144                   1
 p    3 1.00
             7.8682724   0.068999095584993
             1.8812885    0.31642397975315
             0.5442493    0.74430825237435
 p    1 1.00
             0.1687144                   1
 d    1 1.00
                   0.8                   1

2 0
 s    3 1.00
             18.731137    0.03349459952309
             2.8253937    0.23472694665786
             0.6401217    0.81375731841339
 s    1 1.00
             0.1612778                   1

3 0
 s    6 1.00
             3047.5249  0.0018347001629433
             457.36951    0.01403730124668
             103.94869   0.068842606114048
             29.210155    0.23218442062076
              9.286663    0.46794134155879
              3.163927    0.36231203217765
 s    3 1.00
             7.8682724   -0.11933240861517
             1.8812885   -0.16085421161283
             0.5442493     1.1434564825515
 s    1 1.00
             0.1687144                   1
 p    3 1.00
             7.8682724   0.068999095584993
             1.8812885    0.31642397975315
             0.5442493    0.74430825237435
 p    1 1.00
             0.1687144                   1
 d    1 1.00
                   0.8                   1

4 0
 s    3 1.00
             18.731137    0.03349459952309
             2.8253937    0.23472694665786
             0.6401217    0.81375731841339
 s    1 1.00
             0.1612778                   1

5 0
 s    6 1.00
             3047.5249  0.0018347001629433
             457.36951    0.01403730124668
             103.94869   0.068842606114048
             29.210155    0.23218442062076
              9.286663    0.46794134155879
              3.163927    0.36231203217765
 s    3 1.00
             7.8682724   -0.11933240861517
             1.8812885   -0.16085421161283
             0.5442493     1.1434564825515
 s    1 1.00
             0.1687144                   1
 p    3 1.00
             7.8682724   0.068999095584993
             1.8812885    0.31642397975315
             0.5442493    0.74430825237435
 p    1 1.00
             0.1687144                   1
 d    1 1.00
                   0.8                   1

6 0
 s    3 1.00
             18.731137    0.03349459952309
             2.8253937    0.23472694665786
             0.6401217    0.81375731841339
 s    1 1.00
             0.1612778                   1

7 0
 s    6 1.00
             3047.5249  0.0018347001629433
             457.36951    0.01403730124668
             103.94869   0.068842606114048
             29.210155    0.23218442062076
              9.286663    0.46794134155879
              3.163927    0.36231203217765
 s    3 1.00
             7.8682724   -0.11933240861517
             1.8812885   -0.16085421161283
             0.5442493     1.1434564825515
 s    1 1.00
             0.1687144                   1
 p    3 1.00
             7.8682724   0.068999095584993
             1.8812885    0.31642397975315
             0.5442493    0.74430825237435
 p    1 1.00
             0.1687144                   1
 d    1 1.00
                   0.8                   1

8 0
 s    3 1.00
             18.731137    0.03349459952309
             2.8253937    0.23472694665786
             0.6401217    0.81375731841339
 s    1 1.00
             0.1612778                   1

9 0
 s    3 1.00
             18.731137    0.03349459952309
             2.8253937    0.23472694665786
             0.6401217    0.81375731841339
 s    1 1.00
             0.1612778                   1

10 0
 s    6 1.00
             3047.5249  0.0018347001629433
             457.36951    0.01403730124668
             103.94869   0.068842606114048
             29.210155    0.23218442062076
              9.286663    0.46794134155879
              3.163927    0.36231203217765
 s    3 1.00
             7.8682724   -0.11933240861517
             1.8812885   -0.16085421161283
             0.5442493     1.1434564825515
 s    1 1.00
             0.1687144                   1
 p    3 1.00
             7.8682724   0.068999095584993
             1.8812885    0.31642397975315
             0.5442493    0.74430825237435
 p    1 1.00
             0.1687144                   1
 d    1 1.00
                   0.8                   1

11 0
 s    3 1.00
             18.731137    0.03349459952309
             2.8253937    0.23472694665786
             0.6401217    0.81375731841339
 s    1 1.00
             0.1612778                   1

12 0
 s    6 1.00
             3047.5249  0.0018347001629433
             457.36951    0.01403730124668
             103.94869   0.068842606114048
             29.210155    0.23218442062076
              9.286663    0.46794134155879
              3.163927    0.36231203217765
 s    3 1.00
             7.8682724   -0.11933240861517
             1.8812885   -0.16085421161283
             0.5442493     1.1434564825515
 s    1 1.00
             0.1687144                   1
 p    3 1.00
             7.8682724   0.068999095584993
             1.8812885    0.31642397975315
             0.5442493    0.74430825237435
 p    1 1.00
             0.1687144                   1
 d    1 1.00
                   0.8                   1

13 0
 s    3 1.00
             18.731137    0.03349459952309
             2.8253937    0.23472694665786
             0.6401217    0.81375731841339
 s    1 1.00
             0.1612778                   1

14 0
 s    3 1.00
             18.731137    0.03349459952309
             2.8253937    0.23472694665786
             0.6401217    0.81375731841339
 s    1 1.00
             0.1612778                   1

15 0
 s    6 1.00
             3047.5249  0.0018347001629433
             457.36951    0.01403730124668
             103.94869   0.068842606114048
             29.210155    0.23218442062076
              9.286663    0.46794134155879
              3.163927    0.36231203217765
 s    3 1.00
             7.8682724   -0.11933240861517
             1.8812885   -0.16085421161283
             0.5442493     1.1434564825515
 s    1 1.00
             0.1687144                   1
 p    3 1.00
             7.8682724   0.068999095584993
             1.8812885    0.31642397975315
             0.5442493    0.74430825237435
 p    1 1.00
             0.1687144                   1
 d    1 1.00
                   0.8                   1

16 0
 s    6 1.00
             3047.5249  0.0018347001629433
             457.36951    0.01403730124668
             103.94869   0.068842606114048
             29.210155    0.23218442062076
              9.286663    0.46794134155879
              3.163927    0.36231203217765
 s    3 1.00
             7.8682724   -0.11933240861517
             1.8812885   -0.16085421161283
             0.5442493     1.1434564825515
 s    1 1.00
             0.1687144                   1
 p    3 1.00
             7.8682724   0.068999095584993
             1.8812885    0.31642397975315
             0.5442493    0.74430825237435
 p    1 1.00
             0.1687144                   1
 d    1 1.00
                   0.8                   1

17 0
 s    6 1.00
             3047.5249  0.0018347001629433
             457.36951    0.01403730124668
             103.94869   0.068842606114048
             29.210155    0.23218442062076
              9.286663    0.46794134155879
              3.163927    0.36231203217765
 s    3 1.00
             7.8682724   -0.11933240861517
             1.8812885   -0.16085421161283
             0.5442493     1.1434564825515
 s    1 1.00
             0.1687144                   1
 p    3 1.00
             7.8682724   0.068999095584993
             1.8812885    0.31642397975315
             0.5442493    0.74430825237435
 p    1 1.00
             0.1687144                   1
 d    1 1.00
                   0.8                   1

18 0
 s    6 1.00
             3047.5249  0.0018347001629433
             457.36951    0.01403730124668
             103.94869   0.068842606114048
             29.210155    0.23218442062076
              9.286663    0.46794134155879
              3.163927    0.36231203217765
 s    3 1.00
             7.8682724   -0.11933240861517
             1.8812885   -0.16085421161283
             0.5442493     1.1434564825515
 s    1 1.00
             0.1687144                   1
 p    3 1.00
             7.8682724   0.068999095584993
             1.8812885    0.31642397975315
             0.5442493    0.74430825237435
 p    1 1.00
             0.1687144                   1
 d    1 1.00
                   0.8                   1

19 0
 s    6 1.00
             3047.5249  0.0018347001629433
             457.36951    0.01403730124668
             103.94869   0.068842606114048
             29.210155    0.23218442062076
              9.286663    0.46794134155879
              3.163927    0.36231203217765
 s    3 1.00
             7.8682724   -0.11933240861517
             1.8812885   -0.16085421161283
             0.5442493     1.1434564825515
 s    1 1.00
             0.1687144                   1
 p    3 1.00
             7.8682724   0.068999095584993
             1.8812885    0.31642397975315
             0.5442493    0.74430825237435
 p    1 1.00
             0.1687144                   1
 d    1 1.00
                   0.8                   1

20 0
 s    6 1.00
             3047.5249  0.0018347001629433
             457.36951    0.01403730124668
             103.94869   0.068842606114048
             29.210155    0.23218442062076
              9.286663    0.46794134155879
              3.163927    0.36231203217765
 s    3 1.00
             7.8682724   -0.11933240861517
             1.8812885   -0.16085421161283
             0.5442493     1.1434564825515
 s    1 1.00
             0.1687144                   1
 p    3 1.00
             7.8682724   0.068999095584993
             1.8812885    0.31642397975315
             0.5442493    0.74430825237435
 p    1 1.00
             0.1687144                   1
 d    1 1.00
                   0.8                   1

21 0
 s    6 1.00
             3047.5249  0.0018347001629433
             457.36951    0.01403730124668
             103.94869   0.068842606114048
             29.210155    0.23218442062076
              9.286663    0.46794134155879
              3.163927    0.36231203217765
 s    3 1.00
             7.8682724   -0.11933240861517
             1.8812885   -0.16085421161283
             0.5442493     1.1434564825515
 s    1 1.00
             0.1687144                   1
 p    3 1.00
             7.8682724   0.068999095584993
             1.8812885    0.31642397975315
             0.5442493    0.74430825237435
 p    1 1.00
             0.1687144                   1
 d    1 1.00
                   0.8                   1

22 0
 s    3 1.00
             18.731137    0.03349459952309
             2.8253937    0.23472694665786
             0.6401217    0.81375731841339
 s    1 1.00
             0.1612778                   1

23 0
 s    3 1.00
             18.731137    0.03349459952309
             2.8253937    0.23472694665786
             0.6401217    0.81375731841339
 s    1 1.00
             0.1612778                   1

24 0
 s    3 1.00
             18.731137    0.03349459952309
             2.8253937    0.23472694665786
             0.6401217    0.81375731841339
 s    1 1.00
             0.1612778                   1

25 0
 s    3 1.00
             18.731137    0.03349459952309
             2.8253937    0.23472694665786
             0.6401217    0.81375731841339
 s    1 1.00
             0.1612778                   1

26 0
 s    3 1.00
             18.731137    0.03349459952309
             2.8253937    0.23472694665786
             0.6401217    0.81375731841339
 s    1 1.00
             0.1612778                   1

27 0
 s    3 1.00
             18.731137    0.03349459952309
             2.8253937    0.23472694665786
             0.6401217    0.81375731841339
 s    1 1.00
             0.1612778                   1

28 0
 s    3 1.00
             18.731137    0.03349459952309
             2.8253937    0.23472694665786
             0.6401217    0.81375731841339
 s    1 1.00
             0.1612778                   1

29 0
 s    3 1.00
             18.731137    0.03349459952309
             2.8253937    0.23472694665786
             0.6401217    0.81375731841339
 s    1 1.00
             0.1612778                   1

30 0
 s    3 1.00
             18.731137    0.03349459952309
             2.8253937    0.23472694665786
             0.6401217    0.81375731841339
 s    1 1.00
             0.1612778                   1

31 0
 s    3 1.00
             18.731137    0.03349459952309
             2.8253937    0.23472694665786
             0.6401217    0.81375731841339
 s    1 1.00
             0.1612778                   1

32 0
 s    3 1.00
             18.731137    0.03349459952309
             2.8253937    0.23472694665786
             0.6401217    0.81375731841339
 s    1 1.00
             0.1612778                   1

33 0
 s    6 1.00
             3047.5249  0.0018347001629433
             457.36951    0.01403730124668
             103.94869   0.068842606114048
             29.210155    0.23218442062076
              9.286663    0.46794134155879
              3.163927    0.36231203217765
 s    3 1.00
             7.8682724   -0.11933240861517
             1.8812885   -0.16085421161283
             0.5442493     1.1434564825515
 s    1 1.00
             0.1687144                   1
 p    3 1.00
             7.8682724   0.068999095584993
             1.8812885    0.31642397975315
             0.5442493    0.74430825237435
 p    1 1.00
             0.1687144                   1
 d    1 1.00
                   0.8                   1

34 0
 s    6 1.00
             3047.5249  0.0018347001629433
             457.36951    0.01403730124668
             103.94869   0.068842606114048
             29.210155    0.23218442062076
              9.286663    0.46794134155879
              3.163927    0.36231203217765
 s    3 1.00
             7.8682724   -0.11933240861517
             1.8812885   -0.16085421161283
             0.5442493     1.1434564825515
 s    1 1.00
             0.1687144                   1
 p    3 1.00
             7.8682724   0.068999095584993
             1.8812885    0.31642397975315
             0.5442493    0.74430825237435
 p    1 1.00
             0.1687144                   1
 d    1 1.00
                   0.8                   1

35 0
 s    3 1.00
             18.731137    0.03349459952309
             2.8253937    0.23472694665786
             0.6401217    0.81375731841339
 s    1 1.00
             0.1612778                   1

36 0
 s    6 1.00
             3047.5249  0.0018347001629433
             457.36951    0.01403730124668
             103.94869   0.068842606114048
             29.210155    0.23218442062076
              9.286663    0.46794134155879
              3.163927    0.36231203217765
 s    3 1.00
             7.8682724   -0.11933240861517
             1.8812885   -0.16085421161283
             0.5442493     1.1434564825515
 s    1 1.00
             0.1687144                   1
 p    3 1.00
             7.8682724   0.068999095584993
             1.8812885    0.31642397975315
             0.5442493    0.74430825237435
 p    1 1.00
             0.1687144                   1
 d    1 1.00
                   0.8                   1

37 0
 s    3 1.00
             18.731137    0.03349459952309
             2.8253937    0.23472694665786
             0.6401217    0.81375731841339
 s    1 1.00
             0.1612778                   1

38 0
 s    3 1.00
             18.731137    0.03349459952309
             2.8253937    0.23472694665786
             0.6401217    0.81375731841339
 s    1 1.00
             0.1612778                   1

39 0
 s    6 1.00
             3047.5249  0.0018347001629433
             457.36951    0.01403730124668
             103.94869   0.068842606114048
             29.210155    0.23218442062076
              9.286663    0.46794134155879
              3.163927    0.36231203217765
 s    3 1.00
             7.8682724   -0.11933240861517
             1.8812885   -0.16085421161283
             0.5442493     1.1434564825515
 s    1 1.00
             0.1687144                   1
 p    3 1.00
             7.8682724   0.068999095584993
             1.8812885    0.31642397975315
             0.5442493    0.74430825237435
 p    1 1.00
             0.1687144                   1
 d    1 1.00
                   0.8                   1

40 0
 s    6 1.00
             3047.5249  0.0018347001629433
             457.36951    0.01403730124668
             103.94869   0.068842606114048
             29.210155    0.23218442062076
              9.286663    0.46794134155879
              3.163927    0.36231203217765
 s    3 1.00
             7.8682724   -0.11933240861517
             1.8812885   -0.16085421161283
             0.5442493     1.1434564825515
 s    1 1.00
             0.1687144                   1
 p    3 1.00
             7.8682724   0.068999095584993
             1.8812885    0.31642397975315
             0.5442493    0.74430825237435
 p    1 1.00
             0.1687144                   1
 d    1 1.00
                   0.8                   1

41 0
 s    3 1.00
             18.731137    0.03349459952309
             2.8253937    0.23472694665786
             0.6401217    0.81375731841339
 s    1 1.00
             0.1612778                   1

42 0
 s    6 1.00
             5484.6717   0.001831099805527
             825.23495   0.013950098518422
             188.04696    0.06844509273075
               52.9645    0.23271427528445
              16.89757    0.47019295006289
             5.7996353    0.35852086192309
 s    3 1.00
             15.539616   -0.11077750382508
             3.5999336   -0.14802630511126
             1.0137618     1.1307670390447
 s    1 1.00
             0.2700058                   1
 p    3 1.00
             15.539616   0.070874299543311
             3.5999336    0.33975279781076
             1.0137618    0.72715859531445
 p    1 1.00
             0.2700058                   1
 d    1 1.00
                   0.8                   1

43 0
 s    3 1.00
             18.731137    0.03349459952309
             2.8253937    0.23472694665786
             0.6401217    0.81375731841339
 s    1 1.00
             0.1612778                   1

[5d]
[7f]
[9g]

[MO]
 Sym= A
 Ene=               0
 Spin= Alpha
 Occup=    1.00000
   1    -0.000508919953142
   2    -8.1385586173162e-05
   3    -0.00083995901254715
   4    -6.191535928226e-05
   5    -8.5684666216816e-05
   6    0.00011199489760714
   7    0.00098979765519595
   8    0.0007247093186868
   9    -0.0012127311505602
  10    -5.9868273931382e-05
  11    9.2554074648165e-05
  12    2.3235633617116e-05
  13    2.2805810423045e-05
  14    -1.172027904207e-05
  15    -8.8503023173598e-05
  16    -0.00077343845246691
  17    0.00017615361658608
  18    -0.00036583568893413
  19    0.0011871952336023
  20    -0.00017400705888537
  21    -2.1739492660496e-05
  22    0.00010903644436868
  23    -1.5299446990396e-05
  24    9.9896453956393e-05
  25    -0.00081095845780144
  26    7.9700236529678e-05
  27    7.0110249350468e-05
  28    -0.00010902316574573
  29    5.8404563508279e-05
  30    -5.5460071982428e-05
  31    -4.4660856674117e-05
  32    3.1133619585005e-05
  33    0.0093462141393703
  34    -0.0013072868546809
  35    0.0076130533797221
  36    -0.001369380778375
  37    1.4780336241926e-05
  38    0.0001444087123223
  39    0.0041476467617908
  40    0.00062747203530689
  41    -0.0020495910039447
  42    0.00074912735749871
  43    4.2473900814589e-05
  44    2.0872007265797e-06
  45    -0.0013139627151921
  46    9.8224765569746e-05
  47    -0.00045695336332689
  48    -0.00056282250192786
  49      0.99483665478461
  50     0.038509204650808
  51    -0.030988371701481
  52    -0.00018685990284579
  53    0.00026753854320737
  54    -0.00072685914144053
  55    0.0017818956347486
  56    -0.0012194659920954
  57    0.0029021522961544
  58    0.00014201975739086
  59    -0.00073028998871553
  60    -0.0003548985046957
  61    0.00062413279584844
  62    0.00022614011380815
  63    -0.0013315472383943
  64    0.0044979327590723
  65    -7.9624006873463e-07
  66    -1.0267717693199e-07
  67    -9.4196801749234e-08
  68    -2.0128081267282e-06
  69    5.1670665168763e-06
  70    1.1525668397638e-06
  71    -1.7928781272173e-06
  72    8.3658716488554e-07
  73    4.5186092724662e-06
  74    5.8029365457947e-06
  75    1.5548951834388e-07
  76    -1.1414630600728e-07
  77    -3.1387505264489e-07
  78    3.4783886328795e-07
  79    2.7576143616454e-07
  80    -1.7832298691786e-07
  81    7.5877446226532e-07
  82    2.0252052875602e-06
  83    1.823229461201e-07
  84    -7.5185933634968e-08
  85    -4.992291023306e-05
  86    3.0420432456094e-06
  87    1.1590831212572e-08
  88    3.5507210073499e-06
  89    1.4797654475424e-05
  90    -2.2257089130986e-05
  91    9.4164900112047e-06
  92    7.3002768089507e-07
  93    -1.5515553532702e-06
  94    1.9406380922989e-06
  95    -8.0868501651092e-08
  96    -4.3397971233627e-07
  97    3.1326457134961e-06
  98    3.8840508701493e-06
  99    -1.3048592970323e-07
 100    -5.5635429464338e-06
 101    -5.9473512352747e-07
 102    -4.1090768096082e-06
 103    0.00011357227726359
 104    5.7583730223744e-07
 105    -3.4338397990097e-06
 106    -3.9324336955286e-06
 107    -0.00011331952921945
 108    9.6428187945233e-05
 109    0.00010557447935923
 110    -1.9188011044676e-06
 111    -7.0711841889699e-07
 112    1.9072102233452e-07
 113    3.2027382526433e-07
 114    -3.1834070948999e-06
 115    -1.1992463831087e-06
 116    -1.0081839339357e-05
 117    0.00011551977205371
 118    -3.1107804412392e-06
 119    3.5800286436951e-06
 120    9.320361897769e-07
 121    -2.1882315610487e-05
 122    6.0410097754565e-06
 123    4.146353314315e-05
 124    2.0147184369986e-07
 125    -2.0174804954977e-06
 126    -5.2501729196963e-07
 127    4.9963114959677e-07
 128    -1.7655538044253e-06
 129    -2.8440003403794e-06
 130    -2.4681233542287e-05
 131    0.00018984420227245
 132    5.1461628129243e-06
 133    1.6668033627941e-06
 134    8.0161147546602e-06
 135    -0.00017944617216694
 136    1.0201495281968e-05
 137    -0.00032660459025297
 138    9.663886934222e-06
 139    6.7657819152952e-06
 140    2.0520575018392e-06
 141    9.8815819284752e-07
 142    1.8181048122423e-06
 143    -1.8618936221234e-06
 144    -1.9365050973082e-05
 145    5.9016431356183e-05
 146    3.8780553724899e-08
 147    2.2648718008147e-07
 148    6.2509976083128e-06
 149    4.1022183938689e-05
 150    1.6722546293374e-06
 151    -2.9808173139016e-05
 152    -4.3464984334072e-06
 153    -1.6584680336471e-06
 154    -1.707648368163e-06
 155    2.6382279275638e-06
 156    -3.6059216463819e-06
 157    6.962479063717e-07
 158    4.9969692384123e-06
 159    -1.9348323489174e-05
 160    1.9486693276684e-06
 161    8.8232929617655e-07
 162    -9.9221921252331e-07
 163    -2.7385110565156e-05
 164    9.054207988309e-06
 165    4.697998725973e-06
 166    2.6362879194174e-06
 167    -9.4263527823935e-07
 168    6.5221721356334e-08
 169    -1.854903607804e-07
 170    1.7172495738671e-06
 171    1.8789698098288e-07
 172    -1.1187771513175e-06
 173    4.3904154224248e-07
 174    -1.6810449270247e-06
 175    -7.5963503880529e-07
 176    3.4892540480919e-06
 177    1.3226592602087e-06
 178    9.1351339137992e-06
 179    -1.2292091390433e-06
 180    9.5502754596922e-08
 181    1.8852804635992e-06
 182    6.4583055635874e-07
 183    -9.9160656596754e-07
 184    9.522551840499e-07
 185    -1.5513838409076e-06
 186    -1.4951666304144e-05
 187    2.8584400891192e-05
 188    -1.2709958326417e-06
 189    6.3838714610014e-07
 190    4.0537192840019e-06
 191    5.4302621630357e-06
 192    -7.3708140350776e-06
 193    -2.8119721307343e-05
 194    1.2471134762955e-06
 195    5.6353332090057e-07
 196    1.7874889710978e-06
 197    1.0283581289317e-07
 198    -1.975852048819e-07
 199    -3.494715747781e-06
 200    -1.3129533518245e-06
 201    -4.7021123321384e-07
 202    1.2516723762424e-05
 203    -5.8879977470738e-06
 204    -9.7727469620218e-06
 205    3.4965740677312e-06
 206    -1.9199017938066e-05
 207    2.6426623435105e-07
 208    6.5143199616605e-06
 209    4.6482185181764e-06
 210    -1.1796499364013e-05
 211    3.5783567085232e-06
 212    8.9862882313192e-06
 213    -5.3113839170006e-07
 214    -8.6640690135803e-06
 215    -2.0238006383628e-06
 216    6.6198428524539e-06
 217    8.6034575510666e-07
 218    6.1351948681022e-07
 219    1.6344965894033e-06
 220    3.0804593218123e-06
 221    -4.3709147579601e-06
 222    -3.8240338444388e-05
 223    5.2049317487515e-05
 224    5.0081538515045e-06
 225    -4.7508695642162e-06
 226    1.822707579877e-05
 227    8.5812766907129e-05
 228    0.00011441448629165
 229    -0.00051151251296793
 230    -1.2338201018591e-06
 231    -2.1626809329381e-05
 232    -8.6795152085629e-06
 233    1.0933220805634e-05
 234    9.0066353769083e-06
 235    4.2763313678376e-06
 236    1.7493429637682e-05
 237    -0.00036722760762961
 238    5.3854657055169e-06
 239    -1.7979048450626e-06
 240    2.1061501696517e-05
 241    -6.3208385348533e-05
 242    4.9907422782568e-05
 243    -0.00022791914997319
 244    -1.3631161888117e-05
 245    2.4509619292865e-05
 246    5.8621958328062e-06
 247    6.527465105017e-06
 248    -6.1457279132649e-06
 249    -2.2650364791083e-05
 250    5.3002982762008e-05
 251    -2.1362011371026e-05
 252    -0.00014078553158803
 253    0.0017246874111484
 254    -1.0421481439435e-05
 255    1.3740679917763e-05
 256    -1.0599552534378e-05
 257    0.00060535327271032
 258    0.00026202543651491
 259     -0.00104725201791
 260    4.498733020278e-05
 261    -5.5244161914183e-05
 262    -2.7092006171499e-05
 263    2.554827609841e-05
 264    1.5840957511422e-05
 265    -1.8376160308533e-05
 266    0.00019469918092105
 267    -1.2696224158571e-05
 268    7.986354058854e-05
 269    0.00023482066214127
 270    -0.002130674412585
 271    0.0097492737491172
 272    0.0010771306556525
 273    0.00058209414581249
 274    -0.0016248519186414
 275    -0.0033379364590239
 276    -0.00068437974989434
 277    0.0021611051285455
 278    -0.0008010234015449
 279    0.0010781248336609
 280    0.00067668660049887
 281    -0.00022358241560289