[Molden Format]
made by pyscf v[2.0.1]
[Atoms] (AU)
C   1   6     0.69100024066471     0.64692934207205    -3.48223131169301
H   2   1     2.68052439830868     1.13355088658700    -3.25784032593313
C   3   6    -0.36286361513219     0.85440132524594    -5.97030179418974
H   4   1    -2.35448549047279     0.36322488579172    -6.17995817793143
C   5   6     0.93697958957450     1.61209284601821    -8.05828437677121
H   6   1     1.06549067678056     3.62267689696451    -8.48487489511106
C   7   6     2.16736557798100    -0.10534186648568    -9.75912299477448
H   8   1     2.02320928491733    -2.11383137749881    -9.30645195914250
H   9   1     1.55630230933075    -1.92953025305990    12.99630010416247
C   10   6     0.75233899775814    -2.21270439606481    11.10705728102219
H   11   1    -0.43433408177274    -3.90944857546550    11.22216085340412
C   12   6     2.86362581178706    -2.63237380607947     9.17926416456045
H   13   1     4.39038949912609    -1.24955421540245     9.49899813497433
H   14   1     3.74629220191363    -4.48798724300892     9.47414880959024
C   15   6     2.02478325613682    -2.42177285709634     6.44560829588644
C   16   6     3.88048732735477    -3.58795445234514     4.61402886975252
C   17   6    -0.18412382258602    -1.30464291234259     5.76021113872346
C   18   6    -2.10044360464350    -0.26837831858460     7.71610340967100
C   19   6    -3.08956938670431     2.35282328359417     6.88693925039594
C   20   6    -4.37372924086464    -2.09766595989678     7.93610724222001
C   21   6    -0.83850430601230     0.06372213486173    10.33002307638377
H   22   1     0.38411922151109     1.74281358582432    10.27380136542181
H   23   1    -2.30980003007874     0.45460143924521    11.73986301809809
H   24   1     4.58527064644668    -5.38706904487420     5.36778158031719
H   25   1     5.54944938085014    -2.37631462192748     4.35398898413318
H   26   1     3.06633019150423    -3.94118377050688     2.75255466040884
H   27   1    -4.17727778763735     2.26573369139522     5.12914900961283
H   28   1    -1.52662344944051     3.68001877445626     6.59540397144508
H   29   1    -4.32916174397830     3.13643051467482     8.35225460090378
H   30   1    -5.32329548508442    -2.36691813602939     6.11583672749896
H   31   1    -5.77989366602257    -1.33896741843465     9.25748940450990
H   32   1    -3.79310905208926    -3.96389819310853     8.61386170102686
C   33   6    -1.01100794811226    -1.06331657314144     3.11929490449947
C   34   6     0.37686231036534    -0.33275864505552     1.09165013605873
H   35   1    -3.01671213906703    -1.40297922279997     2.77827895090944
C   36   6    -0.64382707979370    -0.11591880174385    -1.42063131251064
H   37   1     2.35569259782137     0.17174499283897     1.33641070251401
H   38   1    -2.63317482980319    -0.60229203511219    -1.66119700387645
C   39   6     3.47875288242203     0.56169257871714   -11.85961387583028
C   40   6     4.66516051155728    -1.33401759756945   -13.47384510134906
H   41   1     3.69428385946791     2.52875803282145   -12.41815504578381
O   42   8     5.86788117255002    -0.86880199432758   -15.38639878207248
H   43   1     4.39675898316744    -3.32256790318547   -12.83056660829343
[GTO]
1 0
 s    6 1.00
             3047.5249  0.0018347001629433
             457.36951    0.01403730124668
             103.94869   0.068842606114048
             29.210155    0.23218442062076
              9.286663    0.46794134155879
              3.163927    0.36231203217765
 s    3 1.00
             7.8682724   -0.11933240861517
             1.8812885   -0.16085421161283
             0.5442493     1.1434564825515
 s    1 1.00
             0.1687144                   1
 p    3 1.00
             7.8682724   0.068999095584993
             1.8812885    0.31642397975315
             0.5442493    0.74430825237435
 p    1 1.00
             0.1687144                   1
 d    1 1.00
                   0.8                   1

2 0
 s    3 1.00
             18.731137    0.03349459952309
             2.8253937    0.23472694665786
             0.6401217    0.81375731841339
 s    1 1.00
             0.1612778                   1

3 0
 s    6 1.00
             3047.5249  0.0018347001629433
             457.36951    0.01403730124668
             103.94869   0.068842606114048
             29.210155    0.23218442062076
              9.286663    0.46794134155879
              3.163927    0.36231203217765
 s    3 1.00
             7.8682724   -0.11933240861517
             1.8812885   -0.16085421161283
             0.5442493     1.1434564825515
 s    1 1.00
             0.1687144                   1
 p    3 1.00
             7.8682724   0.068999095584993
             1.8812885    0.31642397975315
             0.5442493    0.74430825237435
 p    1 1.00
             0.1687144                   1
 d    1 1.00
                   0.8                   1

4 0
 s    3 1.00
             18.731137    0.03349459952309
             2.8253937    0.23472694665786
             0.6401217    0.81375731841339
 s    1 1.00
             0.1612778                   1

5 0
 s    6 1.00
             3047.5249  0.0018347001629433
             457.36951    0.01403730124668
             103.94869   0.068842606114048
             29.210155    0.23218442062076
              9.286663    0.46794134155879
              3.163927    0.36231203217765
 s    3 1.00
             7.8682724   -0.11933240861517
             1.8812885   -0.16085421161283
             0.5442493     1.1434564825515
 s    1 1.00
             0.1687144                   1
 p    3 1.00
             7.8682724   0.068999095584993
             1.8812885    0.31642397975315
             0.5442493    0.74430825237435
 p    1 1.00
             0.1687144                   1
 d    1 1.00
                   0.8                   1

6 0
 s    3 1.00
             18.731137    0.03349459952309
             2.8253937    0.23472694665786
             0.6401217    0.81375731841339
 s    1 1.00
             0.1612778                   1

7 0
 s    6 1.00
             3047.5249  0.0018347001629433
             457.36951    0.01403730124668
             103.94869   0.068842606114048
             29.210155    0.23218442062076
              9.286663    0.46794134155879
              3.163927    0.36231203217765
 s    3 1.00
             7.8682724   -0.11933240861517
             1.8812885   -0.16085421161283
             0.5442493     1.1434564825515
 s    1 1.00
             0.1687144                   1
 p    3 1.00
             7.8682724   0.068999095584993
             1.8812885    0.31642397975315
             0.5442493    0.74430825237435
 p    1 1.00
             0.1687144                   1
 d    1 1.00
                   0.8                   1

8 0
 s    3 1.00
             18.731137    0.03349459952309
             2.8253937    0.23472694665786
             0.6401217    0.81375731841339
 s    1 1.00
             0.1612778                   1

9 0
 s    3 1.00
             18.731137    0.03349459952309
             2.8253937    0.23472694665786
             0.6401217    0.81375731841339
 s    1 1.00
             0.1612778                   1

10 0
 s    6 1.00
             3047.5249  0.0018347001629433
             457.36951    0.01403730124668
             103.94869   0.068842606114048
             29.210155    0.23218442062076
              9.286663    0.46794134155879
              3.163927    0.36231203217765
 s    3 1.00
             7.8682724   -0.11933240861517
             1.8812885   -0.16085421161283
             0.5442493     1.1434564825515
 s    1 1.00
             0.1687144                   1
 p    3 1.00
             7.8682724   0.068999095584993
             1.8812885    0.31642397975315
             0.5442493    0.74430825237435
 p    1 1.00
             0.1687144                   1
 d    1 1.00
                   0.8                   1

11 0
 s    3 1.00
             18.731137    0.03349459952309
             2.8253937    0.23472694665786
             0.6401217    0.81375731841339
 s    1 1.00
             0.1612778                   1

12 0
 s    6 1.00
             3047.5249  0.0018347001629433
             457.36951    0.01403730124668
             103.94869   0.068842606114048
             29.210155    0.23218442062076
              9.286663    0.46794134155879
              3.163927    0.36231203217765
 s    3 1.00
             7.8682724   -0.11933240861517
             1.8812885   -0.16085421161283
             0.5442493     1.1434564825515
 s    1 1.00
             0.1687144                   1
 p    3 1.00
             7.8682724   0.068999095584993
             1.8812885    0.31642397975315
             0.5442493    0.74430825237435
 p    1 1.00
             0.1687144                   1
 d    1 1.00
                   0.8                   1

13 0
 s    3 1.00
             18.731137    0.03349459952309
             2.8253937    0.23472694665786
             0.6401217    0.81375731841339
 s    1 1.00
             0.1612778                   1

14 0
 s    3 1.00
             18.731137    0.03349459952309
             2.8253937    0.23472694665786
             0.6401217    0.81375731841339
 s    1 1.00
             0.1612778                   1

15 0
 s    6 1.00
             3047.5249  0.0018347001629433
             457.36951    0.01403730124668
             103.94869   0.068842606114048
             29.210155    0.23218442062076
              9.286663    0.46794134155879
              3.163927    0.36231203217765
 s    3 1.00
             7.8682724   -0.11933240861517
             1.8812885   -0.16085421161283
             0.5442493     1.1434564825515
 s    1 1.00
             0.1687144                   1
 p    3 1.00
             7.8682724   0.068999095584993
             1.8812885    0.31642397975315
             0.5442493    0.74430825237435
 p    1 1.00
             0.1687144                   1
 d    1 1.00
                   0.8                   1

16 0
 s    6 1.00
             3047.5249  0.0018347001629433
             457.36951    0.01403730124668
             103.94869   0.068842606114048
             29.210155    0.23218442062076
              9.286663    0.46794134155879
              3.163927    0.36231203217765
 s    3 1.00
             7.8682724   -0.11933240861517
             1.8812885   -0.16085421161283
             0.5442493     1.1434564825515
 s    1 1.00
             0.1687144                   1
 p    3 1.00
             7.8682724   0.068999095584993
             1.8812885    0.31642397975315
             0.5442493    0.74430825237435
 p    1 1.00
             0.1687144                   1
 d    1 1.00
                   0.8                   1

17 0
 s    6 1.00
             3047.5249  0.0018347001629433
             457.36951    0.01403730124668
             103.94869   0.068842606114048
             29.210155    0.23218442062076
              9.286663    0.46794134155879
              3.163927    0.36231203217765
 s    3 1.00
             7.8682724   -0.11933240861517
             1.8812885   -0.16085421161283
             0.5442493     1.1434564825515
 s    1 1.00
             0.1687144                   1
 p    3 1.00
             7.8682724   0.068999095584993
             1.8812885    0.31642397975315
             0.5442493    0.74430825237435
 p    1 1.00
             0.1687144                   1
 d    1 1.00
                   0.8                   1

18 0
 s    6 1.00
             3047.5249  0.0018347001629433
             457.36951    0.01403730124668
             103.94869   0.068842606114048
             29.210155    0.23218442062076
              9.286663    0.46794134155879
              3.163927    0.36231203217765
 s    3 1.00
             7.8682724   -0.11933240861517
             1.8812885   -0.16085421161283
             0.5442493     1.1434564825515
 s    1 1.00
             0.1687144                   1
 p    3 1.00
             7.8682724   0.068999095584993
             1.8812885    0.31642397975315
             0.5442493    0.74430825237435
 p    1 1.00
             0.1687144                   1
 d    1 1.00
                   0.8                   1

19 0
 s    6 1.00
             3047.5249  0.0018347001629433
             457.36951    0.01403730124668
             103.94869   0.068842606114048
             29.210155    0.23218442062076
              9.286663    0.46794134155879
              3.163927    0.36231203217765
 s    3 1.00
             7.8682724   -0.11933240861517
             1.8812885   -0.16085421161283
             0.5442493     1.1434564825515
 s    1 1.00
             0.1687144                   1
 p    3 1.00
             7.8682724   0.068999095584993
             1.8812885    0.31642397975315
             0.5442493    0.74430825237435
 p    1 1.00
             0.1687144                   1
 d    1 1.00
                   0.8                   1

20 0
 s    6 1.00
             3047.5249  0.0018347001629433
             457.36951    0.01403730124668
             103.94869   0.068842606114048
             29.210155    0.23218442062076
              9.286663    0.46794134155879
              3.163927    0.36231203217765
 s    3 1.00
             7.8682724   -0.11933240861517
             1.8812885   -0.16085421161283
             0.5442493     1.1434564825515
 s    1 1.00
             0.1687144                   1
 p    3 1.00
             7.8682724   0.068999095584993
             1.8812885    0.31642397975315
             0.5442493    0.74430825237435
 p    1 1.00
             0.1687144                   1
 d    1 1.00
                   0.8                   1

21 0
 s    6 1.00
             3047.5249  0.0018347001629433
             457.36951    0.01403730124668
             103.94869   0.068842606114048
             29.210155    0.23218442062076
              9.286663    0.46794134155879
              3.163927    0.36231203217765
 s    3 1.00
             7.8682724   -0.11933240861517
             1.8812885   -0.16085421161283
             0.5442493     1.1434564825515
 s    1 1.00
             0.1687144                   1
 p    3 1.00
             7.8682724   0.068999095584993
             1.8812885    0.31642397975315
             0.5442493    0.74430825237435
 p    1 1.00
             0.1687144                   1
 d    1 1.00
                   0.8                   1

22 0
 s    3 1.00
             18.731137    0.03349459952309
             2.8253937    0.23472694665786
             0.6401217    0.81375731841339
 s    1 1.00
             0.1612778                   1

23 0
 s    3 1.00
             18.731137    0.03349459952309
             2.8253937    0.23472694665786
             0.6401217    0.81375731841339
 s    1 1.00
             0.1612778                   1

24 0
 s    3 1.00
             18.731137    0.03349459952309
             2.8253937    0.23472694665786
             0.6401217    0.81375731841339
 s    1 1.00
             0.1612778                   1

25 0
 s    3 1.00
             18.731137    0.03349459952309
             2.8253937    0.23472694665786
             0.6401217    0.81375731841339
 s    1 1.00
             0.1612778                   1

26 0
 s    3 1.00
             18.731137    0.03349459952309
             2.8253937    0.23472694665786
             0.6401217    0.81375731841339
 s    1 1.00
             0.1612778                   1

27 0
 s    3 1.00
             18.731137    0.03349459952309
             2.8253937    0.23472694665786
             0.6401217    0.81375731841339
 s    1 1.00
             0.1612778                   1

28 0
 s    3 1.00
             18.731137    0.03349459952309
             2.8253937    0.23472694665786
             0.6401217    0.81375731841339
 s    1 1.00
             0.1612778                   1

29 0
 s    3 1.00
             18.731137    0.03349459952309
             2.8253937    0.23472694665786
             0.6401217    0.81375731841339
 s    1 1.00
             0.1612778                   1

30 0
 s    3 1.00
             18.731137    0.03349459952309
             2.8253937    0.23472694665786
             0.6401217    0.81375731841339
 s    1 1.00
             0.1612778                   1

31 0
 s    3 1.00
             18.731137    0.03349459952309
             2.8253937    0.23472694665786
             0.6401217    0.81375731841339
 s    1 1.00
             0.1612778                   1

32 0
 s    3 1.00
             18.731137    0.03349459952309
             2.8253937    0.23472694665786
             0.6401217    0.81375731841339
 s    1 1.00
             0.1612778                   1

33 0
 s    6 1.00
             3047.5249  0.0018347001629433
             457.36951    0.01403730124668
             103.94869   0.068842606114048
             29.210155    0.23218442062076
              9.286663    0.46794134155879
              3.163927    0.36231203217765
 s    3 1.00
             7.8682724   -0.11933240861517
             1.8812885   -0.16085421161283
             0.5442493     1.1434564825515
 s    1 1.00
             0.1687144                   1
 p    3 1.00
             7.8682724   0.068999095584993
             1.8812885    0.31642397975315
             0.5442493    0.74430825237435
 p    1 1.00
             0.1687144                   1
 d    1 1.00
                   0.8                   1

34 0
 s    6 1.00
             3047.5249  0.0018347001629433
             457.36951    0.01403730124668
             103.94869   0.068842606114048
             29.210155    0.23218442062076
              9.286663    0.46794134155879
              3.163927    0.36231203217765
 s    3 1.00
             7.8682724   -0.11933240861517
             1.8812885   -0.16085421161283
             0.5442493     1.1434564825515
 s    1 1.00
             0.1687144                   1
 p    3 1.00
             7.8682724   0.068999095584993
             1.8812885    0.31642397975315
             0.5442493    0.74430825237435
 p    1 1.00
             0.1687144                   1
 d    1 1.00
                   0.8                   1

35 0
 s    3 1.00
             18.731137    0.03349459952309
             2.8253937    0.23472694665786
             0.6401217    0.81375731841339
 s    1 1.00
             0.1612778                   1

36 0
 s    6 1.00
             3047.5249  0.0018347001629433
             457.36951    0.01403730124668
             103.94869   0.068842606114048
             29.210155    0.23218442062076
              9.286663    0.46794134155879
              3.163927    0.36231203217765
 s    3 1.00
             7.8682724   -0.11933240861517
             1.8812885   -0.16085421161283
             0.5442493     1.1434564825515
 s    1 1.00
             0.1687144                   1
 p    3 1.00
             7.8682724   0.068999095584993
             1.8812885    0.31642397975315
             0.5442493    0.74430825237435
 p    1 1.00
             0.1687144                   1
 d    1 1.00
                   0.8                   1

37 0
 s    3 1.00
             18.731137    0.03349459952309
             2.8253937    0.23472694665786
             0.6401217    0.81375731841339
 s    1 1.00
             0.1612778                   1

38 0
 s    3 1.00
             18.731137    0.03349459952309
             2.8253937    0.23472694665786
             0.6401217    0.81375731841339
 s    1 1.00
             0.1612778                   1

39 0
 s    6 1.00
             3047.5249  0.0018347001629433
             457.36951    0.01403730124668
             103.94869   0.068842606114048
             29.210155    0.23218442062076
              9.286663    0.46794134155879
              3.163927    0.36231203217765
 s    3 1.00
             7.8682724   -0.11933240861517
             1.8812885   -0.16085421161283
             0.5442493     1.1434564825515
 s    1 1.00
             0.1687144                   1
 p    3 1.00
             7.8682724   0.068999095584993
             1.8812885    0.31642397975315
             0.5442493    0.74430825237435
 p    1 1.00
             0.1687144                   1
 d    1 1.00
                   0.8                   1

40 0
 s    6 1.00
             3047.5249  0.0018347001629433
             457.36951    0.01403730124668
             103.94869   0.068842606114048
             29.210155    0.23218442062076
              9.286663    0.46794134155879
              3.163927    0.36231203217765
 s    3 1.00
             7.8682724   -0.11933240861517
             1.8812885   -0.16085421161283
             0.5442493     1.1434564825515
 s    1 1.00
             0.1687144                   1
 p    3 1.00
             7.8682724   0.068999095584993
             1.8812885    0.31642397975315
             0.5442493    0.74430825237435
 p    1 1.00
             0.1687144                   1
 d    1 1.00
                   0.8                   1

41 0
 s    3 1.00
             18.731137    0.03349459952309
             2.8253937    0.23472694665786
             0.6401217    0.81375731841339
 s    1 1.00
             0.1612778                   1

42 0
 s    6 1.00
             5484.6717   0.001831099805527
             825.23495   0.013950098518422
             188.04696    0.06844509273075
               52.9645    0.23271427528445
              16.89757    0.47019295006289
             5.7996353    0.35852086192309
 s    3 1.00
             15.539616   -0.11077750382508
             3.5999336   -0.14802630511126
             1.0137618     1.1307670390447
 s    1 1.00
             0.2700058                   1
 p    3 1.00
             15.539616   0.070874299543311
             3.5999336    0.33975279781076
             1.0137618    0.72715859531445
 p    1 1.00
             0.2700058                   1
 d    1 1.00
                   0.8                   1

43 0
 s    3 1.00
             18.731137    0.03349459952309
             2.8253937    0.23472694665786
             0.6401217    0.81375731841339
 s    1 1.00
             0.1612778                   1

[5d]
[7f]
[9g]

[MO]
 Sym= A
 Ene=               0
 Spin= Alpha
 Occup=    1.00000
   1     0.015935476946979
   2    -0.0011844778834196
   3    0.0077353886236484
   4    0.00043463987781924
   5    -0.0001405694518114
   6    0.0013479801163932
   7    0.00088962597481696
   8    0.0013599937320797
   9    -0.006069242052815
  10    -0.00099812917216095
  11    -0.00095800601571906
  12    0.00015978834104224
  13    -0.00021762690232455
  14    5.2400817002089e-05
  15    -0.0005426956609448
  16    -0.000996973720132
  17      0.99472454560493
  18     0.039355730398108
  19    -0.031455457160761
  20    0.0010365484519661
  21    0.00018471560273988
  22    -0.00065325915716146
  23    -0.0040162494907751
  24    -0.0011877495000454
  25    -0.00083647250708854
  26    0.00080817813661167
  27    -0.00032350839331013
  28    -0.0003598377953293
  29    0.00028408681023532
  30    0.00018270095199437
  31    -0.0012924441817659
  32    0.0042189898330143
  33     0.012724830495872
  34    -0.00039557751558622
  35    0.0012102783050525
  36    0.00096484621271248
  37    0.00037581660047958
  38    -0.0013018568281581
  39    -0.0024835887886708
  40    0.0038244340009924
  41    0.0046393465204151
  42    -0.00068875327988173
  43    0.0013213290476493
  44    0.00051979497815442
  45    -0.00038129480385175
  46    -0.00042938510526998
  47    -0.0006075403638688
  48    -0.00064811643668527
  49    -0.00037573634225522
  50    -0.00060451320975582
  51    0.00030627950391421
  52    0.00026149107652273
  53    2.3093054268589e-05
  54    -0.00045269704136094
  55    -0.0051463501762194
  56    0.0012509649838448
  57    0.0077501612725819
  58    -0.00016218311569403
  59    -1.0195896882272e-05
  60    0.00018602223102697
  61    -0.00027237454307181
  62    -0.00018769131103115
  63    -0.00051983402674245
  64    0.0002805367203483
  65    -2.9805250147245e-06
  66    -4.7767927266112e-06
  67    -1.4919052853295e-07
  68    -1.3658652928363e-06
  69    7.3681706408214e-06
  70    2.6231954084094e-06
  71    -5.0904021805196e-06
  72    -3.6910773450717e-07
  73    1.4625608512956e-05
  74    2.7055292675807e-05
  75    1.0380584602237e-05
  76    -1.2057582330906e-07
  77    -3.6840824537615e-07
  78     3.72411057187e-07
  79    6.3595301058533e-07
  80    -3.643378602941e-08
  81    2.6107112356832e-06
  82    1.365089060278e-05
  83    2.0603404013966e-07
  84    1.7241112642367e-06
  85    -7.0880354916158e-05
  86    3.6511275628959e-06
  87    3.2395952976655e-06
  88    5.4762973632244e-06
  89    2.6084928768326e-05
  90    -6.9688081832656e-05
  91    7.2710909027798e-06
  92    1.758851026417e-06
  93    -3.0597652908132e-06
  94    4.0234140495854e-06
  95    -8.7579711065279e-07
  96    -1.2053297404566e-06
  97    7.0037444402598e-06
  98    1.2079880519523e-05
  99    -3.4027067238222e-06
 100    -2.0087579571004e-05
 101    -1.1658825006657e-06
 102    -1.3236443415918e-05
 103    0.00025771174010803
 104    -6.3883125340209e-07
 105    -6.3186856128009e-06
 106    -3.6875856990938e-06
 107    -0.00020707790235121
 108    0.00020223585698606
 109    0.00014406727078969
 110    -6.3880808575662e-06
 111    4.0575128879466e-09
 112    -1.9244109806581e-08
 113    1.5470732880515e-06
 114    -5.9316746907343e-06
 115    -3.5016155702425e-06
 116    -3.5312945056219e-05
 117    0.00025389489983979
 118    -2.5245190544452e-06
 119    3.1538609815739e-06
 120    5.7248953479902e-06
 121    -5.1763658823053e-05
 122    1.0745571702535e-05
 123    3.1690908880808e-05
 124    1.7413409407293e-06
 125    -3.0161962609467e-06
 126    -2.696569205987e-06
 127    5.3339176139253e-07
 128    -2.3836616317598e-06
 129    -5.808500779537e-06
 130    -5.6273310000895e-05
 131    0.00015591654797002
 132    6.4248317334047e-06
 133    -5.0404297412961e-06
 134    2.3670159217783e-05
 135    -0.00038478337326193
 136    4.6798320876035e-05
 137    -0.00043122086618613
 138    9.8557035473379e-06
 139    1.4217561676529e-05
 140    6.480219657062e-06
 141    4.9021652360964e-06
 142    7.5899098479489e-06
 143    -2.1422220080523e-06
 144    -2.7916717593186e-05
 145    2.2774025521653e-05
 146    2.7541830042212e-06
 147    6.3971640779496e-06
 148    1.3437573766092e-05
 149    1.2582283213788e-05
 150    1.5889604652575e-06
 151    -6.7077610995562e-05
 152    -7.4972537375944e-06
 153    -4.083445149297e-06
 154    -3.3997559163078e-06
 155    4.5013377371927e-06
 156    -4.2447776711149e-06
 157    1.6575431574351e-06
 158    1.3882063211093e-05
 159    -3.9364653575687e-05
 160    6.3732524604111e-06
 161    -1.1440802172611e-07
 162    -1.9086952701351e-06
 163    -5.3410591344744e-05
 164    2.6327929378401e-05
 165    1.1388111983005e-05
 166    4.6211776533107e-06
 167    -6.1438656565804e-07
 168    -2.4262286405508e-07
 169    9.0746398888511e-07
 170    2.0433141330974e-06
 171    -5.1873656390424e-07
 172    -1.3253259465601e-05
 173    2.4655722895515e-05
 174    -4.3242809596248e-06
 175    -2.7593265050642e-07
 176    1.2071832545702e-05
 177    -6.9546732970367e-07
 178    -2.176265422218e-06
 179    -2.8621392584045e-05
 180    1.7144142798482e-06
 181    5.1457884557099e-06
 182    8.3467680298884e-07
 183    -1.2680634921806e-06
 184    1.7660463644011e-06
 185    -3.6365269826537e-06
 186    -3.1630511391395e-05
 187    9.3425941800178e-05
 188    -2.7611553004866e-06
 189    7.2621890063756e-07
 190    5.5010533629064e-06
 191    -2.4095668418562e-06
 192    -1.5064482941805e-05
 193    -7.8536232572059e-05
 194    3.6422178128511e-06
 195    1.8314750470132e-06
 196    2.9288623702721e-06
 197    -4.0217381898128e-07
 198    4.5536651238528e-07
 199    -8.4315758457989e-06
 200    -6.9659170748238e-08
 201    -2.2695927030337e-06
 202    2.2181466646111e-05
 203    -1.187615097264e-05
 204    -6.1099752496861e-06
 205    -9.5233153347095e-07
 206    -3.0070420751525e-05
 207    1.1095888715458e-05
 208    -6.9037692273134e-05
 209    1.1921875976202e-05
 210    -2.8109573996943e-05
 211    6.6143236066594e-06
 212    1.8729446296701e-05
 213    -7.6831651882857e-07
 214    -2.3144259958957e-05
 215    -3.1661082783639e-06
 216    -3.0263140526096e-05
 217    1.7614553890451e-06
 218    9.7593091742794e-06
 219    5.4748766397767e-07
 220    -1.8273696287153e-06
 221    -9.2417342823867e-06
 222    -9.3233174882044e-05
 223    0.00093672148001422
 224    -1.3508704828478e-05
 225    -5.2501387310673e-06
 226    1.2169114799248e-05
 227    0.00067936627753554
 228    0.00032030539541816
 229    -0.00097900111099013
 230    2.7520665218311e-06
 231    -4.6297659692644e-05
 232    -2.3354735495884e-05
 233    2.2996629343531e-05
 234    2.3966331180827e-05
 235    -1.5943669283266e-05
 236    -3.9302019818035e-05
 237    -0.00024840251037708
 238    -2.2255766572556e-05
 239    -3.3470263218984e-06
 240    1.1257243723282e-05
 241    0.00030986680535283
 242    0.00035978337103543
 243    -0.0016216796051218
 244    1.0473423647679e-05
 245    7.5540331132553e-05
 246    1.5161797971087e-05
 247    1.9657753246628e-05
 248    -1.5483075080143e-06
 249    -3.5512126971702e-05
 250    0.00032625256560183
 251    -2.759431314439e-05
 252    -0.00042030068121435
 253    0.0022250915213252
 254    8.4308576066923e-05
 255    -3.2623073409915e-05
 256    0.00023397459108672
 257    -1.3239808253821e-05
 258    0.00043409488611774
 259    -0.0018556786927844
 260    -6.9863181347738e-05
 261    -2.1374710347486e-05
 262    -1.8305698486831e-05
 263    0.00014805814265867
 264    9.293886235293e-05
 265    -9.6675324044695e-05
 266    0.00021536187727958
 267    -0.0001447742906465
 268    -0.0005482678964334
 269    -8.2676302935938e-05
 270    -0.00055229650337123
 271    0.0072864780379347
 272    -7.6980752172144e-05
 273    0.00012029804239201
 274    0.00013409418123291
 275    -0.001744341263696
 276    -0.002997801367521
 277     0.002881413011373
 278    8.7154432019138e-05
 279    -0.00019225878858451
 280    -0.00010097613398557