[Molden Format]
made by pyscf v[2.0.1]
[Atoms] (AU)
C   1   6     0.69100024066471     0.64692934207205    -3.48223131169301
H   2   1     2.68052439830868     1.13355088658700    -3.25784032593313
C   3   6    -0.36286361513219     0.85440132524594    -5.97030179418974
H   4   1    -2.35448549047279     0.36322488579172    -6.17995817793143
C   5   6     0.93697958957450     1.61209284601821    -8.05828437677121
H   6   1    -0.10682308805726     2.30253989392639    -9.69373588628611
C   7   6     3.64263503193718     1.55467149193689    -8.23832629511906
H   8   1     4.66272936056768     0.85936926442728    -6.58433578959761
H   9   1     1.55630230933075    -1.92953025305990    12.99630010416247
C   10   6     0.75233899775814    -2.21270439606481    11.10705728102219
H   11   1    -0.43433408177274    -3.90944857546550    11.22216085340412
C   12   6     2.86362581178706    -2.63237380607947     9.17926416456045
H   13   1     4.39038949912609    -1.24955421540245     9.49899813497433
H   14   1     3.74629220191363    -4.48798724300892     9.47414880959024
C   15   6     2.02478325613682    -2.42177285709634     6.44560829588644
C   16   6     3.88048732735477    -3.58795445234514     4.61402886975252
C   17   6    -0.18412382258602    -1.30464291234259     5.76021113872346
C   18   6    -2.10044360464350    -0.26837831858460     7.71610340967100
C   19   6    -3.08956938670431     2.35282328359417     6.88693925039594
C   20   6    -4.37372924086464    -2.09766595989678     7.93610724222001
C   21   6    -0.83850430601230     0.06372213486173    10.33002307638377
H   22   1     0.38411922151109     1.74281358582432    10.27380136542181
H   23   1    -2.30980003007874     0.45460143924521    11.73986301809809
H   24   1     4.58527064644668    -5.38706904487420     5.36778158031719
H   25   1     5.54944938085014    -2.37631462192748     4.35398898413318
H   26   1     3.06633019150423    -3.94118377050688     2.75255466040884
H   27   1    -4.17727778763735     2.26573369139522     5.12914900961283
H   28   1    -1.52662344944051     3.68001877445626     6.59540397144508
H   29   1    -4.32916174397830     3.13643051467482     8.35225460090378
H   30   1    -5.32329548508442    -2.36691813602939     6.11583672749896
H   31   1    -5.77989366602257    -1.33896741843465     9.25748940450990
H   32   1    -3.79310905208926    -3.96389819310853     8.61386170102686
C   33   6    -1.01100794811226    -1.06331657314144     3.11929490449947
C   34   6     0.37686231036534    -0.33275864505552     1.09165013605873
H   35   1    -3.01671213906703    -1.40297922279997     2.77827895090944
C   36   6    -0.64382707979370    -0.11591880174385    -1.42063131251064
H   37   1     2.35569259782137     0.17174499283897     1.33641070251401
H   38   1    -2.63317482980319    -0.60229203511219    -1.66119700387645
C   39   6     5.01588399354044     2.28654094702299   -10.27677863573407
C   40   6     7.77080404832789     2.15450646451281   -10.27454889780196
H   41   1     4.11782812209845     2.99683739506263   -11.98462609656630
O   42   8     9.12060555425099     2.77825484064970   -12.03801083010553
H   43   1     8.60983853061047     1.41663292301779    -8.48800399433497
[GTO]
1 0
 s    6 1.00
             3047.5249  0.0018347001629433
             457.36951    0.01403730124668
             103.94869   0.068842606114048
             29.210155    0.23218442062076
              9.286663    0.46794134155879
              3.163927    0.36231203217765
 s    3 1.00
             7.8682724   -0.11933240861517
             1.8812885   -0.16085421161283
             0.5442493     1.1434564825515
 s    1 1.00
             0.1687144                   1
 p    3 1.00
             7.8682724   0.068999095584993
             1.8812885    0.31642397975315
             0.5442493    0.74430825237435
 p    1 1.00
             0.1687144                   1
 d    1 1.00
                   0.8                   1

2 0
 s    3 1.00
             18.731137    0.03349459952309
             2.8253937    0.23472694665786
             0.6401217    0.81375731841339
 s    1 1.00
             0.1612778                   1

3 0
 s    6 1.00
             3047.5249  0.0018347001629433
             457.36951    0.01403730124668
             103.94869   0.068842606114048
             29.210155    0.23218442062076
              9.286663    0.46794134155879
              3.163927    0.36231203217765
 s    3 1.00
             7.8682724   -0.11933240861517
             1.8812885   -0.16085421161283
             0.5442493     1.1434564825515
 s    1 1.00
             0.1687144                   1
 p    3 1.00
             7.8682724   0.068999095584993
             1.8812885    0.31642397975315
             0.5442493    0.74430825237435
 p    1 1.00
             0.1687144                   1
 d    1 1.00
                   0.8                   1

4 0
 s    3 1.00
             18.731137    0.03349459952309
             2.8253937    0.23472694665786
             0.6401217    0.81375731841339
 s    1 1.00
             0.1612778                   1

5 0
 s    6 1.00
             3047.5249  0.0018347001629433
             457.36951    0.01403730124668
             103.94869   0.068842606114048
             29.210155    0.23218442062076
              9.286663    0.46794134155879
              3.163927    0.36231203217765
 s    3 1.00
             7.8682724   -0.11933240861517
             1.8812885   -0.16085421161283
             0.5442493     1.1434564825515
 s    1 1.00
             0.1687144                   1
 p    3 1.00
             7.8682724   0.068999095584993
             1.8812885    0.31642397975315
             0.5442493    0.74430825237435
 p    1 1.00
             0.1687144                   1
 d    1 1.00
                   0.8                   1

6 0
 s    3 1.00
             18.731137    0.03349459952309
             2.8253937    0.23472694665786
             0.6401217    0.81375731841339
 s    1 1.00
             0.1612778                   1

7 0
 s    6 1.00
             3047.5249  0.0018347001629433
             457.36951    0.01403730124668
             103.94869   0.068842606114048
             29.210155    0.23218442062076
              9.286663    0.46794134155879
              3.163927    0.36231203217765
 s    3 1.00
             7.8682724   -0.11933240861517
             1.8812885   -0.16085421161283
             0.5442493     1.1434564825515
 s    1 1.00
             0.1687144                   1
 p    3 1.00
             7.8682724   0.068999095584993
             1.8812885    0.31642397975315
             0.5442493    0.74430825237435
 p    1 1.00
             0.1687144                   1
 d    1 1.00
                   0.8                   1

8 0
 s    3 1.00
             18.731137    0.03349459952309
             2.8253937    0.23472694665786
             0.6401217    0.81375731841339
 s    1 1.00
             0.1612778                   1

9 0
 s    3 1.00
             18.731137    0.03349459952309
             2.8253937    0.23472694665786
             0.6401217    0.81375731841339
 s    1 1.00
             0.1612778                   1

10 0
 s    6 1.00
             3047.5249  0.0018347001629433
             457.36951    0.01403730124668
             103.94869   0.068842606114048
             29.210155    0.23218442062076
              9.286663    0.46794134155879
              3.163927    0.36231203217765
 s    3 1.00
             7.8682724   -0.11933240861517
             1.8812885   -0.16085421161283
             0.5442493     1.1434564825515
 s    1 1.00
             0.1687144                   1
 p    3 1.00
             7.8682724   0.068999095584993
             1.8812885    0.31642397975315
             0.5442493    0.74430825237435
 p    1 1.00
             0.1687144                   1
 d    1 1.00
                   0.8                   1

11 0
 s    3 1.00
             18.731137    0.03349459952309
             2.8253937    0.23472694665786
             0.6401217    0.81375731841339
 s    1 1.00
             0.1612778                   1

12 0
 s    6 1.00
             3047.5249  0.0018347001629433
             457.36951    0.01403730124668
             103.94869   0.068842606114048
             29.210155    0.23218442062076
              9.286663    0.46794134155879
              3.163927    0.36231203217765
 s    3 1.00
             7.8682724   -0.11933240861517
             1.8812885   -0.16085421161283
             0.5442493     1.1434564825515
 s    1 1.00
             0.1687144                   1
 p    3 1.00
             7.8682724   0.068999095584993
             1.8812885    0.31642397975315
             0.5442493    0.74430825237435
 p    1 1.00
             0.1687144                   1
 d    1 1.00
                   0.8                   1

13 0
 s    3 1.00
             18.731137    0.03349459952309
             2.8253937    0.23472694665786
             0.6401217    0.81375731841339
 s    1 1.00
             0.1612778                   1

14 0
 s    3 1.00
             18.731137    0.03349459952309
             2.8253937    0.23472694665786
             0.6401217    0.81375731841339
 s    1 1.00
             0.1612778                   1

15 0
 s    6 1.00
             3047.5249  0.0018347001629433
             457.36951    0.01403730124668
             103.94869   0.068842606114048
             29.210155    0.23218442062076
              9.286663    0.46794134155879
              3.163927    0.36231203217765
 s    3 1.00
             7.8682724   -0.11933240861517
             1.8812885   -0.16085421161283
             0.5442493     1.1434564825515
 s    1 1.00
             0.1687144                   1
 p    3 1.00
             7.8682724   0.068999095584993
             1.8812885    0.31642397975315
             0.5442493    0.74430825237435
 p    1 1.00
             0.1687144                   1
 d    1 1.00
                   0.8                   1

16 0
 s    6 1.00
             3047.5249  0.0018347001629433
             457.36951    0.01403730124668
             103.94869   0.068842606114048
             29.210155    0.23218442062076
              9.286663    0.46794134155879
              3.163927    0.36231203217765
 s    3 1.00
             7.8682724   -0.11933240861517
             1.8812885   -0.16085421161283
             0.5442493     1.1434564825515
 s    1 1.00
             0.1687144                   1
 p    3 1.00
             7.8682724   0.068999095584993
             1.8812885    0.31642397975315
             0.5442493    0.74430825237435
 p    1 1.00
             0.1687144                   1
 d    1 1.00
                   0.8                   1

17 0
 s    6 1.00
             3047.5249  0.0018347001629433
             457.36951    0.01403730124668
             103.94869   0.068842606114048
             29.210155    0.23218442062076
              9.286663    0.46794134155879
              3.163927    0.36231203217765
 s    3 1.00
             7.8682724   -0.11933240861517
             1.8812885   -0.16085421161283
             0.5442493     1.1434564825515
 s    1 1.00
             0.1687144                   1
 p    3 1.00
             7.8682724   0.068999095584993
             1.8812885    0.31642397975315
             0.5442493    0.74430825237435
 p    1 1.00
             0.1687144                   1
 d    1 1.00
                   0.8                   1

18 0
 s    6 1.00
             3047.5249  0.0018347001629433
             457.36951    0.01403730124668
             103.94869   0.068842606114048
             29.210155    0.23218442062076
              9.286663    0.46794134155879
              3.163927    0.36231203217765
 s    3 1.00
             7.8682724   -0.11933240861517
             1.8812885   -0.16085421161283
             0.5442493     1.1434564825515
 s    1 1.00
             0.1687144                   1
 p    3 1.00
             7.8682724   0.068999095584993
             1.8812885    0.31642397975315
             0.5442493    0.74430825237435
 p    1 1.00
             0.1687144                   1
 d    1 1.00
                   0.8                   1

19 0
 s    6 1.00
             3047.5249  0.0018347001629433
             457.36951    0.01403730124668
             103.94869   0.068842606114048
             29.210155    0.23218442062076
              9.286663    0.46794134155879
              3.163927    0.36231203217765
 s    3 1.00
             7.8682724   -0.11933240861517
             1.8812885   -0.16085421161283
             0.5442493     1.1434564825515
 s    1 1.00
             0.1687144                   1
 p    3 1.00
             7.8682724   0.068999095584993
             1.8812885    0.31642397975315
             0.5442493    0.74430825237435
 p    1 1.00
             0.1687144                   1
 d    1 1.00
                   0.8                   1

20 0
 s    6 1.00
             3047.5249  0.0018347001629433
             457.36951    0.01403730124668
             103.94869   0.068842606114048
             29.210155    0.23218442062076
              9.286663    0.46794134155879
              3.163927    0.36231203217765
 s    3 1.00
             7.8682724   -0.11933240861517
             1.8812885   -0.16085421161283
             0.5442493     1.1434564825515
 s    1 1.00
             0.1687144                   1
 p    3 1.00
             7.8682724   0.068999095584993
             1.8812885    0.31642397975315
             0.5442493    0.74430825237435
 p    1 1.00
             0.1687144                   1
 d    1 1.00
                   0.8                   1

21 0
 s    6 1.00
             3047.5249  0.0018347001629433
             457.36951    0.01403730124668
             103.94869   0.068842606114048
             29.210155    0.23218442062076
              9.286663    0.46794134155879
              3.163927    0.36231203217765
 s    3 1.00
             7.8682724   -0.11933240861517
             1.8812885   -0.16085421161283
             0.5442493     1.1434564825515
 s    1 1.00
             0.1687144                   1
 p    3 1.00
             7.8682724   0.068999095584993
             1.8812885    0.31642397975315
             0.5442493    0.74430825237435
 p    1 1.00
             0.1687144                   1
 d    1 1.00
                   0.8                   1

22 0
 s    3 1.00
             18.731137    0.03349459952309
             2.8253937    0.23472694665786
             0.6401217    0.81375731841339
 s    1 1.00
             0.1612778                   1

23 0
 s    3 1.00
             18.731137    0.03349459952309
             2.8253937    0.23472694665786
             0.6401217    0.81375731841339
 s    1 1.00
             0.1612778                   1

24 0
 s    3 1.00
             18.731137    0.03349459952309
             2.8253937    0.23472694665786
             0.6401217    0.81375731841339
 s    1 1.00
             0.1612778                   1

25 0
 s    3 1.00
             18.731137    0.03349459952309
             2.8253937    0.23472694665786
             0.6401217    0.81375731841339
 s    1 1.00
             0.1612778                   1

26 0
 s    3 1.00
             18.731137    0.03349459952309
             2.8253937    0.23472694665786
             0.6401217    0.81375731841339
 s    1 1.00
             0.1612778                   1

27 0
 s    3 1.00
             18.731137    0.03349459952309
             2.8253937    0.23472694665786
             0.6401217    0.81375731841339
 s    1 1.00
             0.1612778                   1

28 0
 s    3 1.00
             18.731137    0.03349459952309
             2.8253937    0.23472694665786
             0.6401217    0.81375731841339
 s    1 1.00
             0.1612778                   1

29 0
 s    3 1.00
             18.731137    0.03349459952309
             2.8253937    0.23472694665786
             0.6401217    0.81375731841339
 s    1 1.00
             0.1612778                   1

30 0
 s    3 1.00
             18.731137    0.03349459952309
             2.8253937    0.23472694665786
             0.6401217    0.81375731841339
 s    1 1.00
             0.1612778                   1

31 0
 s    3 1.00
             18.731137    0.03349459952309
             2.8253937    0.23472694665786
             0.6401217    0.81375731841339
 s    1 1.00
             0.1612778                   1

32 0
 s    3 1.00
             18.731137    0.03349459952309
             2.8253937    0.23472694665786
             0.6401217    0.81375731841339
 s    1 1.00
             0.1612778                   1

33 0
 s    6 1.00
             3047.5249  0.0018347001629433
             457.36951    0.01403730124668
             103.94869   0.068842606114048
             29.210155    0.23218442062076
              9.286663    0.46794134155879
              3.163927    0.36231203217765
 s    3 1.00
             7.8682724   -0.11933240861517
             1.8812885   -0.16085421161283
             0.5442493     1.1434564825515
 s    1 1.00
             0.1687144                   1
 p    3 1.00
             7.8682724   0.068999095584993
             1.8812885    0.31642397975315
             0.5442493    0.74430825237435
 p    1 1.00
             0.1687144                   1
 d    1 1.00
                   0.8                   1

34 0
 s    6 1.00
             3047.5249  0.0018347001629433
             457.36951    0.01403730124668
             103.94869   0.068842606114048
             29.210155    0.23218442062076
              9.286663    0.46794134155879
              3.163927    0.36231203217765
 s    3 1.00
             7.8682724   -0.11933240861517
             1.8812885   -0.16085421161283
             0.5442493     1.1434564825515
 s    1 1.00
             0.1687144                   1
 p    3 1.00
             7.8682724   0.068999095584993
             1.8812885    0.31642397975315
             0.5442493    0.74430825237435
 p    1 1.00
             0.1687144                   1
 d    1 1.00
                   0.8                   1

35 0
 s    3 1.00
             18.731137    0.03349459952309
             2.8253937    0.23472694665786
             0.6401217    0.81375731841339
 s    1 1.00
             0.1612778                   1

36 0
 s    6 1.00
             3047.5249  0.0018347001629433
             457.36951    0.01403730124668
             103.94869   0.068842606114048
             29.210155    0.23218442062076
              9.286663    0.46794134155879
              3.163927    0.36231203217765
 s    3 1.00
             7.8682724   -0.11933240861517
             1.8812885   -0.16085421161283
             0.5442493     1.1434564825515
 s    1 1.00
             0.1687144                   1
 p    3 1.00
             7.8682724   0.068999095584993
             1.8812885    0.31642397975315
             0.5442493    0.74430825237435
 p    1 1.00
             0.1687144                   1
 d    1 1.00
                   0.8                   1

37 0
 s    3 1.00
             18.731137    0.03349459952309
             2.8253937    0.23472694665786
             0.6401217    0.81375731841339
 s    1 1.00
             0.1612778                   1

38 0
 s    3 1.00
             18.731137    0.03349459952309
             2.8253937    0.23472694665786
             0.6401217    0.81375731841339
 s    1 1.00
             0.1612778                   1

39 0
 s    6 1.00
             3047.5249  0.0018347001629433
             457.36951    0.01403730124668
             103.94869   0.068842606114048
             29.210155    0.23218442062076
              9.286663    0.46794134155879
              3.163927    0.36231203217765
 s    3 1.00
             7.8682724   -0.11933240861517
             1.8812885   -0.16085421161283
             0.5442493     1.1434564825515
 s    1 1.00
             0.1687144                   1
 p    3 1.00
             7.8682724   0.068999095584993
             1.8812885    0.31642397975315
             0.5442493    0.74430825237435
 p    1 1.00
             0.1687144                   1
 d    1 1.00
                   0.8                   1

40 0
 s    6 1.00
             3047.5249  0.0018347001629433
             457.36951    0.01403730124668
             103.94869   0.068842606114048
             29.210155    0.23218442062076
              9.286663    0.46794134155879
              3.163927    0.36231203217765
 s    3 1.00
             7.8682724   -0.11933240861517
             1.8812885   -0.16085421161283
             0.5442493     1.1434564825515
 s    1 1.00
             0.1687144                   1
 p    3 1.00
             7.8682724   0.068999095584993
             1.8812885    0.31642397975315
             0.5442493    0.74430825237435
 p    1 1.00
             0.1687144                   1
 d    1 1.00
                   0.8                   1

41 0
 s    3 1.00
             18.731137    0.03349459952309
             2.8253937    0.23472694665786
             0.6401217    0.81375731841339
 s    1 1.00
             0.1612778                   1

42 0
 s    6 1.00
             5484.6717   0.001831099805527
             825.23495   0.013950098518422
             188.04696    0.06844509273075
               52.9645    0.23271427528445
              16.89757    0.47019295006289
             5.7996353    0.35852086192309
 s    3 1.00
             15.539616   -0.11077750382508
             3.5999336   -0.14802630511126
             1.0137618     1.1307670390447
 s    1 1.00
             0.2700058                   1
 p    3 1.00
             15.539616   0.070874299543311
             3.5999336    0.33975279781076
             1.0137618    0.72715859531445
 p    1 1.00
             0.2700058                   1
 d    1 1.00
                   0.8                   1

43 0
 s    3 1.00
             18.731137    0.03349459952309
             2.8253937    0.23472694665786
             0.6401217    0.81375731841339
 s    1 1.00
             0.1612778                   1

[5d]
[7f]
[9g]

[MO]
 Sym= A
 Ene=               0
 Spin= Alpha
 Occup=    1.00000
   1    -0.000508919952403
   2    -8.138558616986e-05
   3    -0.00083995901241999
   4    -6.1915359275191e-05
   5    -8.5684666218242e-05
   6    0.00011199489762483
   7    0.00098979765519239
   8    0.00072470931869888
   9    -0.0012127311506308
  10    -5.9868273945084e-05
  11    9.2554074633127e-05
  12    2.3235633618692e-05
  13    2.2805810419168e-05
  14    -1.1720279041165e-05
  15    -8.8503023180837e-05
  16    -0.00077343845247424
  17    0.00017615363096049
  18    -0.00036583568836978
  19    0.0011871952331063
  20    -0.00017400705886961
  21    -2.1739492655424e-05
  22    0.00010903644436313
  23    -1.5299447075348e-05
  24    9.9896453936649e-05
  25    -0.00081095845780264
  26    7.9700236541727e-05
  27    7.0110249344266e-05
  28    -0.00010902316575272
  29    5.8404563510851e-05
  30    -5.5460071979435e-05
  31    -4.4660856693716e-05
  32    3.1133619636121e-05
  33    0.0093462141371736
  34    -0.0013072868548034
  35    0.0076130533799667
  36    -0.0013693807783635
  37    1.4780336250632e-05
  38    0.00014440871229798
  39     0.004147646761795
  40    0.00062747203528613
  41    -0.0020495910038694
  42    0.0007491273574896
  43    4.2473900831473e-05
  44    2.0872007359102e-06
  45    -0.0013139627151971
  46    9.8224765562436e-05
  47    -0.00045695336332711
  48    -0.00056282250192839
  49      0.99483665478463
  50     0.038509204650813
  51    -0.030988371701567
  52    -0.00018685990284556
  53    0.00026753854320997
  54    -0.00072685914144356
  55    0.0017818956347593
  56    -0.0012194659921112
  57    0.0029021522961768
  58    0.00014201975738973
  59    -0.0007302899887131
  60    -0.00035489850469627
  61    0.00062413279585191
  62    0.0002261401138072
  63    -0.0013315472383956
  64    0.0044979327590675
  65    -7.9624006868892e-07
  66    -1.0267717713171e-07
  67    -9.4196801793103e-08
  68    -2.0128081268047e-06
  69    5.1670665167246e-06
  70    1.1525668395631e-06
  71    -1.7928781272856e-06
  72    8.3658716488853e-07
  73    4.518609272452e-06
  74    5.8029365464327e-06
  75     1.55489518453e-07
  76    -1.1414630607746e-07
  77    -3.1387505255672e-07
  78    3.4783886303091e-07
  79    2.7576143602075e-07
  80    -1.7832298689859e-07
  81    7.5877446225553e-07
  82    2.025205287952e-06
  83    1.8232294643095e-07
  84    -7.5185933734739e-08
  85    -4.9922910233089e-05
  86    3.042043245676e-06
  87    1.1590831193635e-08
  88     3.55072100741e-06
  89    1.4797654475575e-05
  90    -2.2257089131776e-05
  91    9.4164900114596e-06
  92    7.300276808634e-07
  93    -1.5515553535287e-06
  94    1.9406380923105e-06
  95    -8.0868501644331e-08
  96    -4.3397971233036e-07
  97    3.1326457135615e-06
  98    3.8840508702458e-06
  99    -1.3048592972986e-07
 100    -5.5635429466833e-06
 101    -5.9473512320419e-07
 102    -4.1090768097952e-06
 103    0.00011357227726559
 104    5.7583730210268e-07
 105    -3.4338397990601e-06
 106    -3.9324336955085e-06
 107    -0.00011331952922062
 108    9.6428187946899e-05
 109    0.00010557447935988
 110    -1.9188011044774e-06
 111    -7.0711841872431e-07
 112    1.9072102213345e-07
 113    3.2027382515033e-07
 114    -3.1834070948849e-06
 115    -1.1992463829584e-06
 116    -1.0081839339495e-05
 117    0.00011551977205507
 118    -3.1107804413496e-06
 119    3.5800286437333e-06
 120    9.3203618987656e-07
 121    -2.188231561108e-05
 122    6.0410097755782e-06
 123    4.1463533143024e-05
 124    2.0147184398534e-07
 125    -2.0174804956004e-06
 126    -5.2501729189404e-07
 127    4.9963114965763e-07
 128    -1.7655538045908e-06
 129    -2.8440003395799e-06
 130    -2.4681233542474e-05
 131    0.00018984420227085
 132     5.14616281291e-06
 133    1.6668033626914e-06
 134    8.0161147545991e-06
 135    -0.00017944617216958
 136    1.0201495281896e-05
 137    -0.00032660459025379
 138    9.6638869344375e-06
 139    6.7657819155656e-06
 140    2.0520575018537e-06
 141    9.8815819274321e-07
 142    1.8181048123631e-06
 143    -1.8618936220734e-06
 144    -1.9365050973607e-05
 145    5.9016431357087e-05
 146    3.8780553814519e-08
 147    2.2648718009154e-07
 148    6.2509976084474e-06
 149    4.1022183938055e-05
 150    1.6722546297592e-06
 151    -2.9808173140652e-05
 152    -4.3464984334055e-06
 153    -1.6584680339525e-06
 154    -1.707648368049e-06
 155    2.6382279276393e-06
 156    -3.6059216464841e-06
 157    6.9624790672304e-07
 158    4.9969692386304e-06
 159    -1.9348323490565e-05
 160    1.9486693277685e-06
 161    8.8232929617065e-07
 162    -9.9221921262895e-07
 163    -2.7385110565673e-05
 164    9.0542079889803e-06
 165    4.6979987260832e-06
 166    2.6362879193181e-06
 167    -9.4263527814771e-07
 168    6.5221721394485e-08
 169    -1.8549036077894e-07
 170    1.7172495739468e-06
 171    1.8789698070732e-07
 172    -1.1187771515211e-06
 173    4.3904154218919e-07
 174    -1.6810449271527e-06
 175    -7.5963503880631e-07
 176    3.4892540482828e-06
 177    1.3226592605836e-06
 178    9.135133913515e-06
 179    -1.2292091394235e-06
 180    9.5502754651488e-08
 181    1.885280463682e-06
 182    6.4583055635916e-07
 183    -9.9160656603062e-07
 184    9.5225518410008e-07
 185    -1.5513838409512e-06
 186    -1.4951666304339e-05
 187    2.8584400891929e-05
 188    -1.2709958327925e-06
 189    6.3838714613646e-07
 190    4.0537192839908e-06
 191    5.4302621624582e-06
 192    -7.370814034997e-06
 193    -2.8119721307971e-05
 194    1.2471134764705e-06
 195    5.6353332079676e-07
 196    1.7874889711004e-06
 197    1.0283581293167e-07
 198    -1.9758520462158e-07
 199    -3.494715747916e-06
 200    -1.3129533517389e-06
 201    -4.7021123329585e-07
 202    1.2516723762496e-05
 203    -5.8879977471469e-06
 204    -9.7727469618962e-06
 205    3.4965740678412e-06
 206    -1.9199017938149e-05
 207    2.6426623446018e-07
 208    6.5143199609662e-06
 209    4.6482185183899e-06
 210    -1.1796499364183e-05
 211    3.5783567085204e-06
 212     8.98628823151e-06
 213    -5.311383916055e-07
 214    -8.6640690138806e-06
 215    -2.0238006385291e-06
 216    6.6198428523469e-06
 217    8.6034575519234e-07
 218    6.1351948717749e-07
 219    1.6344965893029e-06
 220    3.0804593216322e-06
 221    -4.3709147581828e-06
 222    -3.8240338445712e-05
 223    5.2049317508065e-05
 224    5.0081538514749e-06
 225    -4.7508695641238e-06
 226    1.8227075798288e-05
 227    8.5812766918033e-05
 228    0.00011441448629568
 229    -0.0005115125129771
 230    -1.2338201015283e-06
 231    -2.1626809330573e-05
 232    -8.679515209095e-06
 233    1.093322080575e-05
 234    9.0066353772927e-06
 235    4.2763313672214e-06
 236    1.749342963719e-05
 237    -0.00036722760763622
 238    5.3854657051258e-06
 239    -1.7979048451662e-06
 240    2.1061501696255e-05
 241    -6.3208385339449e-05
 242    4.9907422789496e-05
 243    -0.0002279191499961
 244    -1.36311618883e-05
 245    2.4509619294253e-05
 246    5.8621958331637e-06
 247    6.5274651051373e-06
 248    -6.1457279134136e-06
 249    -2.2650364791034e-05
 250    5.3002982765453e-05
 251    -2.1362011370983e-05
 252    -0.00014078553159262
 253    0.0017246874111552
 254    -1.0421481439083e-05
 255    1.3740679917221e-05
 256    -1.0599552530171e-05
 257    0.00060535327270133
 258    0.00026202543651406
 259    -0.0010472520179181
 260    4.498733020079e-05
 261    -5.5244161912867e-05
 262    -2.7092006170793e-05
 263    2.5548276100059e-05
 264    1.584095751205e-05
 265    -1.8376160309951e-05
 266    0.00019469918092117
 267    -1.2696224160615e-05
 268    7.986354057936e-05
 269    0.00023482066214094
 270    -0.0021306744125854
 271    0.0097492737491446
 272    0.0010771306556514
 273    0.00058209414581239
 274    -0.0016248519186417
 275    -0.0033379364590497
 276    -0.00068437974990089
 277    0.0021611051285732
 278    -0.00080102340154386
 279    0.0010781248336599
 280    0.00067668660049865
 281    -0.00022358241560284