[Molden Format]
made by pyscf v[2.0.1]
[Atoms] (AU)
C   1   6     0.69100024066471     0.64692934207205    -3.48223131169301
H   2   1     2.68052439830868     1.13355088658700    -3.25784032593313
C   3   6    -0.36286361513219     0.85440132524594    -5.97030179418974
H   4   1    -2.35448549047279     0.36322488579172    -6.17995817793143
C   5   6     0.93697958957450     1.61209284601821    -8.05828437677121
H   6   1     0.91018176739439     3.60165715372829    -8.58918788754706
C   7   6     2.36275315943078    -0.07897264779665    -9.62791837868890
H   8   1     2.37293254336653    -2.06644965927173    -9.07154285055885
H   9   1     1.55630230933075    -1.92953025305990    12.99630010416247
C   10   6     0.75233899775814    -2.21270439606481    11.10705728102219
H   11   1    -0.43433408177274    -3.90944857546550    11.22216085340412
C   12   6     2.86362581178706    -2.63237380607947     9.17926416456045
H   13   1     4.39038949912609    -1.24955421540245     9.49899813497433
H   14   1     3.74629220191363    -4.48798724300892     9.47414880959024
C   15   6     2.02478325613682    -2.42177285709634     6.44560829588644
C   16   6     3.88048732735477    -3.58795445234514     4.61402886975252
C   17   6    -0.18412382258602    -1.30464291234259     5.76021113872346
C   18   6    -2.10044360464350    -0.26837831858460     7.71610340967100
C   19   6    -3.08956938670431     2.35282328359417     6.88693925039594
C   20   6    -4.37372924086464    -2.09766595989678     7.93610724222001
C   21   6    -0.83850430601230     0.06372213486173    10.33002307638377
H   22   1     0.38411922151109     1.74281358582432    10.27380136542181
H   23   1    -2.30980003007874     0.45460143924521    11.73986301809809
H   24   1     4.58527064644668    -5.38706904487420     5.36778158031719
H   25   1     5.54944938085014    -2.37631462192748     4.35398898413318
H   26   1     3.06633019150423    -3.94118377050688     2.75255466040884
H   27   1    -4.17727778763735     2.26573369139522     5.12914900961283
H   28   1    -1.52662344944051     3.68001877445626     6.59540397144508
H   29   1    -4.32916174397830     3.13643051467482     8.35225460090378
H   30   1    -5.32329548508442    -2.36691813602939     6.11583672749896
H   31   1    -5.77989366602257    -1.33896741843465     9.25748940450990
H   32   1    -3.79310905208926    -3.96389819310853     8.61386170102686
C   33   6    -1.01100794811226    -1.06331657314144     3.11929490449947
C   34   6     0.37686231036534    -0.33275864505552     1.09165013605873
H   35   1    -3.01671213906703    -1.40297922279997     2.77827895090944
C   36   6    -0.64382707979370    -0.11591880174385    -1.42063131251064
H   37   1     2.35569259782137     0.17174499283897     1.33641070251401
H   38   1    -2.63317482980319    -0.60229203511219    -1.66119700387645
C   39   6     3.68212070775393     0.58885978377309   -11.72315169981470
C   40   6     5.07620914500435    -1.27889558400184   -13.19794995736473
H   41   1     3.74999971153331     2.53578027550937   -12.38092170581109
O   42   8     6.29809885748056    -0.81150016580158   -15.09777920785750
H   43   1     4.95468191731404    -3.24735743289555   -12.45594726186437
[GTO]
1 0
 s    6 1.00
             3047.5249  0.0018347001629433
             457.36951    0.01403730124668
             103.94869   0.068842606114048
             29.210155    0.23218442062076
              9.286663    0.46794134155879
              3.163927    0.36231203217765
 s    3 1.00
             7.8682724   -0.11933240861517
             1.8812885   -0.16085421161283
             0.5442493     1.1434564825515
 s    1 1.00
             0.1687144                   1
 p    3 1.00
             7.8682724   0.068999095584993
             1.8812885    0.31642397975315
             0.5442493    0.74430825237435
 p    1 1.00
             0.1687144                   1
 d    1 1.00
                   0.8                   1

2 0
 s    3 1.00
             18.731137    0.03349459952309
             2.8253937    0.23472694665786
             0.6401217    0.81375731841339
 s    1 1.00
             0.1612778                   1

3 0
 s    6 1.00
             3047.5249  0.0018347001629433
             457.36951    0.01403730124668
             103.94869   0.068842606114048
             29.210155    0.23218442062076
              9.286663    0.46794134155879
              3.163927    0.36231203217765
 s    3 1.00
             7.8682724   -0.11933240861517
             1.8812885   -0.16085421161283
             0.5442493     1.1434564825515
 s    1 1.00
             0.1687144                   1
 p    3 1.00
             7.8682724   0.068999095584993
             1.8812885    0.31642397975315
             0.5442493    0.74430825237435
 p    1 1.00
             0.1687144                   1
 d    1 1.00
                   0.8                   1

4 0
 s    3 1.00
             18.731137    0.03349459952309
             2.8253937    0.23472694665786
             0.6401217    0.81375731841339
 s    1 1.00
             0.1612778                   1

5 0
 s    6 1.00
             3047.5249  0.0018347001629433
             457.36951    0.01403730124668
             103.94869   0.068842606114048
             29.210155    0.23218442062076
              9.286663    0.46794134155879
              3.163927    0.36231203217765
 s    3 1.00
             7.8682724   -0.11933240861517
             1.8812885   -0.16085421161283
             0.5442493     1.1434564825515
 s    1 1.00
             0.1687144                   1
 p    3 1.00
             7.8682724   0.068999095584993
             1.8812885    0.31642397975315
             0.5442493    0.74430825237435
 p    1 1.00
             0.1687144                   1
 d    1 1.00
                   0.8                   1

6 0
 s    3 1.00
             18.731137    0.03349459952309
             2.8253937    0.23472694665786
             0.6401217    0.81375731841339
 s    1 1.00
             0.1612778                   1

7 0
 s    6 1.00
             3047.5249  0.0018347001629433
             457.36951    0.01403730124668
             103.94869   0.068842606114048
             29.210155    0.23218442062076
              9.286663    0.46794134155879
              3.163927    0.36231203217765
 s    3 1.00
             7.8682724   -0.11933240861517
             1.8812885   -0.16085421161283
             0.5442493     1.1434564825515
 s    1 1.00
             0.1687144                   1
 p    3 1.00
             7.8682724   0.068999095584993
             1.8812885    0.31642397975315
             0.5442493    0.74430825237435
 p    1 1.00
             0.1687144                   1
 d    1 1.00
                   0.8                   1

8 0
 s    3 1.00
             18.731137    0.03349459952309
             2.8253937    0.23472694665786
             0.6401217    0.81375731841339
 s    1 1.00
             0.1612778                   1

9 0
 s    3 1.00
             18.731137    0.03349459952309
             2.8253937    0.23472694665786
             0.6401217    0.81375731841339
 s    1 1.00
             0.1612778                   1

10 0
 s    6 1.00
             3047.5249  0.0018347001629433
             457.36951    0.01403730124668
             103.94869   0.068842606114048
             29.210155    0.23218442062076
              9.286663    0.46794134155879
              3.163927    0.36231203217765
 s    3 1.00
             7.8682724   -0.11933240861517
             1.8812885   -0.16085421161283
             0.5442493     1.1434564825515
 s    1 1.00
             0.1687144                   1
 p    3 1.00
             7.8682724   0.068999095584993
             1.8812885    0.31642397975315
             0.5442493    0.74430825237435
 p    1 1.00
             0.1687144                   1
 d    1 1.00
                   0.8                   1

11 0
 s    3 1.00
             18.731137    0.03349459952309
             2.8253937    0.23472694665786
             0.6401217    0.81375731841339
 s    1 1.00
             0.1612778                   1

12 0
 s    6 1.00
             3047.5249  0.0018347001629433
             457.36951    0.01403730124668
             103.94869   0.068842606114048
             29.210155    0.23218442062076
              9.286663    0.46794134155879
              3.163927    0.36231203217765
 s    3 1.00
             7.8682724   -0.11933240861517
             1.8812885   -0.16085421161283
             0.5442493     1.1434564825515
 s    1 1.00
             0.1687144                   1
 p    3 1.00
             7.8682724   0.068999095584993
             1.8812885    0.31642397975315
             0.5442493    0.74430825237435
 p    1 1.00
             0.1687144                   1
 d    1 1.00
                   0.8                   1

13 0
 s    3 1.00
             18.731137    0.03349459952309
             2.8253937    0.23472694665786
             0.6401217    0.81375731841339
 s    1 1.00
             0.1612778                   1

14 0
 s    3 1.00
             18.731137    0.03349459952309
             2.8253937    0.23472694665786
             0.6401217    0.81375731841339
 s    1 1.00
             0.1612778                   1

15 0
 s    6 1.00
             3047.5249  0.0018347001629433
             457.36951    0.01403730124668
             103.94869   0.068842606114048
             29.210155    0.23218442062076
              9.286663    0.46794134155879
              3.163927    0.36231203217765
 s    3 1.00
             7.8682724   -0.11933240861517
             1.8812885   -0.16085421161283
             0.5442493     1.1434564825515
 s    1 1.00
             0.1687144                   1
 p    3 1.00
             7.8682724   0.068999095584993
             1.8812885    0.31642397975315
             0.5442493    0.74430825237435
 p    1 1.00
             0.1687144                   1
 d    1 1.00
                   0.8                   1

16 0
 s    6 1.00
             3047.5249  0.0018347001629433
             457.36951    0.01403730124668
             103.94869   0.068842606114048
             29.210155    0.23218442062076
              9.286663    0.46794134155879
              3.163927    0.36231203217765
 s    3 1.00
             7.8682724   -0.11933240861517
             1.8812885   -0.16085421161283
             0.5442493     1.1434564825515
 s    1 1.00
             0.1687144                   1
 p    3 1.00
             7.8682724   0.068999095584993
             1.8812885    0.31642397975315
             0.5442493    0.74430825237435
 p    1 1.00
             0.1687144                   1
 d    1 1.00
                   0.8                   1

17 0
 s    6 1.00
             3047.5249  0.0018347001629433
             457.36951    0.01403730124668
             103.94869   0.068842606114048
             29.210155    0.23218442062076
              9.286663    0.46794134155879
              3.163927    0.36231203217765
 s    3 1.00
             7.8682724   -0.11933240861517
             1.8812885   -0.16085421161283
             0.5442493     1.1434564825515
 s    1 1.00
             0.1687144                   1
 p    3 1.00
             7.8682724   0.068999095584993
             1.8812885    0.31642397975315
             0.5442493    0.74430825237435
 p    1 1.00
             0.1687144                   1
 d    1 1.00
                   0.8                   1

18 0
 s    6 1.00
             3047.5249  0.0018347001629433
             457.36951    0.01403730124668
             103.94869   0.068842606114048
             29.210155    0.23218442062076
              9.286663    0.46794134155879
              3.163927    0.36231203217765
 s    3 1.00
             7.8682724   -0.11933240861517
             1.8812885   -0.16085421161283
             0.5442493     1.1434564825515
 s    1 1.00
             0.1687144                   1
 p    3 1.00
             7.8682724   0.068999095584993
             1.8812885    0.31642397975315
             0.5442493    0.74430825237435
 p    1 1.00
             0.1687144                   1
 d    1 1.00
                   0.8                   1

19 0
 s    6 1.00
             3047.5249  0.0018347001629433
             457.36951    0.01403730124668
             103.94869   0.068842606114048
             29.210155    0.23218442062076
              9.286663    0.46794134155879
              3.163927    0.36231203217765
 s    3 1.00
             7.8682724   -0.11933240861517
             1.8812885   -0.16085421161283
             0.5442493     1.1434564825515
 s    1 1.00
             0.1687144                   1
 p    3 1.00
             7.8682724   0.068999095584993
             1.8812885    0.31642397975315
             0.5442493    0.74430825237435
 p    1 1.00
             0.1687144                   1
 d    1 1.00
                   0.8                   1

20 0
 s    6 1.00
             3047.5249  0.0018347001629433
             457.36951    0.01403730124668
             103.94869   0.068842606114048
             29.210155    0.23218442062076
              9.286663    0.46794134155879
              3.163927    0.36231203217765
 s    3 1.00
             7.8682724   -0.11933240861517
             1.8812885   -0.16085421161283
             0.5442493     1.1434564825515
 s    1 1.00
             0.1687144                   1
 p    3 1.00
             7.8682724   0.068999095584993
             1.8812885    0.31642397975315
             0.5442493    0.74430825237435
 p    1 1.00
             0.1687144                   1
 d    1 1.00
                   0.8                   1

21 0
 s    6 1.00
             3047.5249  0.0018347001629433
             457.36951    0.01403730124668
             103.94869   0.068842606114048
             29.210155    0.23218442062076
              9.286663    0.46794134155879
              3.163927    0.36231203217765
 s    3 1.00
             7.8682724   -0.11933240861517
             1.8812885   -0.16085421161283
             0.5442493     1.1434564825515
 s    1 1.00
             0.1687144                   1
 p    3 1.00
             7.8682724   0.068999095584993
             1.8812885    0.31642397975315
             0.5442493    0.74430825237435
 p    1 1.00
             0.1687144                   1
 d    1 1.00
                   0.8                   1

22 0
 s    3 1.00
             18.731137    0.03349459952309
             2.8253937    0.23472694665786
             0.6401217    0.81375731841339
 s    1 1.00
             0.1612778                   1

23 0
 s    3 1.00
             18.731137    0.03349459952309
             2.8253937    0.23472694665786
             0.6401217    0.81375731841339
 s    1 1.00
             0.1612778                   1

24 0
 s    3 1.00
             18.731137    0.03349459952309
             2.8253937    0.23472694665786
             0.6401217    0.81375731841339
 s    1 1.00
             0.1612778                   1

25 0
 s    3 1.00
             18.731137    0.03349459952309
             2.8253937    0.23472694665786
             0.6401217    0.81375731841339
 s    1 1.00
             0.1612778                   1

26 0
 s    3 1.00
             18.731137    0.03349459952309
             2.8253937    0.23472694665786
             0.6401217    0.81375731841339
 s    1 1.00
             0.1612778                   1

27 0
 s    3 1.00
             18.731137    0.03349459952309
             2.8253937    0.23472694665786
             0.6401217    0.81375731841339
 s    1 1.00
             0.1612778                   1

28 0
 s    3 1.00
             18.731137    0.03349459952309
             2.8253937    0.23472694665786
             0.6401217    0.81375731841339
 s    1 1.00
             0.1612778                   1

29 0
 s    3 1.00
             18.731137    0.03349459952309
             2.8253937    0.23472694665786
             0.6401217    0.81375731841339
 s    1 1.00
             0.1612778                   1

30 0
 s    3 1.00
             18.731137    0.03349459952309
             2.8253937    0.23472694665786
             0.6401217    0.81375731841339
 s    1 1.00
             0.1612778                   1

31 0
 s    3 1.00
             18.731137    0.03349459952309
             2.8253937    0.23472694665786
             0.6401217    0.81375731841339
 s    1 1.00
             0.1612778                   1

32 0
 s    3 1.00
             18.731137    0.03349459952309
             2.8253937    0.23472694665786
             0.6401217    0.81375731841339
 s    1 1.00
             0.1612778                   1

33 0
 s    6 1.00
             3047.5249  0.0018347001629433
             457.36951    0.01403730124668
             103.94869   0.068842606114048
             29.210155    0.23218442062076
              9.286663    0.46794134155879
              3.163927    0.36231203217765
 s    3 1.00
             7.8682724   -0.11933240861517
             1.8812885   -0.16085421161283
             0.5442493     1.1434564825515
 s    1 1.00
             0.1687144                   1
 p    3 1.00
             7.8682724   0.068999095584993
             1.8812885    0.31642397975315
             0.5442493    0.74430825237435
 p    1 1.00
             0.1687144                   1
 d    1 1.00
                   0.8                   1

34 0
 s    6 1.00
             3047.5249  0.0018347001629433
             457.36951    0.01403730124668
             103.94869   0.068842606114048
             29.210155    0.23218442062076
              9.286663    0.46794134155879
              3.163927    0.36231203217765
 s    3 1.00
             7.8682724   -0.11933240861517
             1.8812885   -0.16085421161283
             0.5442493     1.1434564825515
 s    1 1.00
             0.1687144                   1
 p    3 1.00
             7.8682724   0.068999095584993
             1.8812885    0.31642397975315
             0.5442493    0.74430825237435
 p    1 1.00
             0.1687144                   1
 d    1 1.00
                   0.8                   1

35 0
 s    3 1.00
             18.731137    0.03349459952309
             2.8253937    0.23472694665786
             0.6401217    0.81375731841339
 s    1 1.00
             0.1612778                   1

36 0
 s    6 1.00
             3047.5249  0.0018347001629433
             457.36951    0.01403730124668
             103.94869   0.068842606114048
             29.210155    0.23218442062076
              9.286663    0.46794134155879
              3.163927    0.36231203217765
 s    3 1.00
             7.8682724   -0.11933240861517
             1.8812885   -0.16085421161283
             0.5442493     1.1434564825515
 s    1 1.00
             0.1687144                   1
 p    3 1.00
             7.8682724   0.068999095584993
             1.8812885    0.31642397975315
             0.5442493    0.74430825237435
 p    1 1.00
             0.1687144                   1
 d    1 1.00
                   0.8                   1

37 0
 s    3 1.00
             18.731137    0.03349459952309
             2.8253937    0.23472694665786
             0.6401217    0.81375731841339
 s    1 1.00
             0.1612778                   1

38 0
 s    3 1.00
             18.731137    0.03349459952309
             2.8253937    0.23472694665786
             0.6401217    0.81375731841339
 s    1 1.00
             0.1612778                   1

39 0
 s    6 1.00
             3047.5249  0.0018347001629433
             457.36951    0.01403730124668
             103.94869   0.068842606114048
             29.210155    0.23218442062076
              9.286663    0.46794134155879
              3.163927    0.36231203217765
 s    3 1.00
             7.8682724   -0.11933240861517
             1.8812885   -0.16085421161283
             0.5442493     1.1434564825515
 s    1 1.00
             0.1687144                   1
 p    3 1.00
             7.8682724   0.068999095584993
             1.8812885    0.31642397975315
             0.5442493    0.74430825237435
 p    1 1.00
             0.1687144                   1
 d    1 1.00
                   0.8                   1

40 0
 s    6 1.00
             3047.5249  0.0018347001629433
             457.36951    0.01403730124668
             103.94869   0.068842606114048
             29.210155    0.23218442062076
              9.286663    0.46794134155879
              3.163927    0.36231203217765
 s    3 1.00
             7.8682724   -0.11933240861517
             1.8812885   -0.16085421161283
             0.5442493     1.1434564825515
 s    1 1.00
             0.1687144                   1
 p    3 1.00
             7.8682724   0.068999095584993
             1.8812885    0.31642397975315
             0.5442493    0.74430825237435
 p    1 1.00
             0.1687144                   1
 d    1 1.00
                   0.8                   1

41 0
 s    3 1.00
             18.731137    0.03349459952309
             2.8253937    0.23472694665786
             0.6401217    0.81375731841339
 s    1 1.00
             0.1612778                   1

42 0
 s    6 1.00
             5484.6717   0.001831099805527
             825.23495   0.013950098518422
             188.04696    0.06844509273075
               52.9645    0.23271427528445
              16.89757    0.47019295006289
             5.7996353    0.35852086192309
 s    3 1.00
             15.539616   -0.11077750382508
             3.5999336   -0.14802630511126
             1.0137618     1.1307670390447
 s    1 1.00
             0.2700058                   1
 p    3 1.00
             15.539616   0.070874299543311
             3.5999336    0.33975279781076
             1.0137618    0.72715859531445
 p    1 1.00
             0.2700058                   1
 d    1 1.00
                   0.8                   1

43 0
 s    3 1.00
             18.731137    0.03349459952309
             2.8253937    0.23472694665786
             0.6401217    0.81375731841339
 s    1 1.00
             0.1612778                   1

[5d]
[7f]
[9g]

[MO]
 Sym= A
 Ene=               0
 Spin= Alpha
 Occup=    1.00000
   1     0.017016508522904
   2    -0.0011335600321047
   3    0.0077440018332598
   4    0.00044153603326755
   5    -0.00016715524373073
   6    0.0013340081391326
   7    0.00088750545681635
   8    0.0014547703387267
   9    -0.0060921115214521
  10    -0.00099223647568986
  11    -0.00096283423344061
  12    0.0001541535997913
  13    -0.0002172237119217
  14    5.2295346940979e-05
  15    -0.00053972241134767
  16    -0.0010077363107865
  17       0.9947101777189
  18     0.039362633665201
  19    -0.031482338507742
  20    0.0010589652953474
  21    0.00020661005014542
  22    -0.00063780683143647
  23    -0.0040746383286373
  24    -0.001232732627074
  25    -0.00085782830194511
  26    0.00080144340503339
  27    -0.00032724848623486
  28    -0.00034788430971842
  29    0.00027430164216698
  30    0.00021086933826817
  31    -0.0013094013752426
  32    0.0041811684631343
  33     0.012540832001565
  34    -0.0004087497030492
  35    0.0012818430057322
  36    0.0009620863485511
  37    0.0003791412481974
  38    -0.0012986600668527
  39    -0.0028329006505017
  40     0.003748978917995
  41     0.004364299944794
  42    -0.00066590269112885
  43    0.0013284609143665
  44    0.00053703907556152
  45    -0.00039453744300735
  46    -0.00041538556857962
  47    -0.00060856695119429
  48    -0.00062704250613398
  49    -0.00035363935724164
  50    -0.00059417903587949
  51    0.00017665365899879
  52    0.00030343900607143
  53    3.1511045881562e-05
  54    -0.00042435682292742
  55    -0.0055952202743488
  56    0.0011301496065939
  57    0.0074706589124439
  58    -0.0001794630702805
  59    -1.2169734240211e-05
  60    0.00014735764747618
  61    -0.00024421559507883
  62    -0.00024196440968689
  63    -0.00051986395922412
  64    0.00027200154559931
  65    -2.8353459257943e-06
  66    -4.3487283410788e-06
  67    -6.9247710613198e-08
  68    -1.4298547740605e-06
  69    6.3320889315768e-06
  70    2.0909636160509e-06
  71    -4.8901979141274e-06
  72    -2.338993371942e-08
  73    1.4487499918867e-05
  74    2.8173613964248e-05
  75     1.02049042583e-05
  76    -1.1459891743919e-07
  77    -3.0120958232654e-07
  78    3.2084298608595e-07
  79    6.1925181986553e-07
  80    4.2614366786385e-09
  81    2.7959495642949e-06
  82    1.4473444120467e-05
  83    2.4487377333011e-07
  84    1.3919419535843e-06
  85    -7.2296494217178e-05
  86    4.3591942797795e-06
  87    3.6519667181947e-06
  88    5.5522474421979e-06
  89    2.5513908524907e-05
  90    -6.9948226586343e-05
  91    8.4885525407516e-06
  92    1.7327552559966e-06
  93    -2.8860642624375e-06
  94    4.1569386931492e-06
  95    -7.8058325327978e-07
  96    -1.1136848095384e-06
  97    8.0521652494815e-06
  98    1.4065837045564e-05
  99    -3.8664141843995e-06
 100    -2.1146672641661e-05
 101    -1.2391078348967e-06
 102    -1.1878317392207e-05
 103    0.0002452924971132
 104    -3.1420738250392e-06
 105    -1.0049289203744e-05
 106    -3.6533748276795e-06
 107    -0.00020455681600662
 108    0.00019830191998394
 109    0.00014972966534996
 110    -6.5571310523256e-06
 111    -1.0067617098445e-07
 112    1.227822077661e-08
 113    1.2759401610112e-06
 114    -5.7572406299722e-06
 115    -3.5998199729083e-06
 116    -3.5343637678701e-05
 117    0.00025499817847768
 118    -2.3866756940796e-06
 119    3.0759675520844e-06
 120    5.4069417785695e-06
 121    -5.3685596725098e-05
 122    1.3939990324797e-05
 123    3.1713109369956e-05
 124    1.6543105186115e-06
 125    -3.2810856843441e-06
 126    -2.6522367530477e-06
 127    8.7883998365819e-07
 128    -2.3545414781302e-06
 129    -5.8064815245394e-06
 130    -5.6158179202371e-05
 131    0.00015748355199584
 132    5.8588081910659e-06
 133    -5.6781458934287e-06
 134    2.3550385156809e-05
 135    -0.00037389193464702
 136    3.6715367044911e-05
 137    -0.0004335494108467
 138    9.4560016139348e-06
 139    1.4652653505736e-05
 140    6.0466981760696e-06
 141    4.918229356253e-06
 142    7.3690083882983e-06
 143    -2.1567441642758e-06
 144    -3.0178409588489e-05
 145    3.3559177791188e-05
 146    2.1465184739446e-06
 147    6.4380470914279e-06
 148    1.4685691648453e-05
 149    1.5161061956143e-05
 150    3.9813373681303e-06
 151    -7.3105550065935e-05
 152    -7.2057802351478e-06
 153    -4.3079716311301e-06
 154    -3.4050187901339e-06
 155    4.4399697401937e-06
 156    -4.4140624936311e-06
 157    1.8091802370443e-06
 158    1.4114294483292e-05
 159    -4.4216392962891e-05
 160    6.5143318869784e-06
 161    -1.8427160401476e-09
 162    -1.6513845082192e-06
 163    -5.4132718036865e-05
 164    2.7995616837147e-05
 165    1.2565453127339e-05
 166    4.8456783976826e-06
 167    -8.8670455430168e-07
 168    -2.4144604320747e-07
 169    1.0111399853691e-06
 170    2.1122662028245e-06
 171    -5.2083608689639e-07
 172    -1.3726081989976e-05
 173    2.5456988378189e-05
 174    -4.5770012940772e-06
 175    -3.1187076247223e-07
 176    1.2052367108739e-05
 177    1.7093700910809e-07
 178    -1.9525464986527e-06
 179    -2.8253141310299e-05
 180    1.6914971630179e-06
 181    5.255412127466e-06
 182    9.8399290230108e-07
 183    -1.2251903018889e-06
 184    1.802274044121e-06
 185    -3.6875173685294e-06
 186    -3.1253701248393e-05
 187    9.3335799669577e-05
 188    -2.6865832982676e-06
 189    6.405063949872e-07
 190    4.8824881967328e-06
 191    -4.4062038447556e-06
 192    -1.552428683971e-05
 193    -7.8119007592934e-05
 194    3.4622237278376e-06
 195    1.9340309200898e-06
 196    3.0254718966287e-06
 197    -3.4028795298288e-07
 198    4.9213633984747e-07
 199    -8.1212173509388e-06
 200    7.1754118005663e-07
 201    -2.846345393153e-06
 202    2.0843312302385e-05
 203    -1.2341489388761e-05
 204    -5.669460445121e-06
 205    -2.598355054439e-07
 206    -2.9179127221954e-05
 207    1.0182976886181e-05
 208    -6.613658761174e-05
 209    1.2024033158628e-05
 210    -2.7770703285373e-05
 211    6.8828355148316e-06
 212    1.8951523542769e-05
 213    -6.5616284788629e-07
 214    -2.3029718850471e-05
 215    -3.0915462211004e-06
 216    -2.9466678382803e-05
 217    1.5872933758691e-06
 218    9.9244705263167e-06
 219    4.9789697809667e-07
 220    -1.9904908102491e-06
 221    -9.3806569979577e-06
 222    -9.4310723214497e-05
 223    0.0009517164022518
 224    -1.4381682930468e-05
 225    1.5338762771025e-08
 226    1.3209433747846e-05
 227    0.00068035968676226
 228    0.00033115782209509
 229    -0.00098201238736948
 230    3.1299550047875e-06
 231    -4.6920369716195e-05
 232    -2.3266086895101e-05
 233    2.3343567184159e-05
 234    2.4009290219206e-05
 235    -1.5988031016355e-05
 236    -3.8703487316015e-05
 237    -0.00025739208444902
 238    -2.2772903923932e-05
 239    -2.449668114951e-06
 240    1.2405257133631e-05
 241    0.00031060468807327
 242    0.00037464763560546
 243    -0.0016308350874621
 244    9.7125696055746e-06
 245    7.634893159108e-05
 246    1.3963007377689e-05
 247    2.0479816109475e-05
 248    -3.1860455374756e-06
 249    -3.6111074692096e-05
 250    0.00032606498116287
 251    -2.7157526202962e-05
 252    -0.00042341564591297
 253    0.0022493580730669
 254    8.2343182578492e-05
 255    -3.5970875316723e-05
 256    0.00023648643746943
 257    7.6510382638661e-06
 258    0.00038637984448043
 259    -0.0018758355128077
 260    -6.9937273967922e-05
 261    -2.0835100708467e-05
 262    -1.3490661768114e-05
 263    0.00015066849878978
 264    8.7755184935444e-05
 265    -9.6994574284711e-05
 266    0.00021566664904068
 267    -0.00014546576792929
 268    -0.00054545963664856
 269    -8.3379164579806e-05
 270    -0.00055700607997162
 271    0.0073577924349711
 272    -9.5119866379875e-05
 273    0.00011898895577662
 274      0.00012332590499
 275    -0.0015487476629677
 276    -0.0029790222059643
 277    0.0030578995200817
 278    9.4449727981779e-05
 279    -0.00018934380298499
 280    -0.00011147781766547