[Molden Format]
made by pyscf v[2.0.1]
[Atoms] (AU)
C   1   6     0.69100024066471     0.64692934207205    -3.48223131169301
H   2   1     2.68052439830868     1.13355088658700    -3.25784032593313
C   3   6    -0.36286361513219     0.85440132524594    -5.97030179418974
H   4   1    -2.35448549047279     0.36322488579172    -6.17995817793143
C   5   6     0.93697958957450     1.61209284601821    -8.05828437677121
H   6   1     0.85962833397368     3.59050820045091    -8.62470494839578
C   7   6     2.42635389771936    -0.06497183323565    -9.58324401854610
H   8   1     2.48676726707897    -2.04132781761705    -8.99156043119802
H   9   1     1.55630230933075    -1.92953025305990    12.99630010416247
C   10   6     0.75233899775814    -2.21270439606481    11.10705728102219
H   11   1    -0.43433408177274    -3.90944857546550    11.22216085340412
C   12   6     2.86362581178706    -2.63237380607947     9.17926416456045
H   13   1     4.39038949912609    -1.24955421540245     9.49899813497433
H   14   1     3.74629220191363    -4.48798724300892     9.47414880959024
C   15   6     2.02478325613682    -2.42177285709634     6.44560829588644
C   16   6     3.88048732735477    -3.58795445234514     4.61402886975252
C   17   6    -0.18412382258602    -1.30464291234259     5.76021113872346
C   18   6    -2.10044360464350    -0.26837831858460     7.71610340967100
C   19   6    -3.08956938670431     2.35282328359417     6.88693925039594
C   20   6    -4.37372924086464    -2.09766595989678     7.93610724222001
C   21   6    -0.83850430601230     0.06372213486173    10.33002307638377
H   22   1     0.38411922151109     1.74281358582432    10.27380136542181
H   23   1    -2.30980003007874     0.45460143924521    11.73986301809809
H   24   1     4.58527064644668    -5.38706904487420     5.36778158031719
H   25   1     5.54944938085014    -2.37631462192748     4.35398898413318
H   26   1     3.06633019150423    -3.94118377050688     2.75255466040884
H   27   1    -4.17727778763735     2.26573369139522     5.12914900961283
H   28   1    -1.52662344944051     3.68001877445626     6.59540397144508
H   29   1    -4.32916174397830     3.13643051467482     8.35225460090378
H   30   1    -5.32329548508442    -2.36691813602939     6.11583672749896
H   31   1    -5.77989366602257    -1.33896741843465     9.25748940450990
H   32   1    -3.79310905208926    -3.96389819310853     8.61386170102686
C   33   6    -1.01100794811226    -1.06331657314144     3.11929490449947
C   34   6     0.37686231036534    -0.33275864505552     1.09165013605873
H   35   1    -3.01671213906703    -1.40297922279997     2.77827895090944
C   36   6    -0.64382707979370    -0.11591880174385    -1.42063131251064
H   37   1     2.35569259782137     0.17174499283897     1.33641070251401
H   38   1    -2.63317482980319    -0.60229203511219    -1.66119700387645
C   39   6     3.74832505967432     0.60333842975764   -11.67668310140841
C   40   6     5.21001738076888    -1.24955999097241   -13.10400422335708
H   41   1     3.76814643119893     2.53960520723023   -12.36823673003836
O   42   8     6.43815552067501    -0.78092818090474   -14.99949494178040
H   43   1     5.13629360998863    -3.20740752771493   -12.32839043702936
[GTO]
1 0
 s    6 1.00
             3047.5249  0.0018347001629433
             457.36951    0.01403730124668
             103.94869   0.068842606114048
             29.210155    0.23218442062076
              9.286663    0.46794134155879
              3.163927    0.36231203217765
 s    3 1.00
             7.8682724   -0.11933240861517
             1.8812885   -0.16085421161283
             0.5442493     1.1434564825515
 s    1 1.00
             0.1687144                   1
 p    3 1.00
             7.8682724   0.068999095584993
             1.8812885    0.31642397975315
             0.5442493    0.74430825237435
 p    1 1.00
             0.1687144                   1
 d    1 1.00
                   0.8                   1

2 0
 s    3 1.00
             18.731137    0.03349459952309
             2.8253937    0.23472694665786
             0.6401217    0.81375731841339
 s    1 1.00
             0.1612778                   1

3 0
 s    6 1.00
             3047.5249  0.0018347001629433
             457.36951    0.01403730124668
             103.94869   0.068842606114048
             29.210155    0.23218442062076
              9.286663    0.46794134155879
              3.163927    0.36231203217765
 s    3 1.00
             7.8682724   -0.11933240861517
             1.8812885   -0.16085421161283
             0.5442493     1.1434564825515
 s    1 1.00
             0.1687144                   1
 p    3 1.00
             7.8682724   0.068999095584993
             1.8812885    0.31642397975315
             0.5442493    0.74430825237435
 p    1 1.00
             0.1687144                   1
 d    1 1.00
                   0.8                   1

4 0
 s    3 1.00
             18.731137    0.03349459952309
             2.8253937    0.23472694665786
             0.6401217    0.81375731841339
 s    1 1.00
             0.1612778                   1

5 0
 s    6 1.00
             3047.5249  0.0018347001629433
             457.36951    0.01403730124668
             103.94869   0.068842606114048
             29.210155    0.23218442062076
              9.286663    0.46794134155879
              3.163927    0.36231203217765
 s    3 1.00
             7.8682724   -0.11933240861517
             1.8812885   -0.16085421161283
             0.5442493     1.1434564825515
 s    1 1.00
             0.1687144                   1
 p    3 1.00
             7.8682724   0.068999095584993
             1.8812885    0.31642397975315
             0.5442493    0.74430825237435
 p    1 1.00
             0.1687144                   1
 d    1 1.00
                   0.8                   1

6 0
 s    3 1.00
             18.731137    0.03349459952309
             2.8253937    0.23472694665786
             0.6401217    0.81375731841339
 s    1 1.00
             0.1612778                   1

7 0
 s    6 1.00
             3047.5249  0.0018347001629433
             457.36951    0.01403730124668
             103.94869   0.068842606114048
             29.210155    0.23218442062076
              9.286663    0.46794134155879
              3.163927    0.36231203217765
 s    3 1.00
             7.8682724   -0.11933240861517
             1.8812885   -0.16085421161283
             0.5442493     1.1434564825515
 s    1 1.00
             0.1687144                   1
 p    3 1.00
             7.8682724   0.068999095584993
             1.8812885    0.31642397975315
             0.5442493    0.74430825237435
 p    1 1.00
             0.1687144                   1
 d    1 1.00
                   0.8                   1

8 0
 s    3 1.00
             18.731137    0.03349459952309
             2.8253937    0.23472694665786
             0.6401217    0.81375731841339
 s    1 1.00
             0.1612778                   1

9 0
 s    3 1.00
             18.731137    0.03349459952309
             2.8253937    0.23472694665786
             0.6401217    0.81375731841339
 s    1 1.00
             0.1612778                   1

10 0
 s    6 1.00
             3047.5249  0.0018347001629433
             457.36951    0.01403730124668
             103.94869   0.068842606114048
             29.210155    0.23218442062076
              9.286663    0.46794134155879
              3.163927    0.36231203217765
 s    3 1.00
             7.8682724   -0.11933240861517
             1.8812885   -0.16085421161283
             0.5442493     1.1434564825515
 s    1 1.00
             0.1687144                   1
 p    3 1.00
             7.8682724   0.068999095584993
             1.8812885    0.31642397975315
             0.5442493    0.74430825237435
 p    1 1.00
             0.1687144                   1
 d    1 1.00
                   0.8                   1

11 0
 s    3 1.00
             18.731137    0.03349459952309
             2.8253937    0.23472694665786
             0.6401217    0.81375731841339
 s    1 1.00
             0.1612778                   1

12 0
 s    6 1.00
             3047.5249  0.0018347001629433
             457.36951    0.01403730124668
             103.94869   0.068842606114048
             29.210155    0.23218442062076
              9.286663    0.46794134155879
              3.163927    0.36231203217765
 s    3 1.00
             7.8682724   -0.11933240861517
             1.8812885   -0.16085421161283
             0.5442493     1.1434564825515
 s    1 1.00
             0.1687144                   1
 p    3 1.00
             7.8682724   0.068999095584993
             1.8812885    0.31642397975315
             0.5442493    0.74430825237435
 p    1 1.00
             0.1687144                   1
 d    1 1.00
                   0.8                   1

13 0
 s    3 1.00
             18.731137    0.03349459952309
             2.8253937    0.23472694665786
             0.6401217    0.81375731841339
 s    1 1.00
             0.1612778                   1

14 0
 s    3 1.00
             18.731137    0.03349459952309
             2.8253937    0.23472694665786
             0.6401217    0.81375731841339
 s    1 1.00
             0.1612778                   1

15 0
 s    6 1.00
             3047.5249  0.0018347001629433
             457.36951    0.01403730124668
             103.94869   0.068842606114048
             29.210155    0.23218442062076
              9.286663    0.46794134155879
              3.163927    0.36231203217765
 s    3 1.00
             7.8682724   -0.11933240861517
             1.8812885   -0.16085421161283
             0.5442493     1.1434564825515
 s    1 1.00
             0.1687144                   1
 p    3 1.00
             7.8682724   0.068999095584993
             1.8812885    0.31642397975315
             0.5442493    0.74430825237435
 p    1 1.00
             0.1687144                   1
 d    1 1.00
                   0.8                   1

16 0
 s    6 1.00
             3047.5249  0.0018347001629433
             457.36951    0.01403730124668
             103.94869   0.068842606114048
             29.210155    0.23218442062076
              9.286663    0.46794134155879
              3.163927    0.36231203217765
 s    3 1.00
             7.8682724   -0.11933240861517
             1.8812885   -0.16085421161283
             0.5442493     1.1434564825515
 s    1 1.00
             0.1687144                   1
 p    3 1.00
             7.8682724   0.068999095584993
             1.8812885    0.31642397975315
             0.5442493    0.74430825237435
 p    1 1.00
             0.1687144                   1
 d    1 1.00
                   0.8                   1

17 0
 s    6 1.00
             3047.5249  0.0018347001629433
             457.36951    0.01403730124668
             103.94869   0.068842606114048
             29.210155    0.23218442062076
              9.286663    0.46794134155879
              3.163927    0.36231203217765
 s    3 1.00
             7.8682724   -0.11933240861517
             1.8812885   -0.16085421161283
             0.5442493     1.1434564825515
 s    1 1.00
             0.1687144                   1
 p    3 1.00
             7.8682724   0.068999095584993
             1.8812885    0.31642397975315
             0.5442493    0.74430825237435
 p    1 1.00
             0.1687144                   1
 d    1 1.00
                   0.8                   1

18 0
 s    6 1.00
             3047.5249  0.0018347001629433
             457.36951    0.01403730124668
             103.94869   0.068842606114048
             29.210155    0.23218442062076
              9.286663    0.46794134155879
              3.163927    0.36231203217765
 s    3 1.00
             7.8682724   -0.11933240861517
             1.8812885   -0.16085421161283
             0.5442493     1.1434564825515
 s    1 1.00
             0.1687144                   1
 p    3 1.00
             7.8682724   0.068999095584993
             1.8812885    0.31642397975315
             0.5442493    0.74430825237435
 p    1 1.00
             0.1687144                   1
 d    1 1.00
                   0.8                   1

19 0
 s    6 1.00
             3047.5249  0.0018347001629433
             457.36951    0.01403730124668
             103.94869   0.068842606114048
             29.210155    0.23218442062076
              9.286663    0.46794134155879
              3.163927    0.36231203217765
 s    3 1.00
             7.8682724   -0.11933240861517
             1.8812885   -0.16085421161283
             0.5442493     1.1434564825515
 s    1 1.00
             0.1687144                   1
 p    3 1.00
             7.8682724   0.068999095584993
             1.8812885    0.31642397975315
             0.5442493    0.74430825237435
 p    1 1.00
             0.1687144                   1
 d    1 1.00
                   0.8                   1

20 0
 s    6 1.00
             3047.5249  0.0018347001629433
             457.36951    0.01403730124668
             103.94869   0.068842606114048
             29.210155    0.23218442062076
              9.286663    0.46794134155879
              3.163927    0.36231203217765
 s    3 1.00
             7.8682724   -0.11933240861517
             1.8812885   -0.16085421161283
             0.5442493     1.1434564825515
 s    1 1.00
             0.1687144                   1
 p    3 1.00
             7.8682724   0.068999095584993
             1.8812885    0.31642397975315
             0.5442493    0.74430825237435
 p    1 1.00
             0.1687144                   1
 d    1 1.00
                   0.8                   1

21 0
 s    6 1.00
             3047.5249  0.0018347001629433
             457.36951    0.01403730124668
             103.94869   0.068842606114048
             29.210155    0.23218442062076
              9.286663    0.46794134155879
              3.163927    0.36231203217765
 s    3 1.00
             7.8682724   -0.11933240861517
             1.8812885   -0.16085421161283
             0.5442493     1.1434564825515
 s    1 1.00
             0.1687144                   1
 p    3 1.00
             7.8682724   0.068999095584993
             1.8812885    0.31642397975315
             0.5442493    0.74430825237435
 p    1 1.00
             0.1687144                   1
 d    1 1.00
                   0.8                   1

22 0
 s    3 1.00
             18.731137    0.03349459952309
             2.8253937    0.23472694665786
             0.6401217    0.81375731841339
 s    1 1.00
             0.1612778                   1

23 0
 s    3 1.00
             18.731137    0.03349459952309
             2.8253937    0.23472694665786
             0.6401217    0.81375731841339
 s    1 1.00
             0.1612778                   1

24 0
 s    3 1.00
             18.731137    0.03349459952309
             2.8253937    0.23472694665786
             0.6401217    0.81375731841339
 s    1 1.00
             0.1612778                   1

25 0
 s    3 1.00
             18.731137    0.03349459952309
             2.8253937    0.23472694665786
             0.6401217    0.81375731841339
 s    1 1.00
             0.1612778                   1

26 0
 s    3 1.00
             18.731137    0.03349459952309
             2.8253937    0.23472694665786
             0.6401217    0.81375731841339
 s    1 1.00
             0.1612778                   1

27 0
 s    3 1.00
             18.731137    0.03349459952309
             2.8253937    0.23472694665786
             0.6401217    0.81375731841339
 s    1 1.00
             0.1612778                   1

28 0
 s    3 1.00
             18.731137    0.03349459952309
             2.8253937    0.23472694665786
             0.6401217    0.81375731841339
 s    1 1.00
             0.1612778                   1

29 0
 s    3 1.00
             18.731137    0.03349459952309
             2.8253937    0.23472694665786
             0.6401217    0.81375731841339
 s    1 1.00
             0.1612778                   1

30 0
 s    3 1.00
             18.731137    0.03349459952309
             2.8253937    0.23472694665786
             0.6401217    0.81375731841339
 s    1 1.00
             0.1612778                   1

31 0
 s    3 1.00
             18.731137    0.03349459952309
             2.8253937    0.23472694665786
             0.6401217    0.81375731841339
 s    1 1.00
             0.1612778                   1

32 0
 s    3 1.00
             18.731137    0.03349459952309
             2.8253937    0.23472694665786
             0.6401217    0.81375731841339
 s    1 1.00
             0.1612778                   1

33 0
 s    6 1.00
             3047.5249  0.0018347001629433
             457.36951    0.01403730124668
             103.94869   0.068842606114048
             29.210155    0.23218442062076
              9.286663    0.46794134155879
              3.163927    0.36231203217765
 s    3 1.00
             7.8682724   -0.11933240861517
             1.8812885   -0.16085421161283
             0.5442493     1.1434564825515
 s    1 1.00
             0.1687144                   1
 p    3 1.00
             7.8682724   0.068999095584993
             1.8812885    0.31642397975315
             0.5442493    0.74430825237435
 p    1 1.00
             0.1687144                   1
 d    1 1.00
                   0.8                   1

34 0
 s    6 1.00
             3047.5249  0.0018347001629433
             457.36951    0.01403730124668
             103.94869   0.068842606114048
             29.210155    0.23218442062076
              9.286663    0.46794134155879
              3.163927    0.36231203217765
 s    3 1.00
             7.8682724   -0.11933240861517
             1.8812885   -0.16085421161283
             0.5442493     1.1434564825515
 s    1 1.00
             0.1687144                   1
 p    3 1.00
             7.8682724   0.068999095584993
             1.8812885    0.31642397975315
             0.5442493    0.74430825237435
 p    1 1.00
             0.1687144                   1
 d    1 1.00
                   0.8                   1

35 0
 s    3 1.00
             18.731137    0.03349459952309
             2.8253937    0.23472694665786
             0.6401217    0.81375731841339
 s    1 1.00
             0.1612778                   1

36 0
 s    6 1.00
             3047.5249  0.0018347001629433
             457.36951    0.01403730124668
             103.94869   0.068842606114048
             29.210155    0.23218442062076
              9.286663    0.46794134155879
              3.163927    0.36231203217765
 s    3 1.00
             7.8682724   -0.11933240861517
             1.8812885   -0.16085421161283
             0.5442493     1.1434564825515
 s    1 1.00
             0.1687144                   1
 p    3 1.00
             7.8682724   0.068999095584993
             1.8812885    0.31642397975315
             0.5442493    0.74430825237435
 p    1 1.00
             0.1687144                   1
 d    1 1.00
                   0.8                   1

37 0
 s    3 1.00
             18.731137    0.03349459952309
             2.8253937    0.23472694665786
             0.6401217    0.81375731841339
 s    1 1.00
             0.1612778                   1

38 0
 s    3 1.00
             18.731137    0.03349459952309
             2.8253937    0.23472694665786
             0.6401217    0.81375731841339
 s    1 1.00
             0.1612778                   1

39 0
 s    6 1.00
             3047.5249  0.0018347001629433
             457.36951    0.01403730124668
             103.94869   0.068842606114048
             29.210155    0.23218442062076
              9.286663    0.46794134155879
              3.163927    0.36231203217765
 s    3 1.00
             7.8682724   -0.11933240861517
             1.8812885   -0.16085421161283
             0.5442493     1.1434564825515
 s    1 1.00
             0.1687144                   1
 p    3 1.00
             7.8682724   0.068999095584993
             1.8812885    0.31642397975315
             0.5442493    0.74430825237435
 p    1 1.00
             0.1687144                   1
 d    1 1.00
                   0.8                   1

40 0
 s    6 1.00
             3047.5249  0.0018347001629433
             457.36951    0.01403730124668
             103.94869   0.068842606114048
             29.210155    0.23218442062076
              9.286663    0.46794134155879
              3.163927    0.36231203217765
 s    3 1.00
             7.8682724   -0.11933240861517
             1.8812885   -0.16085421161283
             0.5442493     1.1434564825515
 s    1 1.00
             0.1687144                   1
 p    3 1.00
             7.8682724   0.068999095584993
             1.8812885    0.31642397975315
             0.5442493    0.74430825237435
 p    1 1.00
             0.1687144                   1
 d    1 1.00
                   0.8                   1

41 0
 s    3 1.00
             18.731137    0.03349459952309
             2.8253937    0.23472694665786
             0.6401217    0.81375731841339
 s    1 1.00
             0.1612778                   1

42 0
 s    6 1.00
             5484.6717   0.001831099805527
             825.23495   0.013950098518422
             188.04696    0.06844509273075
               52.9645    0.23271427528445
              16.89757    0.47019295006289
             5.7996353    0.35852086192309
 s    3 1.00
             15.539616   -0.11077750382508
             3.5999336   -0.14802630511126
             1.0137618     1.1307670390447
 s    1 1.00
             0.2700058                   1
 p    3 1.00
             15.539616   0.070874299543311
             3.5999336    0.33975279781076
             1.0137618    0.72715859531445
 p    1 1.00
             0.2700058                   1
 d    1 1.00
                   0.8                   1

43 0
 s    3 1.00
             18.731137    0.03349459952309
             2.8253937    0.23472694665786
             0.6401217    0.81375731841339
 s    1 1.00
             0.1612778                   1

[5d]
[7f]
[9g]

[MO]
 Sym= A
 Ene=               0
 Spin= Alpha
 Occup=    1.00000
   1     0.017429904707489
   2    -0.001113308640562
   3    0.0077384141587664
   4    0.00044371134518864
   5    -0.00017226408454423
   6    0.0013293868711724
   7    0.00088235493934635
   8    0.0014841198029445
   9    -0.0060707680772646
  10    -0.00099136212360651
  11    -0.00096579309229426
  12    0.00015224752960774
  13    -0.00021748808602893
  14    5.2390810366107e-05
  15    -0.00053754183520357
  16    -0.0010115138052377
  17       0.9946935843089
  18     0.039354371653281
  19    -0.031456000367964
  20    0.0010621251129659
  21    0.00020624563129458
  22    -0.00062378370954858
  23    -0.0040774949519933
  24    -0.0012453726584919
  25    -0.0008619543534171
  26    0.00079862539192619
  27    -0.00032671040362573
  28    -0.00034511249159995
  29    0.00027209579446113
  30    0.00021618590123968
  31    -0.0013154698296955
  32    0.0041692342148802
  33     0.013243375288422
  34    -0.00039195415343016
  35    0.0013246236186268
  36    0.00095859430411775
  37    0.00037966225142778
  38    -0.0012990802411306
  39    -0.0029359130136297
  40    0.0036911683931889
  41    0.0042620434452006
  42    -0.00065772775336843
  43     0.001326780705087
  44    0.00054338013776664
  45    -0.00039934113377967
  46    -0.00041171123148463
  47    -0.00060741823627401
  48    -0.00061298729537658
  49    -0.00036384026605228
  50    -0.000590644621015
  51    0.00012493422047457
  52    0.00031893036641227
  53    3.5578977170772e-05
  54    -0.00041313073982246
  55    -0.0057107756347295
  56    0.0010642130288334
  57    0.0073436490823991
  58    -0.000183963067264
  59    -1.0309652079241e-05
  60    0.0001323439210237
  61    -0.00023111135083641
  62    -0.0002565313557655
  63    -0.00051792927175112
  64    0.00026505995766906
  65    -2.8485651736499e-06
  66    -4.5626283495342e-06
  67    -8.0675519589276e-08
  68    -1.2670836221074e-06
  69    5.9618084602949e-06
  70    2.1335343138944e-06
  71    -4.9242072991908e-06
  72    -9.8819105062248e-08
  73    1.4677733884011e-05
  74    2.8054432333094e-05
  75    1.0436556583886e-05
  76    -1.1888527124724e-07
  77    -2.98100161797e-07
  78    3.0642308879058e-07
  79    6.0114237012759e-07
  80    -2.6418089095815e-10
  81    2.8149345870738e-06
  82    1.4433847413055e-05
  83    1.9559740687762e-07
  84    1.3030849826561e-06
  85    -7.1685843870031e-05
  86    4.2300193691966e-06
  87    3.556517224403e-06
  88    5.4081996912182e-06
  89    2.4955944319396e-05
  90    -6.9554003439623e-05
  91    8.3903588815269e-06
  92    1.7612091620684e-06
  93    -2.8907231500973e-06
  94    4.0859869334625e-06
  95    -7.7543719113576e-07
  96    -1.15384316417e-06
  97    7.7404607979896e-06
  98    1.3482799422059e-05
  99    -3.7146490684635e-06
 100    -2.0811866827951e-05
 101    -1.0827897977314e-06
 102    -1.1660399501814e-05
 103    0.00023762504095027
 104    -2.2233135128993e-06
 105    -9.0929785316057e-06
 106    -3.5149623652792e-06
 107    -0.00020175291739683
 108    0.00019811530871709
 109    0.00015131077918463
 110    -6.614676189897e-06
 111    -1.3690076629303e-07
 112    3.002547676543e-08
 113    1.1625635629435e-06
 114    -5.6906543950523e-06
 115    -3.5936521670656e-06
 116    -3.5527340729823e-05
 117    0.0002550331485827
 118    -2.3330758391244e-06
 119    2.7926210769804e-06
 120    5.5864372878481e-06
 121    -5.4546954869722e-05
 122    1.5527828942137e-05
 123    3.1879939755742e-05
 124    1.6216992798847e-06
 125    -3.293918786415e-06
 126    -2.5770961023661e-06
 127    9.1843297124646e-07
 128    -2.4171548561144e-06
 129    -5.7946051181538e-06
 130    -5.6072684021258e-05
 131    0.00015680344357955
 132    5.4143316302069e-06
 133    -5.5205203434232e-06
 134    2.3703227447211e-05
 135    -0.00036735361755597
 136    3.3033420492838e-05
 137    -0.00043318355420728
 138    9.3475220572498e-06
 139    1.4704278442091e-05
 140    6.0746023852334e-06
 141    5.0193970673545e-06
 142    7.3858480981649e-06
 143    -2.3185452345923e-06
 144    -3.057917833019e-05
 145    3.9057629373183e-05
 146    2.4017454204642e-06
 147    6.3151514363939e-06
 148    1.4230040779145e-05
 149    1.6854746137872e-05
 150    4.5580089525893e-06
 151    -7.5388828132229e-05
 152    -7.1062791862269e-06
 153    -4.4026068579098e-06
 154    -3.367540733088e-06
 155    4.4272589580254e-06
 156    -4.4550484432575e-06
 157    1.7623650341057e-06
 158    1.4318387050668e-05
 159    -4.510363648497e-05
 160    6.4562512896457e-06
 161    -1.4543798641796e-08
 162    -1.9537143570463e-06
 163    -5.4630034595845e-05
 164    2.8688378131659e-05
 165    1.2777683949531e-05
 166    4.8700381929201e-06
 167    -9.4042081084619e-07
 168    -2.554774567266e-07
 169    1.0441175993484e-06
 170    2.1181002755838e-06
 171    -5.2786727211999e-07
 172    -1.3918727106188e-05
 173    2.6101912235035e-05
 174    -4.6655161929903e-06
 175    -3.7185544786109e-07
 176    1.2114952704246e-05
 177    3.4883689446906e-07
 178    -2.0676950633176e-06
 179    -2.8170985574303e-05
 180    1.6829006250047e-06
 181    5.2301282396883e-06
 182    1.026184878625e-06
 183    -1.2121060916957e-06
 184    1.7920326580229e-06
 185    -3.644063027262e-06
 186    -3.1112545253353e-05
 187    9.2671908504196e-05
 188    -2.609766697621e-06
 189    6.4507847836643e-07
 190    5.0532075790862e-06
 191    -4.7596435874813e-06
 192    -1.5760694870882e-05
 193    -7.7367227933778e-05
 194    3.4022206426282e-06
 195    1.9131678219547e-06
 196    3.0460273978781e-06
 197    -3.0362643181791e-07
 198    4.8220428449742e-07
 199    -8.0726558612067e-06
 200    8.4842926047295e-07
 201    -2.7605729100792e-06
 202    2.0919109548931e-05
 203    -1.2042134700645e-05
 204    -4.4843237304108e-06
 205    -5.9185264568358e-07
 206    -2.9744558660383e-05
 207    9.9334520650759e-06
 208    -6.4579622816141e-05
 209    1.2192649820256e-05
 210    -2.7808638037492e-05
 211    6.9814750998217e-06
 212    1.8859399236468e-05
 213    -7.8178820003496e-07
 214    -2.3361455273643e-05
 215    -3.1227456354653e-06
 216    -2.9758550623099e-05
 217    1.6207687725617e-06
 218    1.0201631413078e-05
 219    4.6862812156035e-07
 220    -2.2102759021969e-06
 221    -9.3297424731416e-06
 222    -9.4012855822071e-05
 223    0.00095013084148835
 224    -1.3690694316445e-05
 225    -3.0356779234892e-06
 226    1.2552938303492e-05
 227    0.00067981536407394
 228    0.00032913940491062
 229    -0.00097732342938351
 230    3.1445444939562e-06
 231    -4.6916421014707e-05
 232    -2.3071082029128e-05
 233    2.3390118046421e-05
 234    2.392763490214e-05
 235    -1.6073236526939e-05
 236    -3.9109641270011e-05
 237    -0.00024615464554199
 238    -2.2911640313904e-05
 239    -1.6898858299635e-06
 240    1.2539682838503e-05
 241    0.00030607978761999
 242    0.00037889368258364
 243    -0.001633086751402
 244    9.5824428056474e-06
 245    7.6564711054421e-05
 246    1.2929338748442e-05
 247    2.0668323257443e-05
 248    -3.7585295801697e-06
 249    -3.6146894226774e-05
 250    0.00032630737049747
 251    -2.6828042499143e-05
 252    -0.00042357231989822
 253    0.0022355623196226
 254    7.9306448034206e-05
 255    -2.8974319841709e-05
 256    0.00023952413888812
 257    2.3451619609705e-06
 258    0.00037239683043543
 259    -0.0018812427075775
 260    -7.0345711703525e-05
 261    -2.0317226076351e-05
 262    -1.1775557644198e-05
 263    0.00015129474651922
 264    8.5914625625911e-05
 265    -9.6720110498637e-05
 266    0.00021555522219546
 267    -0.00014608242671338
 268    -0.00054709000538726
 269    -8.3331145261851e-05
 270    -0.00055620739925622
 271    0.0073507494981832
 272    -9.6187249344727e-05
 273    0.00011803053828917
 274    0.00012255040335132
 275    -0.0014798661816565
 276    -0.0029479167662057
 277    0.0031112602602576
 278    9.691083952984e-05
 279    -0.00018732950881783
 280    -0.00011440926952632