[Molden Format]
made by pyscf v[2.0.1]
[Atoms] (AU)
C   1   6     0.69100024066471     0.64692934207205    -3.48223131169301
H   2   1     2.68052439830868     1.13355088658700    -3.25784032593313
C   3   6    -0.36286361513219     0.85440132524594    -5.97030179418974
H   4   1    -2.35448549047279     0.36322488579172    -6.17995817793143
C   5   6     0.93697958957450     1.61209284601821    -8.05828437677121
H   6   1     0.93570604399073     3.60645829547735    -8.57155587183010
C   7   6     2.33064164489587    -0.08500019610028    -9.65009622470686
H   8   1     2.31545752956704    -2.07726916449957    -9.11124928966168
H   9   1     1.55630230933075    -1.92953025305990    12.99630010416247
C   10   6     0.75233899775814    -2.21270439606481    11.10705728102219
H   11   1    -0.43433408177274    -3.90944857546550    11.22216085340412
C   12   6     2.86362581178706    -2.63237380607947     9.17926416456045
H   13   1     4.39038949912609    -1.24955421540245     9.49899813497433
H   14   1     3.74629220191363    -4.48798724300892     9.47414880959024
C   15   6     2.02478325613682    -2.42177285709634     6.44560829588644
C   16   6     3.88048732735477    -3.58795445234514     4.61402886975252
C   17   6    -0.18412382258602    -1.30464291234259     5.76021113872346
C   18   6    -2.10044360464350    -0.26837831858460     7.71610340967100
C   19   6    -3.08956938670431     2.35282328359417     6.88693925039594
C   20   6    -4.37372924086464    -2.09766595989678     7.93610724222001
C   21   6    -0.83850430601230     0.06372213486173    10.33002307638377
H   22   1     0.38411922151109     1.74281358582432    10.27380136542181
H   23   1    -2.30980003007874     0.45460143924521    11.73986301809809
H   24   1     4.58527064644668    -5.38706904487420     5.36778158031719
H   25   1     5.54944938085014    -2.37631462192748     4.35398898413318
H   26   1     3.06633019150423    -3.94118377050688     2.75255466040884
H   27   1    -4.17727778763735     2.26573369139522     5.12914900961283
H   28   1    -1.52662344944051     3.68001877445626     6.59540397144508
H   29   1    -4.32916174397830     3.13643051467482     8.35225460090378
H   30   1    -5.32329548508442    -2.36691813602939     6.11583672749896
H   31   1    -5.77989366602257    -1.33896741843465     9.25748940450990
H   32   1    -3.79310905208926    -3.96389819310853     8.61386170102686
C   33   6    -1.01100794811226    -1.06331657314144     3.11929490449947
C   34   6     0.37686231036534    -0.33275864505552     1.09165013605873
H   35   1    -3.01671213906703    -1.40297922279997     2.77827895090944
C   36   6    -0.64382707979370    -0.11591880174385    -1.42063131251064
H   37   1     2.35569259782137     0.17174499283897     1.33641070251401
H   38   1    -2.63317482980319    -0.60229203511219    -1.66119700387645
C   39   6     3.64869579482306     0.58263290243353   -11.74621951745329
C   40   6     5.00865186237336    -1.29151691020822   -13.24458681490645
H   41   1     3.74083961582251     2.53414495508714   -12.38721761884598
O   42   8     6.22738846457655    -0.82464446464225   -15.14656876600025
H   43   1     4.86298794977594    -3.26455446446118   -12.51927050350916
[GTO]
1 0
 s    6 1.00
             3047.5249  0.0018347001629433
             457.36951    0.01403730124668
             103.94869   0.068842606114048
             29.210155    0.23218442062076
              9.286663    0.46794134155879
              3.163927    0.36231203217765
 s    3 1.00
             7.8682724   -0.11933240861517
             1.8812885   -0.16085421161283
             0.5442493     1.1434564825515
 s    1 1.00
             0.1687144                   1
 p    3 1.00
             7.8682724   0.068999095584993
             1.8812885    0.31642397975315
             0.5442493    0.74430825237435
 p    1 1.00
             0.1687144                   1
 d    1 1.00
                   0.8                   1

2 0
 s    3 1.00
             18.731137    0.03349459952309
             2.8253937    0.23472694665786
             0.6401217    0.81375731841339
 s    1 1.00
             0.1612778                   1

3 0
 s    6 1.00
             3047.5249  0.0018347001629433
             457.36951    0.01403730124668
             103.94869   0.068842606114048
             29.210155    0.23218442062076
              9.286663    0.46794134155879
              3.163927    0.36231203217765
 s    3 1.00
             7.8682724   -0.11933240861517
             1.8812885   -0.16085421161283
             0.5442493     1.1434564825515
 s    1 1.00
             0.1687144                   1
 p    3 1.00
             7.8682724   0.068999095584993
             1.8812885    0.31642397975315
             0.5442493    0.74430825237435
 p    1 1.00
             0.1687144                   1
 d    1 1.00
                   0.8                   1

4 0
 s    3 1.00
             18.731137    0.03349459952309
             2.8253937    0.23472694665786
             0.6401217    0.81375731841339
 s    1 1.00
             0.1612778                   1

5 0
 s    6 1.00
             3047.5249  0.0018347001629433
             457.36951    0.01403730124668
             103.94869   0.068842606114048
             29.210155    0.23218442062076
              9.286663    0.46794134155879
              3.163927    0.36231203217765
 s    3 1.00
             7.8682724   -0.11933240861517
             1.8812885   -0.16085421161283
             0.5442493     1.1434564825515
 s    1 1.00
             0.1687144                   1
 p    3 1.00
             7.8682724   0.068999095584993
             1.8812885    0.31642397975315
             0.5442493    0.74430825237435
 p    1 1.00
             0.1687144                   1
 d    1 1.00
                   0.8                   1

6 0
 s    3 1.00
             18.731137    0.03349459952309
             2.8253937    0.23472694665786
             0.6401217    0.81375731841339
 s    1 1.00
             0.1612778                   1

7 0
 s    6 1.00
             3047.5249  0.0018347001629433
             457.36951    0.01403730124668
             103.94869   0.068842606114048
             29.210155    0.23218442062076
              9.286663    0.46794134155879
              3.163927    0.36231203217765
 s    3 1.00
             7.8682724   -0.11933240861517
             1.8812885   -0.16085421161283
             0.5442493     1.1434564825515
 s    1 1.00
             0.1687144                   1
 p    3 1.00
             7.8682724   0.068999095584993
             1.8812885    0.31642397975315
             0.5442493    0.74430825237435
 p    1 1.00
             0.1687144                   1
 d    1 1.00
                   0.8                   1

8 0
 s    3 1.00
             18.731137    0.03349459952309
             2.8253937    0.23472694665786
             0.6401217    0.81375731841339
 s    1 1.00
             0.1612778                   1

9 0
 s    3 1.00
             18.731137    0.03349459952309
             2.8253937    0.23472694665786
             0.6401217    0.81375731841339
 s    1 1.00
             0.1612778                   1

10 0
 s    6 1.00
             3047.5249  0.0018347001629433
             457.36951    0.01403730124668
             103.94869   0.068842606114048
             29.210155    0.23218442062076
              9.286663    0.46794134155879
              3.163927    0.36231203217765
 s    3 1.00
             7.8682724   -0.11933240861517
             1.8812885   -0.16085421161283
             0.5442493     1.1434564825515
 s    1 1.00
             0.1687144                   1
 p    3 1.00
             7.8682724   0.068999095584993
             1.8812885    0.31642397975315
             0.5442493    0.74430825237435
 p    1 1.00
             0.1687144                   1
 d    1 1.00
                   0.8                   1

11 0
 s    3 1.00
             18.731137    0.03349459952309
             2.8253937    0.23472694665786
             0.6401217    0.81375731841339
 s    1 1.00
             0.1612778                   1

12 0
 s    6 1.00
             3047.5249  0.0018347001629433
             457.36951    0.01403730124668
             103.94869   0.068842606114048
             29.210155    0.23218442062076
              9.286663    0.46794134155879
              3.163927    0.36231203217765
 s    3 1.00
             7.8682724   -0.11933240861517
             1.8812885   -0.16085421161283
             0.5442493     1.1434564825515
 s    1 1.00
             0.1687144                   1
 p    3 1.00
             7.8682724   0.068999095584993
             1.8812885    0.31642397975315
             0.5442493    0.74430825237435
 p    1 1.00
             0.1687144                   1
 d    1 1.00
                   0.8                   1

13 0
 s    3 1.00
             18.731137    0.03349459952309
             2.8253937    0.23472694665786
             0.6401217    0.81375731841339
 s    1 1.00
             0.1612778                   1

14 0
 s    3 1.00
             18.731137    0.03349459952309
             2.8253937    0.23472694665786
             0.6401217    0.81375731841339
 s    1 1.00
             0.1612778                   1

15 0
 s    6 1.00
             3047.5249  0.0018347001629433
             457.36951    0.01403730124668
             103.94869   0.068842606114048
             29.210155    0.23218442062076
              9.286663    0.46794134155879
              3.163927    0.36231203217765
 s    3 1.00
             7.8682724   -0.11933240861517
             1.8812885   -0.16085421161283
             0.5442493     1.1434564825515
 s    1 1.00
             0.1687144                   1
 p    3 1.00
             7.8682724   0.068999095584993
             1.8812885    0.31642397975315
             0.5442493    0.74430825237435
 p    1 1.00
             0.1687144                   1
 d    1 1.00
                   0.8                   1

16 0
 s    6 1.00
             3047.5249  0.0018347001629433
             457.36951    0.01403730124668
             103.94869   0.068842606114048
             29.210155    0.23218442062076
              9.286663    0.46794134155879
              3.163927    0.36231203217765
 s    3 1.00
             7.8682724   -0.11933240861517
             1.8812885   -0.16085421161283
             0.5442493     1.1434564825515
 s    1 1.00
             0.1687144                   1
 p    3 1.00
             7.8682724   0.068999095584993
             1.8812885    0.31642397975315
             0.5442493    0.74430825237435
 p    1 1.00
             0.1687144                   1
 d    1 1.00
                   0.8                   1

17 0
 s    6 1.00
             3047.5249  0.0018347001629433
             457.36951    0.01403730124668
             103.94869   0.068842606114048
             29.210155    0.23218442062076
              9.286663    0.46794134155879
              3.163927    0.36231203217765
 s    3 1.00
             7.8682724   -0.11933240861517
             1.8812885   -0.16085421161283
             0.5442493     1.1434564825515
 s    1 1.00
             0.1687144                   1
 p    3 1.00
             7.8682724   0.068999095584993
             1.8812885    0.31642397975315
             0.5442493    0.74430825237435
 p    1 1.00
             0.1687144                   1
 d    1 1.00
                   0.8                   1

18 0
 s    6 1.00
             3047.5249  0.0018347001629433
             457.36951    0.01403730124668
             103.94869   0.068842606114048
             29.210155    0.23218442062076
              9.286663    0.46794134155879
              3.163927    0.36231203217765
 s    3 1.00
             7.8682724   -0.11933240861517
             1.8812885   -0.16085421161283
             0.5442493     1.1434564825515
 s    1 1.00
             0.1687144                   1
 p    3 1.00
             7.8682724   0.068999095584993
             1.8812885    0.31642397975315
             0.5442493    0.74430825237435
 p    1 1.00
             0.1687144                   1
 d    1 1.00
                   0.8                   1

19 0
 s    6 1.00
             3047.5249  0.0018347001629433
             457.36951    0.01403730124668
             103.94869   0.068842606114048
             29.210155    0.23218442062076
              9.286663    0.46794134155879
              3.163927    0.36231203217765
 s    3 1.00
             7.8682724   -0.11933240861517
             1.8812885   -0.16085421161283
             0.5442493     1.1434564825515
 s    1 1.00
             0.1687144                   1
 p    3 1.00
             7.8682724   0.068999095584993
             1.8812885    0.31642397975315
             0.5442493    0.74430825237435
 p    1 1.00
             0.1687144                   1
 d    1 1.00
                   0.8                   1

20 0
 s    6 1.00
             3047.5249  0.0018347001629433
             457.36951    0.01403730124668
             103.94869   0.068842606114048
             29.210155    0.23218442062076
              9.286663    0.46794134155879
              3.163927    0.36231203217765
 s    3 1.00
             7.8682724   -0.11933240861517
             1.8812885   -0.16085421161283
             0.5442493     1.1434564825515
 s    1 1.00
             0.1687144                   1
 p    3 1.00
             7.8682724   0.068999095584993
             1.8812885    0.31642397975315
             0.5442493    0.74430825237435
 p    1 1.00
             0.1687144                   1
 d    1 1.00
                   0.8                   1

21 0
 s    6 1.00
             3047.5249  0.0018347001629433
             457.36951    0.01403730124668
             103.94869   0.068842606114048
             29.210155    0.23218442062076
              9.286663    0.46794134155879
              3.163927    0.36231203217765
 s    3 1.00
             7.8682724   -0.11933240861517
             1.8812885   -0.16085421161283
             0.5442493     1.1434564825515
 s    1 1.00
             0.1687144                   1
 p    3 1.00
             7.8682724   0.068999095584993
             1.8812885    0.31642397975315
             0.5442493    0.74430825237435
 p    1 1.00
             0.1687144                   1
 d    1 1.00
                   0.8                   1

22 0
 s    3 1.00
             18.731137    0.03349459952309
             2.8253937    0.23472694665786
             0.6401217    0.81375731841339
 s    1 1.00
             0.1612778                   1

23 0
 s    3 1.00
             18.731137    0.03349459952309
             2.8253937    0.23472694665786
             0.6401217    0.81375731841339
 s    1 1.00
             0.1612778                   1

24 0
 s    3 1.00
             18.731137    0.03349459952309
             2.8253937    0.23472694665786
             0.6401217    0.81375731841339
 s    1 1.00
             0.1612778                   1

25 0
 s    3 1.00
             18.731137    0.03349459952309
             2.8253937    0.23472694665786
             0.6401217    0.81375731841339
 s    1 1.00
             0.1612778                   1

26 0
 s    3 1.00
             18.731137    0.03349459952309
             2.8253937    0.23472694665786
             0.6401217    0.81375731841339
 s    1 1.00
             0.1612778                   1

27 0
 s    3 1.00
             18.731137    0.03349459952309
             2.8253937    0.23472694665786
             0.6401217    0.81375731841339
 s    1 1.00
             0.1612778                   1

28 0
 s    3 1.00
             18.731137    0.03349459952309
             2.8253937    0.23472694665786
             0.6401217    0.81375731841339
 s    1 1.00
             0.1612778                   1

29 0
 s    3 1.00
             18.731137    0.03349459952309
             2.8253937    0.23472694665786
             0.6401217    0.81375731841339
 s    1 1.00
             0.1612778                   1

30 0
 s    3 1.00
             18.731137    0.03349459952309
             2.8253937    0.23472694665786
             0.6401217    0.81375731841339
 s    1 1.00
             0.1612778                   1

31 0
 s    3 1.00
             18.731137    0.03349459952309
             2.8253937    0.23472694665786
             0.6401217    0.81375731841339
 s    1 1.00
             0.1612778                   1

32 0
 s    3 1.00
             18.731137    0.03349459952309
             2.8253937    0.23472694665786
             0.6401217    0.81375731841339
 s    1 1.00
             0.1612778                   1

33 0
 s    6 1.00
             3047.5249  0.0018347001629433
             457.36951    0.01403730124668
             103.94869   0.068842606114048
             29.210155    0.23218442062076
              9.286663    0.46794134155879
              3.163927    0.36231203217765
 s    3 1.00
             7.8682724   -0.11933240861517
             1.8812885   -0.16085421161283
             0.5442493     1.1434564825515
 s    1 1.00
             0.1687144                   1
 p    3 1.00
             7.8682724   0.068999095584993
             1.8812885    0.31642397975315
             0.5442493    0.74430825237435
 p    1 1.00
             0.1687144                   1
 d    1 1.00
                   0.8                   1

34 0
 s    6 1.00
             3047.5249  0.0018347001629433
             457.36951    0.01403730124668
             103.94869   0.068842606114048
             29.210155    0.23218442062076
              9.286663    0.46794134155879
              3.163927    0.36231203217765
 s    3 1.00
             7.8682724   -0.11933240861517
             1.8812885   -0.16085421161283
             0.5442493     1.1434564825515
 s    1 1.00
             0.1687144                   1
 p    3 1.00
             7.8682724   0.068999095584993
             1.8812885    0.31642397975315
             0.5442493    0.74430825237435
 p    1 1.00
             0.1687144                   1
 d    1 1.00
                   0.8                   1

35 0
 s    3 1.00
             18.731137    0.03349459952309
             2.8253937    0.23472694665786
             0.6401217    0.81375731841339
 s    1 1.00
             0.1612778                   1

36 0
 s    6 1.00
             3047.5249  0.0018347001629433
             457.36951    0.01403730124668
             103.94869   0.068842606114048
             29.210155    0.23218442062076
              9.286663    0.46794134155879
              3.163927    0.36231203217765
 s    3 1.00
             7.8682724   -0.11933240861517
             1.8812885   -0.16085421161283
             0.5442493     1.1434564825515
 s    1 1.00
             0.1687144                   1
 p    3 1.00
             7.8682724   0.068999095584993
             1.8812885    0.31642397975315
             0.5442493    0.74430825237435
 p    1 1.00
             0.1687144                   1
 d    1 1.00
                   0.8                   1

37 0
 s    3 1.00
             18.731137    0.03349459952309
             2.8253937    0.23472694665786
             0.6401217    0.81375731841339
 s    1 1.00
             0.1612778                   1

38 0
 s    3 1.00
             18.731137    0.03349459952309
             2.8253937    0.23472694665786
             0.6401217    0.81375731841339
 s    1 1.00
             0.1612778                   1

39 0
 s    6 1.00
             3047.5249  0.0018347001629433
             457.36951    0.01403730124668
             103.94869   0.068842606114048
             29.210155    0.23218442062076
              9.286663    0.46794134155879
              3.163927    0.36231203217765
 s    3 1.00
             7.8682724   -0.11933240861517
             1.8812885   -0.16085421161283
             0.5442493     1.1434564825515
 s    1 1.00
             0.1687144                   1
 p    3 1.00
             7.8682724   0.068999095584993
             1.8812885    0.31642397975315
             0.5442493    0.74430825237435
 p    1 1.00
             0.1687144                   1
 d    1 1.00
                   0.8                   1

40 0
 s    6 1.00
             3047.5249  0.0018347001629433
             457.36951    0.01403730124668
             103.94869   0.068842606114048
             29.210155    0.23218442062076
              9.286663    0.46794134155879
              3.163927    0.36231203217765
 s    3 1.00
             7.8682724   -0.11933240861517
             1.8812885   -0.16085421161283
             0.5442493     1.1434564825515
 s    1 1.00
             0.1687144                   1
 p    3 1.00
             7.8682724   0.068999095584993
             1.8812885    0.31642397975315
             0.5442493    0.74430825237435
 p    1 1.00
             0.1687144                   1
 d    1 1.00
                   0.8                   1

41 0
 s    3 1.00
             18.731137    0.03349459952309
             2.8253937    0.23472694665786
             0.6401217    0.81375731841339
 s    1 1.00
             0.1612778                   1

42 0
 s    6 1.00
             5484.6717   0.001831099805527
             825.23495   0.013950098518422
             188.04696    0.06844509273075
               52.9645    0.23271427528445
              16.89757    0.47019295006289
             5.7996353    0.35852086192309
 s    3 1.00
             15.539616   -0.11077750382508
             3.5999336   -0.14802630511126
             1.0137618     1.1307670390447
 s    1 1.00
             0.2700058                   1
 p    3 1.00
             15.539616   0.070874299543311
             3.5999336    0.33975279781076
             1.0137618    0.72715859531445
 p    1 1.00
             0.2700058                   1
 d    1 1.00
                   0.8                   1

43 0
 s    3 1.00
             18.731137    0.03349459952309
             2.8253937    0.23472694665786
             0.6401217    0.81375731841339
 s    1 1.00
             0.1612778                   1

[5d]
[7f]
[9g]

[MO]
 Sym= A
 Ene=               0
 Spin= Alpha
 Occup=    1.00000
   1    -0.017125479977456
   2    0.0011312605245191
   3    -0.0077359370477584
   4    -0.00043979692195735
   5    0.00016333987162729
   6    -0.0013364072664334
   7    -0.00089101598710401
   8    -0.0014410785059214
   9    0.0061013178470134
  10    0.00099246776475176
  11    0.0009614261601053
  12    -0.00015507823852486
  13    0.00021696860295048
  14    -5.231096083662e-05
  15    0.00054119749815766
  16    0.0010046741759593
  17     -0.99470608632009
  18    -0.039363849365067
  19      0.03148546743458
  20    -0.0010568297004373
  21    -0.00020552535014804
  22    0.00064462205045161
  23    0.0040712804641852
  24    0.0012270782124852
  25    0.00085586674952105
  26    -0.00080219165517482
  27    0.00032719789892163
  28    0.0003488737218944
  29    -0.00027511704052415
  30    -0.00020789370850315
  31    0.0013068890125165
  32    -0.0041860365669693
  33       -0.012713452629
  34    0.00039808832189381
  35    -0.0012525267310206
  36    -0.00096227778963268
  37    -0.00037818544249355
  38     0.001298802022046
  39    0.0027795840723101
  40    -0.0037732019900175
  41    -0.0044130156270982
  42    0.00066991807397913
  43    -0.0013283758607484
  44    -0.00053389736822121
  45    0.00039219301617751
  46    0.00041748680027613
  47    0.00060933822039378
  48    0.00063095230776466
  49    0.00035772306389737
  50    0.00059694017635927
  51    -0.0002038971724857
  52    -0.00029729168538454
  53    -2.9540341813865e-05
  54    0.00042946678339073
  55    0.0055313969100076
  56    -0.0011589695818507
  57    -0.0075306357574693
  58    0.0001770512597792
  59    1.2403894384538e-05
  60    -0.00015417772353975
  61    0.00024999395477492
  62    0.00023365049280606
  63    0.00052070398524159
  64    -0.00027433017283406
  65    2.8426682499933e-06
  66    4.3211949500185e-06
  67    7.3912588820481e-08
  68    1.4766480845972e-06
  69    -6.5412455458985e-06
  70    -2.120076944733e-06
  71    4.9029955691492e-06
  72    2.1768587302815e-08
  73    -1.4458362442026e-05
  74    -2.8121634350923e-05
  75    -1.0155368054343e-05
  76    1.1247683054915e-07
  77    3.0772405634486e-07
  78    -3.294121514035e-07
  79    -6.2622476628105e-07
  80    -2.6311861847708e-09
  81    -2.7798119936796e-06
  82    -1.4419164448662e-05
  83    -2.5263281727228e-07
  84    -1.4545425450225e-06
  85    7.2419426861752e-05
  86    -4.3504518003222e-06
  87    -3.6589872107617e-06
  88    -5.5711359494012e-06
  89    -2.5763701723117e-05
  90    7.0091208880603e-05
  91    -8.3999165475014e-06
  92    -1.7280862368229e-06
  93    2.9033596055862e-06
  94    -4.1703493562227e-06
  95    7.9111388702077e-07
  96    1.1109362726335e-06
  97    -8.0654858039347e-06
  98    -1.4053782926076e-05
  99    3.8750800565672e-06
 100    2.1168868372248e-05
 101    1.2715202628932e-06
 102    1.2078918314361e-05
 103    -0.00024874646994116
 104    3.1789323490593e-06
 105    1.0014137508779e-05
 106    3.6925265716977e-06
 107    0.00020576976599791
 108    -0.00019894923702939
 109    -0.00014898295676698
 110    6.5280249389113e-06
 111    7.6433845338858e-08
 112    -5.5439415885643e-09
 113    -1.3327189021593e-06
 114    5.7956775118694e-06
 115    3.5960215834476e-06
 116    3.5311251332574e-05
 117    -0.00025510223251372
 118    2.4097109548454e-06
 119    -3.1786877113784e-06
 120    -5.361065543158e-06
 121    5.3358734536623e-05
 122    -1.3243448112138e-05
 123    -3.171890190632e-05
 124    -1.6738797295581e-06
 125    3.2583548756034e-06
 126    2.6772911102529e-06
 127    -8.4167682581684e-07
 128    2.340784625615e-06
 129    5.814550477139e-06
 130    5.6226301210566e-05
 131    -0.00015807947752308
 132    -5.9847392540493e-06
 133    5.7954439319862e-06
 134    -2.350817041077e-05
 135    0.00037723722495417
 136    -3.8495894648379e-05
 137    0.00043404979208647
 138    -9.5366705218371e-06
 139    -1.4614294558452e-05
 140    -6.0963536251807e-06
 141    -4.8904378605259e-06
 142    -7.3938116817054e-06
 143    2.1202397846465e-06
 144    2.9899685827564e-05
 145    -3.1164017131177e-05
 146    -2.1478260234096e-06
 147    -6.4908220583999e-06
 148    -1.4720477203596e-05
 149    -1.4505391380135e-05
 150    -3.7711565556698e-06
 151    7.2100195168289e-05
 152    7.2671508951463e-06
 153    4.2628887379919e-06
 154    3.4217030329814e-06
 155    -4.448357758807e-06
 156    4.400250033209e-06
 157    -1.8044683168671e-06
 158    -1.4087617075919e-05
 159    4.3677236891513e-05
 160    -6.5358980772416e-06
 161    3.0006966857125e-08
 162    1.6025208730679e-06
 163    5.4023522803563e-05
 164    -2.7729031757682e-05
 165    -1.2430322811193e-05
 166    -4.8266983367816e-06
 167    8.4894516714056e-07
 168    2.3892885191263e-07
 169    -9.954011744336e-07
 170    -2.1096372751403e-06
 171    5.1233060207496e-07
 172    1.3652287897663e-05
 173    -2.5198774842595e-05
 174    4.5689228932742e-06
 175    3.079205125916e-07
 176    -1.2051995253812e-05
 177    -9.1376702187475e-08
 178    1.9367273189407e-06
 179    2.8304928416483e-05
 180    -1.6952049945741e-06
 181    -5.258635493968e-06
 182    -9.6104205458388e-07
 183    1.2302837710633e-06
 184    -1.8065559322335e-06
 185    3.7003864256923e-06
 186    3.1364259624675e-05
 187    -9.3670103719671e-05
 188    2.7166200538259e-06
 189    -6.4658155654987e-07
 190    -4.8819321946087e-06
 191    4.1298478519148e-06
 192    1.5461135856468e-05
 193    7.8454253387796e-05
 194    -3.498935168283e-06
 195    -1.9347289876537e-06
 196    -3.0183984949005e-06
 197    3.5755890932612e-07
 198    -4.921175766763e-07
 199    8.1745884197565e-06
 200    -6.0504696875244e-07
 201    2.8274905800442e-06
 202    -2.0959425065636e-05
 203    1.2405349594319e-05
 204    6.0453868248228e-06
 205    2.194354565851e-07
 206    2.9092044714605e-05
 207    -1.0340346271787e-05
 208    6.6806759611121e-05
 209    -1.1990030224047e-05
 210    2.7807968098459e-05
 211    -6.8457424865538e-06
 212    -1.897667198702e-05
 213    6.4545972804638e-07
 214    2.3017011749147e-05
 215    3.1051842597791e-06
 216    2.9381200510423e-05
 217    -1.6100243422977e-06
 218    -9.8748790854012e-06
 219    -5.1038706135191e-07
 220    1.9250415190669e-06
 221    9.3969693522751e-06
 222    9.4466328907586e-05
 223    -0.00095221126582564
 224    1.4420773065037e-05
 225    -2.4858949463041e-07
 226    -1.3305175291979e-05
 227    -0.00068077470601955
 228    -0.00033102736522853
 229    0.00098491487290063
 230    -3.1182699108581e-06
 231    4.6930730963032e-05
 232    2.3381005455327e-05
 233    -2.3318527759756e-05
 234    -2.4054198341913e-05
 235    1.5951156982263e-05
 236    3.8570310422599e-05
 237    0.00026260597244326
 238    2.2843113029171e-05
 239    2.436539763954e-06
 240    -1.2470624811443e-05
 241    -0.00031290495979708
 242    -0.00037285432214903
 243    0.0016297014235238
 244    -9.7121644864532e-06
 245    -7.6300451092081e-05
 246    -1.434611884988e-05
 247    -2.0394295202638e-05
 248    2.8968049855923e-06
 249    3.6154393819058e-05
 250    -0.00032596792740208
 251    2.724178737091e-05
 252    0.00042410012314128
 253    -0.0022589118705838
 254    -8.2609599920205e-05
 255    3.7036545946194e-05
 256    -0.00023603806858182
 257    -9.6448919991581e-06
 258    -0.00039553079339362
 259    0.0018741839997088
 260    6.9931542415102e-05
 261    2.072309384777e-05
 262    1.417815055297e-05
 263    -0.00015021344193374
 264    -8.8552714364933e-05
 265    9.7113262185663e-05
 266    -0.00021556191002674
 267    0.00014523106077534
 268    0.00054497683366059
 269    8.3381700746328e-05
 270    0.00055698311023757
 271    -0.0073566610931186
 272    9.1566379205383e-05
 273    -0.00011966031802369
 274    -0.0001257125311509
 275    0.0015816105610851
 276    0.0029897598665346
 277    -0.0030315978895486
 278    -9.3235656666126e-05
 279    0.00019018011140798
 280    0.00010997485581909
 281    3.1555253303939e-05