[Molden Format]
made by pyscf v[2.0.1]
[Atoms] (AU)
C   1   6     0.69100024066471     0.64692934207205    -3.48223131169301
H   2   1     2.68052439830868     1.13355088658700    -3.25784032593313
C   3   6    -0.36286361513219     0.85440132524594    -5.97030179418974
H   4   1    -2.35448549047279     0.36322488579172    -6.17995817793143
C   5   6     0.93697958957450     1.61209284601821    -8.05828437677121
H   6   1    -0.06960811584452     2.58702669474359    -9.56733307637730
C   7   6     3.59571274713804     1.19684402678434    -8.39738626626495
H   8   1     4.57899779978681     0.21871567749258    -6.86894337963000
H   9   1     1.55630230933075    -1.92953025305990    12.99630010416247
C   10   6     0.75233899775814    -2.21270439606481    11.10705728102219
H   11   1    -0.43433408177274    -3.90944857546550    11.22216085340412
C   12   6     2.86362581178706    -2.63237380607947     9.17926416456045
H   13   1     4.39038949912609    -1.24955421540245     9.49899813497433
H   14   1     3.74629220191363    -4.48798724300892     9.47414880959024
C   15   6     2.02478325613682    -2.42177285709634     6.44560829588644
C   16   6     3.88048732735477    -3.58795445234514     4.61402886975252
C   17   6    -0.18412382258602    -1.30464291234259     5.76021113872346
C   18   6    -2.10044360464350    -0.26837831858460     7.71610340967100
C   19   6    -3.08956938670431     2.35282328359417     6.88693925039594
C   20   6    -4.37372924086464    -2.09766595989678     7.93610724222001
C   21   6    -0.83850430601230     0.06372213486173    10.33002307638377
H   22   1     0.38411922151109     1.74281358582432    10.27380136542181
H   23   1    -2.30980003007874     0.45460143924521    11.73986301809809
H   24   1     4.58527064644668    -5.38706904487420     5.36778158031719
H   25   1     5.54944938085014    -2.37631462192748     4.35398898413318
H   26   1     3.06633019150423    -3.94118377050688     2.75255466040884
H   27   1    -4.17727778763735     2.26573369139522     5.12914900961283
H   28   1    -1.52662344944051     3.68001877445626     6.59540397144508
H   29   1    -4.32916174397830     3.13643051467482     8.35225460090378
H   30   1    -5.32329548508442    -2.36691813602939     6.11583672749896
H   31   1    -5.77989366602257    -1.33896741843465     9.25748940450990
H   32   1    -3.79310905208926    -3.96389819310853     8.61386170102686
C   33   6    -1.01100794811226    -1.06331657314144     3.11929490449947
C   34   6     0.37686231036534    -0.33275864505552     1.09165013605873
H   35   1    -3.01671213906703    -1.40297922279997     2.77827895090944
C   36   6    -0.64382707979370    -0.11591880174385    -1.42063131251064
H   37   1     2.35569259782137     0.17174499283897     1.33641070251401
H   38   1    -2.63317482980319    -0.60229203511219    -1.66119700387645
C   39   6     4.96665860975130     1.91437223239220   -10.44247655051683
C   40   6     7.67160233174465     1.40206885234173   -10.60935163126053
H   41   1     4.10375913642339     2.89528826049847   -12.03023490303406
O   42   8     9.01623610133373     1.99111078946158   -12.38862500825095
H   43   1     8.47573431044455     0.39495244048141    -8.94223819440966
[GTO]
1 0
 s    6 1.00
             3047.5249  0.0018347001629433
             457.36951    0.01403730124668
             103.94869   0.068842606114048
             29.210155    0.23218442062076
              9.286663    0.46794134155879
              3.163927    0.36231203217765
 s    3 1.00
             7.8682724   -0.11933240861517
             1.8812885   -0.16085421161283
             0.5442493     1.1434564825515
 s    1 1.00
             0.1687144                   1
 p    3 1.00
             7.8682724   0.068999095584993
             1.8812885    0.31642397975315
             0.5442493    0.74430825237435
 p    1 1.00
             0.1687144                   1
 d    1 1.00
                   0.8                   1

2 0
 s    3 1.00
             18.731137    0.03349459952309
             2.8253937    0.23472694665786
             0.6401217    0.81375731841339
 s    1 1.00
             0.1612778                   1

3 0
 s    6 1.00
             3047.5249  0.0018347001629433
             457.36951    0.01403730124668
             103.94869   0.068842606114048
             29.210155    0.23218442062076
              9.286663    0.46794134155879
              3.163927    0.36231203217765
 s    3 1.00
             7.8682724   -0.11933240861517
             1.8812885   -0.16085421161283
             0.5442493     1.1434564825515
 s    1 1.00
             0.1687144                   1
 p    3 1.00
             7.8682724   0.068999095584993
             1.8812885    0.31642397975315
             0.5442493    0.74430825237435
 p    1 1.00
             0.1687144                   1
 d    1 1.00
                   0.8                   1

4 0
 s    3 1.00
             18.731137    0.03349459952309
             2.8253937    0.23472694665786
             0.6401217    0.81375731841339
 s    1 1.00
             0.1612778                   1

5 0
 s    6 1.00
             3047.5249  0.0018347001629433
             457.36951    0.01403730124668
             103.94869   0.068842606114048
             29.210155    0.23218442062076
              9.286663    0.46794134155879
              3.163927    0.36231203217765
 s    3 1.00
             7.8682724   -0.11933240861517
             1.8812885   -0.16085421161283
             0.5442493     1.1434564825515
 s    1 1.00
             0.1687144                   1
 p    3 1.00
             7.8682724   0.068999095584993
             1.8812885    0.31642397975315
             0.5442493    0.74430825237435
 p    1 1.00
             0.1687144                   1
 d    1 1.00
                   0.8                   1

6 0
 s    3 1.00
             18.731137    0.03349459952309
             2.8253937    0.23472694665786
             0.6401217    0.81375731841339
 s    1 1.00
             0.1612778                   1

7 0
 s    6 1.00
             3047.5249  0.0018347001629433
             457.36951    0.01403730124668
             103.94869   0.068842606114048
             29.210155    0.23218442062076
              9.286663    0.46794134155879
              3.163927    0.36231203217765
 s    3 1.00
             7.8682724   -0.11933240861517
             1.8812885   -0.16085421161283
             0.5442493     1.1434564825515
 s    1 1.00
             0.1687144                   1
 p    3 1.00
             7.8682724   0.068999095584993
             1.8812885    0.31642397975315
             0.5442493    0.74430825237435
 p    1 1.00
             0.1687144                   1
 d    1 1.00
                   0.8                   1

8 0
 s    3 1.00
             18.731137    0.03349459952309
             2.8253937    0.23472694665786
             0.6401217    0.81375731841339
 s    1 1.00
             0.1612778                   1

9 0
 s    3 1.00
             18.731137    0.03349459952309
             2.8253937    0.23472694665786
             0.6401217    0.81375731841339
 s    1 1.00
             0.1612778                   1

10 0
 s    6 1.00
             3047.5249  0.0018347001629433
             457.36951    0.01403730124668
             103.94869   0.068842606114048
             29.210155    0.23218442062076
              9.286663    0.46794134155879
              3.163927    0.36231203217765
 s    3 1.00
             7.8682724   -0.11933240861517
             1.8812885   -0.16085421161283
             0.5442493     1.1434564825515
 s    1 1.00
             0.1687144                   1
 p    3 1.00
             7.8682724   0.068999095584993
             1.8812885    0.31642397975315
             0.5442493    0.74430825237435
 p    1 1.00
             0.1687144                   1
 d    1 1.00
                   0.8                   1

11 0
 s    3 1.00
             18.731137    0.03349459952309
             2.8253937    0.23472694665786
             0.6401217    0.81375731841339
 s    1 1.00
             0.1612778                   1

12 0
 s    6 1.00
             3047.5249  0.0018347001629433
             457.36951    0.01403730124668
             103.94869   0.068842606114048
             29.210155    0.23218442062076
              9.286663    0.46794134155879
              3.163927    0.36231203217765
 s    3 1.00
             7.8682724   -0.11933240861517
             1.8812885   -0.16085421161283
             0.5442493     1.1434564825515
 s    1 1.00
             0.1687144                   1
 p    3 1.00
             7.8682724   0.068999095584993
             1.8812885    0.31642397975315
             0.5442493    0.74430825237435
 p    1 1.00
             0.1687144                   1
 d    1 1.00
                   0.8                   1

13 0
 s    3 1.00
             18.731137    0.03349459952309
             2.8253937    0.23472694665786
             0.6401217    0.81375731841339
 s    1 1.00
             0.1612778                   1

14 0
 s    3 1.00
             18.731137    0.03349459952309
             2.8253937    0.23472694665786
             0.6401217    0.81375731841339
 s    1 1.00
             0.1612778                   1

15 0
 s    6 1.00
             3047.5249  0.0018347001629433
             457.36951    0.01403730124668
             103.94869   0.068842606114048
             29.210155    0.23218442062076
              9.286663    0.46794134155879
              3.163927    0.36231203217765
 s    3 1.00
             7.8682724   -0.11933240861517
             1.8812885   -0.16085421161283
             0.5442493     1.1434564825515
 s    1 1.00
             0.1687144                   1
 p    3 1.00
             7.8682724   0.068999095584993
             1.8812885    0.31642397975315
             0.5442493    0.74430825237435
 p    1 1.00
             0.1687144                   1
 d    1 1.00
                   0.8                   1

16 0
 s    6 1.00
             3047.5249  0.0018347001629433
             457.36951    0.01403730124668
             103.94869   0.068842606114048
             29.210155    0.23218442062076
              9.286663    0.46794134155879
              3.163927    0.36231203217765
 s    3 1.00
             7.8682724   -0.11933240861517
             1.8812885   -0.16085421161283
             0.5442493     1.1434564825515
 s    1 1.00
             0.1687144                   1
 p    3 1.00
             7.8682724   0.068999095584993
             1.8812885    0.31642397975315
             0.5442493    0.74430825237435
 p    1 1.00
             0.1687144                   1
 d    1 1.00
                   0.8                   1

17 0
 s    6 1.00
             3047.5249  0.0018347001629433
             457.36951    0.01403730124668
             103.94869   0.068842606114048
             29.210155    0.23218442062076
              9.286663    0.46794134155879
              3.163927    0.36231203217765
 s    3 1.00
             7.8682724   -0.11933240861517
             1.8812885   -0.16085421161283
             0.5442493     1.1434564825515
 s    1 1.00
             0.1687144                   1
 p    3 1.00
             7.8682724   0.068999095584993
             1.8812885    0.31642397975315
             0.5442493    0.74430825237435
 p    1 1.00
             0.1687144                   1
 d    1 1.00
                   0.8                   1

18 0
 s    6 1.00
             3047.5249  0.0018347001629433
             457.36951    0.01403730124668
             103.94869   0.068842606114048
             29.210155    0.23218442062076
              9.286663    0.46794134155879
              3.163927    0.36231203217765
 s    3 1.00
             7.8682724   -0.11933240861517
             1.8812885   -0.16085421161283
             0.5442493     1.1434564825515
 s    1 1.00
             0.1687144                   1
 p    3 1.00
             7.8682724   0.068999095584993
             1.8812885    0.31642397975315
             0.5442493    0.74430825237435
 p    1 1.00
             0.1687144                   1
 d    1 1.00
                   0.8                   1

19 0
 s    6 1.00
             3047.5249  0.0018347001629433
             457.36951    0.01403730124668
             103.94869   0.068842606114048
             29.210155    0.23218442062076
              9.286663    0.46794134155879
              3.163927    0.36231203217765
 s    3 1.00
             7.8682724   -0.11933240861517
             1.8812885   -0.16085421161283
             0.5442493     1.1434564825515
 s    1 1.00
             0.1687144                   1
 p    3 1.00
             7.8682724   0.068999095584993
             1.8812885    0.31642397975315
             0.5442493    0.74430825237435
 p    1 1.00
             0.1687144                   1
 d    1 1.00
                   0.8                   1

20 0
 s    6 1.00
             3047.5249  0.0018347001629433
             457.36951    0.01403730124668
             103.94869   0.068842606114048
             29.210155    0.23218442062076
              9.286663    0.46794134155879
              3.163927    0.36231203217765
 s    3 1.00
             7.8682724   -0.11933240861517
             1.8812885   -0.16085421161283
             0.5442493     1.1434564825515
 s    1 1.00
             0.1687144                   1
 p    3 1.00
             7.8682724   0.068999095584993
             1.8812885    0.31642397975315
             0.5442493    0.74430825237435
 p    1 1.00
             0.1687144                   1
 d    1 1.00
                   0.8                   1

21 0
 s    6 1.00
             3047.5249  0.0018347001629433
             457.36951    0.01403730124668
             103.94869   0.068842606114048
             29.210155    0.23218442062076
              9.286663    0.46794134155879
              3.163927    0.36231203217765
 s    3 1.00
             7.8682724   -0.11933240861517
             1.8812885   -0.16085421161283
             0.5442493     1.1434564825515
 s    1 1.00
             0.1687144                   1
 p    3 1.00
             7.8682724   0.068999095584993
             1.8812885    0.31642397975315
             0.5442493    0.74430825237435
 p    1 1.00
             0.1687144                   1
 d    1 1.00
                   0.8                   1

22 0
 s    3 1.00
             18.731137    0.03349459952309
             2.8253937    0.23472694665786
             0.6401217    0.81375731841339
 s    1 1.00
             0.1612778                   1

23 0
 s    3 1.00
             18.731137    0.03349459952309
             2.8253937    0.23472694665786
             0.6401217    0.81375731841339
 s    1 1.00
             0.1612778                   1

24 0
 s    3 1.00
             18.731137    0.03349459952309
             2.8253937    0.23472694665786
             0.6401217    0.81375731841339
 s    1 1.00
             0.1612778                   1

25 0
 s    3 1.00
             18.731137    0.03349459952309
             2.8253937    0.23472694665786
             0.6401217    0.81375731841339
 s    1 1.00
             0.1612778                   1

26 0
 s    3 1.00
             18.731137    0.03349459952309
             2.8253937    0.23472694665786
             0.6401217    0.81375731841339
 s    1 1.00
             0.1612778                   1

27 0
 s    3 1.00
             18.731137    0.03349459952309
             2.8253937    0.23472694665786
             0.6401217    0.81375731841339
 s    1 1.00
             0.1612778                   1

28 0
 s    3 1.00
             18.731137    0.03349459952309
             2.8253937    0.23472694665786
             0.6401217    0.81375731841339
 s    1 1.00
             0.1612778                   1

29 0
 s    3 1.00
             18.731137    0.03349459952309
             2.8253937    0.23472694665786
             0.6401217    0.81375731841339
 s    1 1.00
             0.1612778                   1

30 0
 s    3 1.00
             18.731137    0.03349459952309
             2.8253937    0.23472694665786
             0.6401217    0.81375731841339
 s    1 1.00
             0.1612778                   1

31 0
 s    3 1.00
             18.731137    0.03349459952309
             2.8253937    0.23472694665786
             0.6401217    0.81375731841339
 s    1 1.00
             0.1612778                   1

32 0
 s    3 1.00
             18.731137    0.03349459952309
             2.8253937    0.23472694665786
             0.6401217    0.81375731841339
 s    1 1.00
             0.1612778                   1

33 0
 s    6 1.00
             3047.5249  0.0018347001629433
             457.36951    0.01403730124668
             103.94869   0.068842606114048
             29.210155    0.23218442062076
              9.286663    0.46794134155879
              3.163927    0.36231203217765
 s    3 1.00
             7.8682724   -0.11933240861517
             1.8812885   -0.16085421161283
             0.5442493     1.1434564825515
 s    1 1.00
             0.1687144                   1
 p    3 1.00
             7.8682724   0.068999095584993
             1.8812885    0.31642397975315
             0.5442493    0.74430825237435
 p    1 1.00
             0.1687144                   1
 d    1 1.00
                   0.8                   1

34 0
 s    6 1.00
             3047.5249  0.0018347001629433
             457.36951    0.01403730124668
             103.94869   0.068842606114048
             29.210155    0.23218442062076
              9.286663    0.46794134155879
              3.163927    0.36231203217765
 s    3 1.00
             7.8682724   -0.11933240861517
             1.8812885   -0.16085421161283
             0.5442493     1.1434564825515
 s    1 1.00
             0.1687144                   1
 p    3 1.00
             7.8682724   0.068999095584993
             1.8812885    0.31642397975315
             0.5442493    0.74430825237435
 p    1 1.00
             0.1687144                   1
 d    1 1.00
                   0.8                   1

35 0
 s    3 1.00
             18.731137    0.03349459952309
             2.8253937    0.23472694665786
             0.6401217    0.81375731841339
 s    1 1.00
             0.1612778                   1

36 0
 s    6 1.00
             3047.5249  0.0018347001629433
             457.36951    0.01403730124668
             103.94869   0.068842606114048
             29.210155    0.23218442062076
              9.286663    0.46794134155879
              3.163927    0.36231203217765
 s    3 1.00
             7.8682724   -0.11933240861517
             1.8812885   -0.16085421161283
             0.5442493     1.1434564825515
 s    1 1.00
             0.1687144                   1
 p    3 1.00
             7.8682724   0.068999095584993
             1.8812885    0.31642397975315
             0.5442493    0.74430825237435
 p    1 1.00
             0.1687144                   1
 d    1 1.00
                   0.8                   1

37 0
 s    3 1.00
             18.731137    0.03349459952309
             2.8253937    0.23472694665786
             0.6401217    0.81375731841339
 s    1 1.00
             0.1612778                   1

38 0
 s    3 1.00
             18.731137    0.03349459952309
             2.8253937    0.23472694665786
             0.6401217    0.81375731841339
 s    1 1.00
             0.1612778                   1

39 0
 s    6 1.00
             3047.5249  0.0018347001629433
             457.36951    0.01403730124668
             103.94869   0.068842606114048
             29.210155    0.23218442062076
              9.286663    0.46794134155879
              3.163927    0.36231203217765
 s    3 1.00
             7.8682724   -0.11933240861517
             1.8812885   -0.16085421161283
             0.5442493     1.1434564825515
 s    1 1.00
             0.1687144                   1
 p    3 1.00
             7.8682724   0.068999095584993
             1.8812885    0.31642397975315
             0.5442493    0.74430825237435
 p    1 1.00
             0.1687144                   1
 d    1 1.00
                   0.8                   1

40 0
 s    6 1.00
             3047.5249  0.0018347001629433
             457.36951    0.01403730124668
             103.94869   0.068842606114048
             29.210155    0.23218442062076
              9.286663    0.46794134155879
              3.163927    0.36231203217765
 s    3 1.00
             7.8682724   -0.11933240861517
             1.8812885   -0.16085421161283
             0.5442493     1.1434564825515
 s    1 1.00
             0.1687144                   1
 p    3 1.00
             7.8682724   0.068999095584993
             1.8812885    0.31642397975315
             0.5442493    0.74430825237435
 p    1 1.00
             0.1687144                   1
 d    1 1.00
                   0.8                   1

41 0
 s    3 1.00
             18.731137    0.03349459952309
             2.8253937    0.23472694665786
             0.6401217    0.81375731841339
 s    1 1.00
             0.1612778                   1

42 0
 s    6 1.00
             5484.6717   0.001831099805527
             825.23495   0.013950098518422
             188.04696    0.06844509273075
               52.9645    0.23271427528445
              16.89757    0.47019295006289
             5.7996353    0.35852086192309
 s    3 1.00
             15.539616   -0.11077750382508
             3.5999336   -0.14802630511126
             1.0137618     1.1307670390447
 s    1 1.00
             0.2700058                   1
 p    3 1.00
             15.539616   0.070874299543311
             3.5999336    0.33975279781076
             1.0137618    0.72715859531445
 p    1 1.00
             0.2700058                   1
 d    1 1.00
                   0.8                   1

43 0
 s    3 1.00
             18.731137    0.03349459952309
             2.8253937    0.23472694665786
             0.6401217    0.81375731841339
 s    1 1.00
             0.1612778                   1

[5d]
[7f]
[9g]

[MO]
 Sym= A
 Ene=               0
 Spin= Alpha
 Occup=    1.00000
   1    -0.012105555755066
   2    0.0012907269082919
   3    -0.0088265550470167
   4    -0.00053059371051839
   5    0.00015263643146081
   6    -0.0012475863442748
   7    -2.962787706115e-06
   8    -0.00095427551579943
   9    0.0040617355413457
  10     0.001010357832141
  11    0.0010402507799289
  12    -0.00011635436875927
  13    0.0002567151282546
  14    -7.1235788248913e-05
  15    0.00042970137844489
  16    0.00094244789048268
  17     -0.99446798935566
  18    -0.038609061920136
  19     0.030520188154945
  20    -0.00089705899185195
  21    -0.00024240719034674
  22    0.0001570906752381
  23    0.0039680342082656
  24    0.00091272595646991
  25    0.00068280141614692
  26    -0.00077240769599038
  27    0.00026554868074786
  28    0.00038873168338389
  29    -0.00017998233194566
  30    -0.00021854220623645
  31    0.0013421322988257
  32    -0.0039825352911723
  33    -0.026241255172679
  34    0.0011408094299655
  35    -0.0079052611918432
  36    -0.00092287198463797
  37    -0.00051584084039936
  38    0.0014775324783367
  39    0.0012164517042623
  40    0.00055717317716616
  41    -0.0032622883284776
  42    0.00062595622543543
  43    -0.0011209026324402
  44    -0.0006237063973336
  45    0.0003233128152742
  46    0.00051572940252744
  47    0.00034449016952039
  48    -0.0002925735287621
  49    0.0010753577206031
  50    0.00027752372253348
  51    0.0029127178203448
  52    -0.00027899317121507
  53    -0.0001780382069523
  54    0.00019342720462372
  55    0.0017896540964748
  56    0.0014532958003639
  57    -0.0024884515404826
  58    1.8298192750196e-05
  59    -0.00019713730050074
  60    5.8917511466369e-05
  61    -4.4529302065545e-05
  62     9.80679509229e-05
  63    0.00026681944332914
  64    0.00024697600967931
  65    2.187648281465e-06
  66    6.2253777919017e-06
  67    -1.9853888994488e-07
  68    -2.5141729741631e-06
  69    5.2655159303747e-06
  70    -2.3266388913702e-07
  71    3.0071369013757e-06
  72    1.1979044134852e-06
  73    -1.2408670798015e-05
  74    -2.5402954323263e-05
  75    -1.4240359437127e-05
  76    1.4232518056161e-07
  77    -1.9219387770589e-07
  78    2.2092000808941e-07
  79    -1.9786580962751e-07
  80    -2.575302021096e-07
  81    -2.7845639548009e-06
  82    -1.4934155380047e-05
  83    2.3960317982285e-07
  84    4.1566946905072e-07
  85    1.4523369451283e-05
  86    -1.5430350469911e-06
  87    -3.7031469941556e-06
  88    -1.4016938672262e-06
  89    -3.565529054154e-06
  90    4.7518084545447e-05
  91    1.8703514267266e-06
  92    -1.4379782845797e-06
  93    1.0784270022643e-06
  94    -1.903389628309e-06
  95    4.6356959080183e-07
  96    7.8947346440828e-07
  97    -4.3135237984767e-06
  98    -1.1666846352534e-05
  99    3.661103091776e-06
 100    1.6300128064276e-05
 101    -3.0683831270627e-07
 102    3.6602199191185e-06
 103    -5.1887220808992e-05
 104    1.7554892705415e-06
 105    6.9825140176369e-06
 106    -2.0953060808974e-06
 107    7.4834009931696e-05
 108    -9.5494665420228e-05
 109    -6.0925499812977e-05
 110    6.160769991252e-06
 111    2.6982525434299e-08
 112    7.9752570725108e-08
 113    8.2376397344702e-08
 114    1.676907625058e-06
 115    2.7030094263787e-06
 116    2.9033227195392e-05
 117    -0.00015270661453347
 118    -7.584592456661e-07
 119    3.1904105775588e-06
 120    -5.713774249608e-06
 121    3.686101754842e-05
 122    -2.7902578686397e-05
 123    3.9797559627826e-06
 124    -1.0204024392156e-06
 125    2.0405342374421e-06
 126    1.7102235585435e-06
 127    -1.0907167649145e-06
 128    1.3080178646048e-06
 129    2.8270366511623e-06
 130    3.2972619146112e-05
 131    9.2156225049063e-05
 132    3.2377202237529e-06
 133    5.2734985078015e-06
 134    -2.0104124838723e-05
 135    0.00011574285836266
 136    1.1821482788857e-05
 137    9.5448004075168e-05
 138    2.2273029363057e-06
 139    -9.407871064539e-06
 140    -2.5124292579124e-06
 141    -4.9718195546583e-06
 142    -5.7312110136719e-06
 143    1.5086086481888e-06
 144    1.9315003156369e-05
 145    -4.1106918318321e-05
 146    -3.018113940324e-06
 147    -5.7372261148726e-06
 148    -7.3113184644784e-06
 149    9.5470092846455e-06
 150    1.9488728953068e-06
 151    7.391794983742e-05
 152    1.7500170027039e-06
 153    4.4364472120484e-06
 154    9.9518827547302e-07
 155    -1.928311719708e-06
 156    1.1643393261611e-06
 157    -1.1480899424615e-06
 158    -9.736426328663e-06
 159    3.4903565878309e-05
 160    -4.2247591940897e-06
 161    2.8078771849392e-07
 162    2.0588007775758e-06
 163    2.9513729151858e-05
 164    -2.5281328151679e-05
 165    -1.3246811903002e-05
 166    -2.8134411109984e-06
 167    8.1526560823293e-07
 168    6.1336118311295e-07
 169    -1.624226746409e-06
 170    -3.2566133158328e-07
 171    9.4487159015049e-07
 172    1.5524169573164e-05
 173    -3.0967312082922e-05
 174    3.6760116992797e-06
 175    -3.4505748892716e-07
 176    -9.3340418487967e-06
 177    2.2014462488629e-06
 178    1.3823525665976e-05
 179    2.8898311058969e-05
 180    -1.6483721524075e-06
 181    -3.5203608215941e-06
 182    -1.0989084884416e-06
 183    3.3517645459565e-07
 184    -5.7095305599305e-07
 185    1.8949951866242e-06
 186    1.4578264707446e-05
 187    -6.0928118150788e-05
 188    5.0181382040765e-07
 189    4.2886770269073e-08
 190    -1.2975927766187e-06
 191    1.843075970785e-05
 192    9.3139826169731e-06
 193    4.4759269034231e-05
 194    -1.493699701749e-06
 195    -1.4375462077264e-06
 196    -1.257547419333e-06
 197    -7.7017106588054e-08
 198    -6.5025784069163e-07
 199    3.503034277532e-06
 200    -4.7691889397929e-06
 201    2.909865896032e-06
 202    -6.2121738405153e-06
 203    5.7250051185946e-06
 204    -1.2826214785785e-05
 205    3.4942635035876e-06
 206    2.4100966138766e-05
 207    -7.3965403977525e-06
 208    5.4465003931839e-05
 209    -8.491553475581e-06
 210    1.4189264911906e-05
 211    -4.557110603601e-06
 212    -8.5112602126323e-06
 213    6.1931424488413e-07
 214    1.5875822991543e-05
 215    3.6232884608344e-07
 216    4.532367577295e-05
 217    -2.7601973404126e-07
 218    -1.192816829359e-05
 219    1.7078220185125e-06
 220    6.6336740832427e-06
 221    5.1202247496027e-06
 222    5.8376904520483e-05
 223    -0.00089262454153918
 224    2.1075679958535e-05
 225    3.9102355422259e-06
 226    6.5612921906542e-06
 227    -0.00065937560008597
 228    -0.00021823043072409
 229    0.00036366123113219
 230    -3.6067461843614e-06
 231    2.6873744493841e-05
 232    1.1859614539961e-05
 233    -1.6031519358553e-05
 234    -1.528864133589e-05
 235    2.1906735746836e-05
 236    6.2681133014544e-05
 237    -0.00047067145502565
 238    1.9935401387376e-05
 239    2.7618012861786e-06
 240    1.2814981751245e-05
 241    -0.00016536953444606
 242    -0.00038304256879918
 243    0.0016274587649595
 244    -2.8346347918692e-05
 245    -6.0727946911211e-05
 246    1.5226039823794e-06
 247    -1.6467699482557e-05
 248    6.8927698590248e-06
 249    8.7972290203535e-06
 250    -0.00031593081314533
 251    4.4932948273129e-06
 252    0.0002486193693727
 253    0.00014311268780577
 254    -8.3556890697917e-05
 255    9.8020006426963e-06
 256    -0.00025905953226385
 257    0.0008738708670233
 258    0.00011028472503113
 259    0.0011299258756949
 260    0.00010340106847679
 261    -1.4395283071881e-05
 262    -1.712781901351e-05
 263    -0.00013284080701452
 264    -6.2546251646744e-05
 265    8.3110864064565e-05
 266    -0.00013248735718305
 267    0.0001485097024535
 268    0.00067673820991789
 269    4.7540118183008e-05
 270    0.00027969557848487
 271    -0.0036967932737331
 272    6.9478645730964e-05
 273    2.5084073116424e-05
 274    -3.5882103972182e-05
 275      0.00123095388315
 276    0.00053167546078096
 277    -0.002093569776882
 278    -9.2924257203527e-05
 279    8.9635906048024e-05
 280    5.1568858239652e-05
 281    -4.9011105551357e-05