[Molden Format]
made by pyscf v[2.0.1]
[Atoms] (AU)
C   1   6     0.69100024066471     0.64692934207205    -3.48223131169301
H   2   1     2.68052439830868     1.13355088658700    -3.25784032593313
C   3   6    -0.36286361513219     0.85440132524594    -5.97030179418974
H   4   1    -2.35448549047279     0.36322488579172    -6.17995817793143
C   5   6     0.93697958957450     1.61209284601821    -8.05828437677121
H   6   1     1.01317567978386     3.61775130597871    -8.51923024455703
C   7   6     2.23318006711868    -0.09916996805052    -9.71591146992396
H   8   1     2.14101227267567    -2.10272353634710    -9.22908458474476
H   9   1     1.55630230933075    -1.92953025305990    12.99630010416247
C   10   6     0.75233899775814    -2.21270439606481    11.10705728102219
H   11   1    -0.43433408177274    -3.90944857546550    11.22216085340412
C   12   6     2.86362581178706    -2.63237380607947     9.17926416456045
H   13   1     4.39038949912609    -1.24955421540245     9.49899813497433
H   14   1     3.74629220191363    -4.48798724300892     9.47414880959024
C   15   6     2.02478325613682    -2.42177285709634     6.44560829588644
C   16   6     3.88048732735477    -3.58795445234514     4.61402886975252
C   17   6    -0.18412382258602    -1.30464291234259     5.76021113872346
C   18   6    -2.10044360464350    -0.26837831858460     7.71610340967100
C   19   6    -3.08956938670431     2.35282328359417     6.88693925039594
C   20   6    -4.37372924086464    -2.09766595989678     7.93610724222001
C   21   6    -0.83850430601230     0.06372213486173    10.33002307638377
H   22   1     0.38411922151109     1.74281358582432    10.27380136542181
H   23   1    -2.30980003007874     0.45460143924521    11.73986301809809
H   24   1     4.58527064644668    -5.38706904487420     5.36778158031719
H   25   1     5.54944938085014    -2.37631462192748     4.35398898413318
H   26   1     3.06633019150423    -3.94118377050688     2.75255466040884
H   27   1    -4.17727778763735     2.26573369139522     5.12914900961283
H   28   1    -1.52662344944051     3.68001877445626     6.59540397144508
H   29   1    -4.32916174397830     3.13643051467482     8.35225460090378
H   30   1    -5.32329548508442    -2.36691813602939     6.11583672749896
H   31   1    -5.77989366602257    -1.33896741843465     9.25748940450990
H   32   1    -3.79310905208926    -3.96389819310853     8.61386170102686
C   33   6    -1.01100794811226    -1.06331657314144     3.11929490449947
C   34   6     0.37686231036534    -0.33275864505552     1.09165013605873
H   35   1    -3.01671213906703    -1.40297922279997     2.77827895090944
C   36   6    -0.64382707979370    -0.11591880174385    -1.42063131251064
H   37   1     2.35569259782137     0.17174499283897     1.33641070251401
H   38   1    -2.63317482980319    -0.60229203511219    -1.66119700387645
C   39   6     3.54725246111133     0.56802416581284   -11.81467283923754
C   40   6     4.80361465317200    -1.32115012773234   -13.38298311351627
H   41   1     3.71304591439982     2.53035338251259   -12.40589607739641
O   42   8     6.01278787963721    -0.85546385399510   -15.29134904549642
H   43   1     4.58468921437884    -3.30497271823068   -12.70718839688766
[GTO]
1 0
 s    6 1.00
             3047.5249  0.0018347001629433
             457.36951    0.01403730124668
             103.94869   0.068842606114048
             29.210155    0.23218442062076
              9.286663    0.46794134155879
              3.163927    0.36231203217765
 s    3 1.00
             7.8682724   -0.11933240861517
             1.8812885   -0.16085421161283
             0.5442493     1.1434564825515
 s    1 1.00
             0.1687144                   1
 p    3 1.00
             7.8682724   0.068999095584993
             1.8812885    0.31642397975315
             0.5442493    0.74430825237435
 p    1 1.00
             0.1687144                   1
 d    1 1.00
                   0.8                   1

2 0
 s    3 1.00
             18.731137    0.03349459952309
             2.8253937    0.23472694665786
             0.6401217    0.81375731841339
 s    1 1.00
             0.1612778                   1

3 0
 s    6 1.00
             3047.5249  0.0018347001629433
             457.36951    0.01403730124668
             103.94869   0.068842606114048
             29.210155    0.23218442062076
              9.286663    0.46794134155879
              3.163927    0.36231203217765
 s    3 1.00
             7.8682724   -0.11933240861517
             1.8812885   -0.16085421161283
             0.5442493     1.1434564825515
 s    1 1.00
             0.1687144                   1
 p    3 1.00
             7.8682724   0.068999095584993
             1.8812885    0.31642397975315
             0.5442493    0.74430825237435
 p    1 1.00
             0.1687144                   1
 d    1 1.00
                   0.8                   1

4 0
 s    3 1.00
             18.731137    0.03349459952309
             2.8253937    0.23472694665786
             0.6401217    0.81375731841339
 s    1 1.00
             0.1612778                   1

5 0
 s    6 1.00
             3047.5249  0.0018347001629433
             457.36951    0.01403730124668
             103.94869   0.068842606114048
             29.210155    0.23218442062076
              9.286663    0.46794134155879
              3.163927    0.36231203217765
 s    3 1.00
             7.8682724   -0.11933240861517
             1.8812885   -0.16085421161283
             0.5442493     1.1434564825515
 s    1 1.00
             0.1687144                   1
 p    3 1.00
             7.8682724   0.068999095584993
             1.8812885    0.31642397975315
             0.5442493    0.74430825237435
 p    1 1.00
             0.1687144                   1
 d    1 1.00
                   0.8                   1

6 0
 s    3 1.00
             18.731137    0.03349459952309
             2.8253937    0.23472694665786
             0.6401217    0.81375731841339
 s    1 1.00
             0.1612778                   1

7 0
 s    6 1.00
             3047.5249  0.0018347001629433
             457.36951    0.01403730124668
             103.94869   0.068842606114048
             29.210155    0.23218442062076
              9.286663    0.46794134155879
              3.163927    0.36231203217765
 s    3 1.00
             7.8682724   -0.11933240861517
             1.8812885   -0.16085421161283
             0.5442493     1.1434564825515
 s    1 1.00
             0.1687144                   1
 p    3 1.00
             7.8682724   0.068999095584993
             1.8812885    0.31642397975315
             0.5442493    0.74430825237435
 p    1 1.00
             0.1687144                   1
 d    1 1.00
                   0.8                   1

8 0
 s    3 1.00
             18.731137    0.03349459952309
             2.8253937    0.23472694665786
             0.6401217    0.81375731841339
 s    1 1.00
             0.1612778                   1

9 0
 s    3 1.00
             18.731137    0.03349459952309
             2.8253937    0.23472694665786
             0.6401217    0.81375731841339
 s    1 1.00
             0.1612778                   1

10 0
 s    6 1.00
             3047.5249  0.0018347001629433
             457.36951    0.01403730124668
             103.94869   0.068842606114048
             29.210155    0.23218442062076
              9.286663    0.46794134155879
              3.163927    0.36231203217765
 s    3 1.00
             7.8682724   -0.11933240861517
             1.8812885   -0.16085421161283
             0.5442493     1.1434564825515
 s    1 1.00
             0.1687144                   1
 p    3 1.00
             7.8682724   0.068999095584993
             1.8812885    0.31642397975315
             0.5442493    0.74430825237435
 p    1 1.00
             0.1687144                   1
 d    1 1.00
                   0.8                   1

11 0
 s    3 1.00
             18.731137    0.03349459952309
             2.8253937    0.23472694665786
             0.6401217    0.81375731841339
 s    1 1.00
             0.1612778                   1

12 0
 s    6 1.00
             3047.5249  0.0018347001629433
             457.36951    0.01403730124668
             103.94869   0.068842606114048
             29.210155    0.23218442062076
              9.286663    0.46794134155879
              3.163927    0.36231203217765
 s    3 1.00
             7.8682724   -0.11933240861517
             1.8812885   -0.16085421161283
             0.5442493     1.1434564825515
 s    1 1.00
             0.1687144                   1
 p    3 1.00
             7.8682724   0.068999095584993
             1.8812885    0.31642397975315
             0.5442493    0.74430825237435
 p    1 1.00
             0.1687144                   1
 d    1 1.00
                   0.8                   1

13 0
 s    3 1.00
             18.731137    0.03349459952309
             2.8253937    0.23472694665786
             0.6401217    0.81375731841339
 s    1 1.00
             0.1612778                   1

14 0
 s    3 1.00
             18.731137    0.03349459952309
             2.8253937    0.23472694665786
             0.6401217    0.81375731841339
 s    1 1.00
             0.1612778                   1

15 0
 s    6 1.00
             3047.5249  0.0018347001629433
             457.36951    0.01403730124668
             103.94869   0.068842606114048
             29.210155    0.23218442062076
              9.286663    0.46794134155879
              3.163927    0.36231203217765
 s    3 1.00
             7.8682724   -0.11933240861517
             1.8812885   -0.16085421161283
             0.5442493     1.1434564825515
 s    1 1.00
             0.1687144                   1
 p    3 1.00
             7.8682724   0.068999095584993
             1.8812885    0.31642397975315
             0.5442493    0.74430825237435
 p    1 1.00
             0.1687144                   1
 d    1 1.00
                   0.8                   1

16 0
 s    6 1.00
             3047.5249  0.0018347001629433
             457.36951    0.01403730124668
             103.94869   0.068842606114048
             29.210155    0.23218442062076
              9.286663    0.46794134155879
              3.163927    0.36231203217765
 s    3 1.00
             7.8682724   -0.11933240861517
             1.8812885   -0.16085421161283
             0.5442493     1.1434564825515
 s    1 1.00
             0.1687144                   1
 p    3 1.00
             7.8682724   0.068999095584993
             1.8812885    0.31642397975315
             0.5442493    0.74430825237435
 p    1 1.00
             0.1687144                   1
 d    1 1.00
                   0.8                   1

17 0
 s    6 1.00
             3047.5249  0.0018347001629433
             457.36951    0.01403730124668
             103.94869   0.068842606114048
             29.210155    0.23218442062076
              9.286663    0.46794134155879
              3.163927    0.36231203217765
 s    3 1.00
             7.8682724   -0.11933240861517
             1.8812885   -0.16085421161283
             0.5442493     1.1434564825515
 s    1 1.00
             0.1687144                   1
 p    3 1.00
             7.8682724   0.068999095584993
             1.8812885    0.31642397975315
             0.5442493    0.74430825237435
 p    1 1.00
             0.1687144                   1
 d    1 1.00
                   0.8                   1

18 0
 s    6 1.00
             3047.5249  0.0018347001629433
             457.36951    0.01403730124668
             103.94869   0.068842606114048
             29.210155    0.23218442062076
              9.286663    0.46794134155879
              3.163927    0.36231203217765
 s    3 1.00
             7.8682724   -0.11933240861517
             1.8812885   -0.16085421161283
             0.5442493     1.1434564825515
 s    1 1.00
             0.1687144                   1
 p    3 1.00
             7.8682724   0.068999095584993
             1.8812885    0.31642397975315
             0.5442493    0.74430825237435
 p    1 1.00
             0.1687144                   1
 d    1 1.00
                   0.8                   1

19 0
 s    6 1.00
             3047.5249  0.0018347001629433
             457.36951    0.01403730124668
             103.94869   0.068842606114048
             29.210155    0.23218442062076
              9.286663    0.46794134155879
              3.163927    0.36231203217765
 s    3 1.00
             7.8682724   -0.11933240861517
             1.8812885   -0.16085421161283
             0.5442493     1.1434564825515
 s    1 1.00
             0.1687144                   1
 p    3 1.00
             7.8682724   0.068999095584993
             1.8812885    0.31642397975315
             0.5442493    0.74430825237435
 p    1 1.00
             0.1687144                   1
 d    1 1.00
                   0.8                   1

20 0
 s    6 1.00
             3047.5249  0.0018347001629433
             457.36951    0.01403730124668
             103.94869   0.068842606114048
             29.210155    0.23218442062076
              9.286663    0.46794134155879
              3.163927    0.36231203217765
 s    3 1.00
             7.8682724   -0.11933240861517
             1.8812885   -0.16085421161283
             0.5442493     1.1434564825515
 s    1 1.00
             0.1687144                   1
 p    3 1.00
             7.8682724   0.068999095584993
             1.8812885    0.31642397975315
             0.5442493    0.74430825237435
 p    1 1.00
             0.1687144                   1
 d    1 1.00
                   0.8                   1

21 0
 s    6 1.00
             3047.5249  0.0018347001629433
             457.36951    0.01403730124668
             103.94869   0.068842606114048
             29.210155    0.23218442062076
              9.286663    0.46794134155879
              3.163927    0.36231203217765
 s    3 1.00
             7.8682724   -0.11933240861517
             1.8812885   -0.16085421161283
             0.5442493     1.1434564825515
 s    1 1.00
             0.1687144                   1
 p    3 1.00
             7.8682724   0.068999095584993
             1.8812885    0.31642397975315
             0.5442493    0.74430825237435
 p    1 1.00
             0.1687144                   1
 d    1 1.00
                   0.8                   1

22 0
 s    3 1.00
             18.731137    0.03349459952309
             2.8253937    0.23472694665786
             0.6401217    0.81375731841339
 s    1 1.00
             0.1612778                   1

23 0
 s    3 1.00
             18.731137    0.03349459952309
             2.8253937    0.23472694665786
             0.6401217    0.81375731841339
 s    1 1.00
             0.1612778                   1

24 0
 s    3 1.00
             18.731137    0.03349459952309
             2.8253937    0.23472694665786
             0.6401217    0.81375731841339
 s    1 1.00
             0.1612778                   1

25 0
 s    3 1.00
             18.731137    0.03349459952309
             2.8253937    0.23472694665786
             0.6401217    0.81375731841339
 s    1 1.00
             0.1612778                   1

26 0
 s    3 1.00
             18.731137    0.03349459952309
             2.8253937    0.23472694665786
             0.6401217    0.81375731841339
 s    1 1.00
             0.1612778                   1

27 0
 s    3 1.00
             18.731137    0.03349459952309
             2.8253937    0.23472694665786
             0.6401217    0.81375731841339
 s    1 1.00
             0.1612778                   1

28 0
 s    3 1.00
             18.731137    0.03349459952309
             2.8253937    0.23472694665786
             0.6401217    0.81375731841339
 s    1 1.00
             0.1612778                   1

29 0
 s    3 1.00
             18.731137    0.03349459952309
             2.8253937    0.23472694665786
             0.6401217    0.81375731841339
 s    1 1.00
             0.1612778                   1

30 0
 s    3 1.00
             18.731137    0.03349459952309
             2.8253937    0.23472694665786
             0.6401217    0.81375731841339
 s    1 1.00
             0.1612778                   1

31 0
 s    3 1.00
             18.731137    0.03349459952309
             2.8253937    0.23472694665786
             0.6401217    0.81375731841339
 s    1 1.00
             0.1612778                   1

32 0
 s    3 1.00
             18.731137    0.03349459952309
             2.8253937    0.23472694665786
             0.6401217    0.81375731841339
 s    1 1.00
             0.1612778                   1

33 0
 s    6 1.00
             3047.5249  0.0018347001629433
             457.36951    0.01403730124668
             103.94869   0.068842606114048
             29.210155    0.23218442062076
              9.286663    0.46794134155879
              3.163927    0.36231203217765
 s    3 1.00
             7.8682724   -0.11933240861517
             1.8812885   -0.16085421161283
             0.5442493     1.1434564825515
 s    1 1.00
             0.1687144                   1
 p    3 1.00
             7.8682724   0.068999095584993
             1.8812885    0.31642397975315
             0.5442493    0.74430825237435
 p    1 1.00
             0.1687144                   1
 d    1 1.00
                   0.8                   1

34 0
 s    6 1.00
             3047.5249  0.0018347001629433
             457.36951    0.01403730124668
             103.94869   0.068842606114048
             29.210155    0.23218442062076
              9.286663    0.46794134155879
              3.163927    0.36231203217765
 s    3 1.00
             7.8682724   -0.11933240861517
             1.8812885   -0.16085421161283
             0.5442493     1.1434564825515
 s    1 1.00
             0.1687144                   1
 p    3 1.00
             7.8682724   0.068999095584993
             1.8812885    0.31642397975315
             0.5442493    0.74430825237435
 p    1 1.00
             0.1687144                   1
 d    1 1.00
                   0.8                   1

35 0
 s    3 1.00
             18.731137    0.03349459952309
             2.8253937    0.23472694665786
             0.6401217    0.81375731841339
 s    1 1.00
             0.1612778                   1

36 0
 s    6 1.00
             3047.5249  0.0018347001629433
             457.36951    0.01403730124668
             103.94869   0.068842606114048
             29.210155    0.23218442062076
              9.286663    0.46794134155879
              3.163927    0.36231203217765
 s    3 1.00
             7.8682724   -0.11933240861517
             1.8812885   -0.16085421161283
             0.5442493     1.1434564825515
 s    1 1.00
             0.1687144                   1
 p    3 1.00
             7.8682724   0.068999095584993
             1.8812885    0.31642397975315
             0.5442493    0.74430825237435
 p    1 1.00
             0.1687144                   1
 d    1 1.00
                   0.8                   1

37 0
 s    3 1.00
             18.731137    0.03349459952309
             2.8253937    0.23472694665786
             0.6401217    0.81375731841339
 s    1 1.00
             0.1612778                   1

38 0
 s    3 1.00
             18.731137    0.03349459952309
             2.8253937    0.23472694665786
             0.6401217    0.81375731841339
 s    1 1.00
             0.1612778                   1

39 0
 s    6 1.00
             3047.5249  0.0018347001629433
             457.36951    0.01403730124668
             103.94869   0.068842606114048
             29.210155    0.23218442062076
              9.286663    0.46794134155879
              3.163927    0.36231203217765
 s    3 1.00
             7.8682724   -0.11933240861517
             1.8812885   -0.16085421161283
             0.5442493     1.1434564825515
 s    1 1.00
             0.1687144                   1
 p    3 1.00
             7.8682724   0.068999095584993
             1.8812885    0.31642397975315
             0.5442493    0.74430825237435
 p    1 1.00
             0.1687144                   1
 d    1 1.00
                   0.8                   1

40 0
 s    6 1.00
             3047.5249  0.0018347001629433
             457.36951    0.01403730124668
             103.94869   0.068842606114048
             29.210155    0.23218442062076
              9.286663    0.46794134155879
              3.163927    0.36231203217765
 s    3 1.00
             7.8682724   -0.11933240861517
             1.8812885   -0.16085421161283
             0.5442493     1.1434564825515
 s    1 1.00
             0.1687144                   1
 p    3 1.00
             7.8682724   0.068999095584993
             1.8812885    0.31642397975315
             0.5442493    0.74430825237435
 p    1 1.00
             0.1687144                   1
 d    1 1.00
                   0.8                   1

41 0
 s    3 1.00
             18.731137    0.03349459952309
             2.8253937    0.23472694665786
             0.6401217    0.81375731841339
 s    1 1.00
             0.1612778                   1

42 0
 s    6 1.00
             5484.6717   0.001831099805527
             825.23495   0.013950098518422
             188.04696    0.06844509273075
               52.9645    0.23271427528445
              16.89757    0.47019295006289
             5.7996353    0.35852086192309
 s    3 1.00
             15.539616   -0.11077750382508
             3.5999336   -0.14802630511126
             1.0137618     1.1307670390447
 s    1 1.00
             0.2700058                   1
 p    3 1.00
             15.539616   0.070874299543311
             3.5999336    0.33975279781076
             1.0137618    0.72715859531445
 p    1 1.00
             0.2700058                   1
 d    1 1.00
                   0.8                   1

43 0
 s    3 1.00
             18.731137    0.03349459952309
             2.8253937    0.23472694665786
             0.6401217    0.81375731841339
 s    1 1.00
             0.1612778                   1

[5d]
[7f]
[9g]

[MO]
 Sym= A
 Ene=               0
 Spin= Alpha
 Occup=    1.00000
   1     -0.01549247727822
   2    0.0011991129602199
   3    -0.0077704320448633
   4    -0.00043673966073148
   5    0.00014810525717346
   6    -0.0013428842009683
   7    -0.00088332885706338
   8    -0.0013931761737863
   9     0.006089193216028
  10    0.00099525984036007
  11    0.00095816522493269
  12    -0.00015815561984605
  13    0.00021728731922946
  14    -5.2029957587465e-05
  15    0.00054090846072242
  16    0.0010026051959935
  17     -0.99474046534128
  18    -0.039365601801534
  19       0.0314892592969
  20    -0.0010450689242089
  21    -0.00018872232830332
  22    0.00065899892391732
  23    0.0040388806681764
  24    0.0012032162857172
  25    0.00084749772740139
  26    -0.00080610042450005
  27    0.00032627894412693
  28    0.00035766304247193
  29    -0.00028292975610039
  30    -0.00018923415337537
  31    0.0012979087221385
  32    -0.0042095188834546
  33    -0.012064252030856
  34    0.00041868337622931
  35    -0.0012262651627122
  36    -0.00096535767861149
  37    -0.00037732642392147
  38    0.0013002250789831
  39    0.0026051494649856
  40    -0.0038176703556619
  41    -0.0045506965966472
  42    0.00068162437215159
  43    -0.0013262563126372
  44    -0.00052573898731211
  45    0.00038544786401475
  46    0.00042449211334806
  47    0.00060772375815234
  48    0.00064580784297874
  49    0.00035365405403433
  50    0.00060111358447939
  51    -0.00026434468218609
  52    -0.0002756515266774
  53    -2.532091806058e-05
  54    0.0004442827186755
  55    0.0053124235136899
  56    -0.001222960537963
  57    -0.0076769236710064
  58    0.00016832274173075
  59    1.2315679430189e-05
  60    -0.00017458085278192
  61    0.00026508321116447
  62    0.00020734837798396
  63    0.00052096004136293
  64    -0.00027993609277854
  65    2.9783035223113e-06
  66    4.7945258024454e-06
  67    1.4556913809579e-07
  68    1.3115467361817e-06
  69    -6.9787645686554e-06
  70    -2.6018636392815e-06
  71    5.1047362714284e-06
  72    3.6973507726915e-07
  73    -1.4768919850521e-05
  74    -2.7205069967303e-05
  75    -1.043294446675e-05
  76    1.1666146877988e-07
  77    3.5457222432642e-07
  78    -3.6029637839545e-07
  79    -6.2743072996993e-07
  80    3.0393664232486e-08
  81    -2.6482315312537e-06
  82    -1.3784597051728e-05
  83    -1.9719470967139e-07
  84    -1.6732809775507e-06
  85    7.0869849955456e-05
  86    -3.6648559640456e-06
  87    -3.2354179128494e-06
  88    -5.4525950436674e-06
  89    -2.5757879965648e-05
  90    6.9770120198155e-05
  91    -7.3907286171163e-06
  92    -1.7671974048696e-06
  93    3.0435056983195e-06
  94    -4.0232777839866e-06
  95    8.6809719674079e-07
  96    1.213685015561e-06
  97    -7.0023771371729e-06
  98    -1.2109189395913e-05
  99    3.3981024130372e-06
 100    2.0102985835489e-05
 101    1.1173602352272e-06
 102    1.2972402734635e-05
 103    -0.00025376124405161
 104    5.4378940129862e-07
 105    6.3120925594788e-06
 106    3.6639379754502e-06
 107    0.00020577091309245
 108    -0.00020222554706222
 109    -0.00014517284960161
 110    6.4315709128014e-06
 111    7.0555247791399e-09
 112    2.1542609684761e-08
 113    -1.433429141263e-06
 114    5.9063517819399e-06
 115    3.504648840976e-06
 116    3.5338566080392e-05
 117    -0.00025382143351797
 118    2.4923321780662e-06
 119    -3.0167785314259e-06
 120    -5.7843383958983e-06
 121    5.2290833001036e-05
 122    -1.1643943111672e-05
 123    -3.2031127830463e-05
 124    -1.7225913556743e-06
 125    3.0692377259781e-06
 126    2.6759946458725e-06
 127    -5.9299635789632e-07
 128    2.4163912317845e-06
 129    5.7819301649111e-06
 130    5.6138707005338e-05
 131    -0.00015561179754248
 132    -6.3269503723495e-06
 133    4.8249739546278e-06
 134    -2.371959452693e-05
 135    0.00038196302910753
 136    -4.3785032315075e-05
 137    0.00043083271724584
 138    -9.7148898166121e-06
 139    -1.431789986593e-05
 140    -6.4798854573439e-06
 141    -4.9578588798305e-06
 142    -7.6150265380846e-06
 143    2.215850980078e-06
 144    2.8457556962486e-05
 145    -2.6030958027202e-05
 146    -2.7848703006807e-06
 147    -6.2802592910104e-06
 148    -1.3494564677208e-05
 149    -1.3307309196656e-05
 150    -3.044855443534e-06
 151    6.9616178914676e-05
 152    7.4137928584787e-06
 153    4.1693045032388e-06
 154    3.4278048727459e-06
 155    -4.482467670382e-06
 156    4.295125679243e-06
 157    -1.6826791190133e-06
 158    -1.4128261712587e-05
 159    4.1333532443189e-05
 160    -6.3601005822538e-06
 161    5.1414512962994e-08
 162    2.051304120064e-06
 163    5.3985036403508e-05
 164    -2.7233292962695e-05
 165    -1.1751245377913e-05
 166    -4.6863122432529e-06
 167    6.9084513036656e-07
 168    2.4487066844565e-07
 169    -9.5543456507087e-07
 170    -2.0661484197307e-06
 171    5.329156596687e-07
 172    1.3407820814864e-05
 173    -2.5182416883579e-05
 174    4.376230870415e-06
 175     2.94946346581e-07
 176    -1.2140208725395e-05
 177    9.6574159044218e-08
 178    2.1422824119744e-06
 179    2.8411617285657e-05
 180    -1.7003933633888e-06
 181    -5.1832961106154e-06
 182    -8.7569707026284e-07
 183    1.2353413976306e-06
 184    -1.7918106258995e-06
 185    3.6334760035849e-06
 186    3.1620650511849e-05
 187    -9.3795319391864e-05
 188    2.7401932161826e-06
 189    -7.1080259123325e-07
 190    -5.5074525570328e-06
 191    2.9576291053946e-06
 192    1.5462182884187e-05
 193    7.8405510035652e-05
 194    -3.5977356500845e-06
 195    -1.8544695385809e-06
 196    -2.9845609377651e-06
 197    3.8432099295252e-07
 198    -4.6727151888105e-07
 199    8.3952458244413e-06
 200    -1.6244399136052e-07
 201    2.3089552727813e-06
 202    -2.2038834800664e-05
 203    1.1796124865486e-05
 204    5.6040423539077e-06
 205    9.6640382908477e-07
 206    3.029108670106e-05
 207    -1.0864114429637e-05
 208    6.7696863836587e-05
 209    -1.2079647769676e-05
 210    2.8042996733522e-05
 211    -6.7437953251234e-06
 212    -1.8814302407956e-05
 213    7.8162291189806e-07
 214    2.3343241397465e-05
 215    3.2514297057929e-06
 216    2.9845262883173e-05
 217    -1.7595543690214e-06
 218    -9.9445062986804e-06
 219    -5.3846625072802e-07
 220    2.0492846659464e-06
 221    9.3579876154352e-06
 222    9.3884176472991e-05
 223    -0.00094628615507676
 224    1.3234551475546e-05
 225    5.8466487349107e-06
 226    -1.1887313994099e-05
 227    -0.00068140517194061
 228    -0.00032238268051932
 229    0.00098188221410389
 230    -2.9731366033691e-06
 231    4.6568008711445e-05
 232    2.3370406326326e-05
 233    -2.3163129279354e-05
 234    -2.4004640123461e-05
 235    1.5831094531086e-05
 236    3.8732710631519e-05
 237    0.00025978809477244
 238    2.2364867039717e-05
 239    3.4997460437067e-06
 240    -1.1903565238869e-05
 241    -0.00031273203489183
 242    -0.00036514339969761
 243    0.0016245708933037
 244    -1.0019415594864e-05
 245    -7.5870167310328e-05
 246    -1.4646757974869e-05
 247    -1.9799863859881e-05
 248    2.1434735742956e-06
 249    3.5680909376972e-05
 250    -0.00032603138345636
 251    2.7695347933792e-05
 252    0.00041996770683726
 253    -0.002232140686938
 254    -8.3603258439051e-05
 255    3.0131396859304e-05
 256    -0.00023367876255202
 257    2.9341808784936e-06
 258    -0.00042040211377386
 259      0.00185516478975
 260    6.925308484143e-05
 261    2.2081320058036e-05
 262    1.736900738965e-05
 263    -0.00014911689406828
 264    -9.1640233229302e-05
 265    9.6947522096341e-05
 266    -0.00021570648554628
 267    0.00014441786871836
 268    0.00054549239353927
 269    8.306767455009e-05
 270    0.00055499689914874
 271    -0.0073281265432782
 272    8.4914978967972e-05
 273    -0.00012058396987104
 274    -0.00013031620002907
 275    0.0016812699776428
 276    0.0030051873606697
 277    -0.0029437990589671
 278    -8.958900109271e-05
 279    0.00019178713586925
 280    0.00010470929905266
 281    3.2818653673758e-05