[Molden Format]
made by pyscf v[2.0.1]
[Atoms] (AU)
C   1   6     0.69100024066471     0.64692934207205    -3.48223131169301
H   2   1     2.68052439830868     1.13355088658700    -3.25784032593313
C   3   6    -0.36286361513219     0.85440132524594    -5.97030179418974
H   4   1    -2.35448549047279     0.36322488579172    -6.17995817793143
C   5   6     0.93697958957450     1.61209284601821    -8.05828437677121
H   6   1     2.50035468987728     2.93484935641869    -7.84122146962088
C   7   6     0.36255105159660     0.76050131278393   -10.56848504450332
H   8   1    -1.20802221204617    -0.56532983436663   -10.75608465244450
H   9   1     1.55630230933075    -1.92953025305990    12.99630010416247
C   10   6     0.75233899775814    -2.21270439606481    11.10705728102219
H   11   1    -0.43433408177274    -3.90944857546550    11.22216085340412
C   12   6     2.86362581178706    -2.63237380607947     9.17926416456045
H   13   1     4.39038949912609    -1.24955421540245     9.49899813497433
H   14   1     3.74629220191363    -4.48798724300892     9.47414880959024
C   15   6     2.02478325613682    -2.42177285709634     6.44560829588644
C   16   6     3.88048732735477    -3.58795445234514     4.61402886975252
C   17   6    -0.18412382258602    -1.30464291234259     5.76021113872346
C   18   6    -2.10044360464350    -0.26837831858460     7.71610340967100
C   19   6    -3.08956938670431     2.35282328359417     6.88693925039594
C   20   6    -4.37372924086464    -2.09766595989678     7.93610724222001
C   21   6    -0.83850430601230     0.06372213486173    10.33002307638377
H   22   1     0.38411922151109     1.74281358582432    10.27380136542181
H   23   1    -2.30980003007874     0.45460143924521    11.73986301809809
H   24   1     4.58527064644668    -5.38706904487420     5.36778158031719
H   25   1     5.54944938085014    -2.37631462192748     4.35398898413318
H   26   1     3.06633019150423    -3.94118377050688     2.75255466040884
H   27   1    -4.17727778763735     2.26573369139522     5.12914900961283
H   28   1    -1.52662344944051     3.68001877445626     6.59540397144508
H   29   1    -4.32916174397830     3.13643051467482     8.35225460090378
H   30   1    -5.32329548508442    -2.36691813602939     6.11583672749896
H   31   1    -5.77989366602257    -1.33896741843465     9.25748940450990
H   32   1    -3.79310905208926    -3.96389819310853     8.61386170102686
C   33   6    -1.01100794811226    -1.06331657314144     3.11929490449947
C   34   6     0.37686231036534    -0.33275864505552     1.09165013605873
H   35   1    -3.01671213906703    -1.40297922279997     2.77827895090944
C   36   6    -0.64382707979370    -0.11591880174385    -1.42063131251064
H   37   1     2.35569259782137     0.17174499283897     1.33641070251401
H   38   1    -2.63317482980319    -0.60229203511219    -1.66119700387645
C   39   6     1.60144441070444     1.46482489722556   -12.70057441592292
C   40   6     0.86980516734608     0.48994136718256   -15.17470632539007
H   41   1     3.18180515535191     2.77908821383906   -12.64635086980665
O   42   8     1.89724046327418     1.04291297454121   -17.16453627851552
H   43   1    -0.75645459108880    -0.84958730954869   -15.14122439828819
[GTO]
1 0
 s    6 1.00
             3047.5249  0.0018347001629433
             457.36951    0.01403730124668
             103.94869   0.068842606114048
             29.210155    0.23218442062076
              9.286663    0.46794134155879
              3.163927    0.36231203217765
 s    3 1.00
             7.8682724   -0.11933240861517
             1.8812885   -0.16085421161283
             0.5442493     1.1434564825515
 s    1 1.00
             0.1687144                   1
 p    3 1.00
             7.8682724   0.068999095584993
             1.8812885    0.31642397975315
             0.5442493    0.74430825237435
 p    1 1.00
             0.1687144                   1
 d    1 1.00
                   0.8                   1

2 0
 s    3 1.00
             18.731137    0.03349459952309
             2.8253937    0.23472694665786
             0.6401217    0.81375731841339
 s    1 1.00
             0.1612778                   1

3 0
 s    6 1.00
             3047.5249  0.0018347001629433
             457.36951    0.01403730124668
             103.94869   0.068842606114048
             29.210155    0.23218442062076
              9.286663    0.46794134155879
              3.163927    0.36231203217765
 s    3 1.00
             7.8682724   -0.11933240861517
             1.8812885   -0.16085421161283
             0.5442493     1.1434564825515
 s    1 1.00
             0.1687144                   1
 p    3 1.00
             7.8682724   0.068999095584993
             1.8812885    0.31642397975315
             0.5442493    0.74430825237435
 p    1 1.00
             0.1687144                   1
 d    1 1.00
                   0.8                   1

4 0
 s    3 1.00
             18.731137    0.03349459952309
             2.8253937    0.23472694665786
             0.6401217    0.81375731841339
 s    1 1.00
             0.1612778                   1

5 0
 s    6 1.00
             3047.5249  0.0018347001629433
             457.36951    0.01403730124668
             103.94869   0.068842606114048
             29.210155    0.23218442062076
              9.286663    0.46794134155879
              3.163927    0.36231203217765
 s    3 1.00
             7.8682724   -0.11933240861517
             1.8812885   -0.16085421161283
             0.5442493     1.1434564825515
 s    1 1.00
             0.1687144                   1
 p    3 1.00
             7.8682724   0.068999095584993
             1.8812885    0.31642397975315
             0.5442493    0.74430825237435
 p    1 1.00
             0.1687144                   1
 d    1 1.00
                   0.8                   1

6 0
 s    3 1.00
             18.731137    0.03349459952309
             2.8253937    0.23472694665786
             0.6401217    0.81375731841339
 s    1 1.00
             0.1612778                   1

7 0
 s    6 1.00
             3047.5249  0.0018347001629433
             457.36951    0.01403730124668
             103.94869   0.068842606114048
             29.210155    0.23218442062076
              9.286663    0.46794134155879
              3.163927    0.36231203217765
 s    3 1.00
             7.8682724   -0.11933240861517
             1.8812885   -0.16085421161283
             0.5442493     1.1434564825515
 s    1 1.00
             0.1687144                   1
 p    3 1.00
             7.8682724   0.068999095584993
             1.8812885    0.31642397975315
             0.5442493    0.74430825237435
 p    1 1.00
             0.1687144                   1
 d    1 1.00
                   0.8                   1

8 0
 s    3 1.00
             18.731137    0.03349459952309
             2.8253937    0.23472694665786
             0.6401217    0.81375731841339
 s    1 1.00
             0.1612778                   1

9 0
 s    3 1.00
             18.731137    0.03349459952309
             2.8253937    0.23472694665786
             0.6401217    0.81375731841339
 s    1 1.00
             0.1612778                   1

10 0
 s    6 1.00
             3047.5249  0.0018347001629433
             457.36951    0.01403730124668
             103.94869   0.068842606114048
             29.210155    0.23218442062076
              9.286663    0.46794134155879
              3.163927    0.36231203217765
 s    3 1.00
             7.8682724   -0.11933240861517
             1.8812885   -0.16085421161283
             0.5442493     1.1434564825515
 s    1 1.00
             0.1687144                   1
 p    3 1.00
             7.8682724   0.068999095584993
             1.8812885    0.31642397975315
             0.5442493    0.74430825237435
 p    1 1.00
             0.1687144                   1
 d    1 1.00
                   0.8                   1

11 0
 s    3 1.00
             18.731137    0.03349459952309
             2.8253937    0.23472694665786
             0.6401217    0.81375731841339
 s    1 1.00
             0.1612778                   1

12 0
 s    6 1.00
             3047.5249  0.0018347001629433
             457.36951    0.01403730124668
             103.94869   0.068842606114048
             29.210155    0.23218442062076
              9.286663    0.46794134155879
              3.163927    0.36231203217765
 s    3 1.00
             7.8682724   -0.11933240861517
             1.8812885   -0.16085421161283
             0.5442493     1.1434564825515
 s    1 1.00
             0.1687144                   1
 p    3 1.00
             7.8682724   0.068999095584993
             1.8812885    0.31642397975315
             0.5442493    0.74430825237435
 p    1 1.00
             0.1687144                   1
 d    1 1.00
                   0.8                   1

13 0
 s    3 1.00
             18.731137    0.03349459952309
             2.8253937    0.23472694665786
             0.6401217    0.81375731841339
 s    1 1.00
             0.1612778                   1

14 0
 s    3 1.00
             18.731137    0.03349459952309
             2.8253937    0.23472694665786
             0.6401217    0.81375731841339
 s    1 1.00
             0.1612778                   1

15 0
 s    6 1.00
             3047.5249  0.0018347001629433
             457.36951    0.01403730124668
             103.94869   0.068842606114048
             29.210155    0.23218442062076
              9.286663    0.46794134155879
              3.163927    0.36231203217765
 s    3 1.00
             7.8682724   -0.11933240861517
             1.8812885   -0.16085421161283
             0.5442493     1.1434564825515
 s    1 1.00
             0.1687144                   1
 p    3 1.00
             7.8682724   0.068999095584993
             1.8812885    0.31642397975315
             0.5442493    0.74430825237435
 p    1 1.00
             0.1687144                   1
 d    1 1.00
                   0.8                   1

16 0
 s    6 1.00
             3047.5249  0.0018347001629433
             457.36951    0.01403730124668
             103.94869   0.068842606114048
             29.210155    0.23218442062076
              9.286663    0.46794134155879
              3.163927    0.36231203217765
 s    3 1.00
             7.8682724   -0.11933240861517
             1.8812885   -0.16085421161283
             0.5442493     1.1434564825515
 s    1 1.00
             0.1687144                   1
 p    3 1.00
             7.8682724   0.068999095584993
             1.8812885    0.31642397975315
             0.5442493    0.74430825237435
 p    1 1.00
             0.1687144                   1
 d    1 1.00
                   0.8                   1

17 0
 s    6 1.00
             3047.5249  0.0018347001629433
             457.36951    0.01403730124668
             103.94869   0.068842606114048
             29.210155    0.23218442062076
              9.286663    0.46794134155879
              3.163927    0.36231203217765
 s    3 1.00
             7.8682724   -0.11933240861517
             1.8812885   -0.16085421161283
             0.5442493     1.1434564825515
 s    1 1.00
             0.1687144                   1
 p    3 1.00
             7.8682724   0.068999095584993
             1.8812885    0.31642397975315
             0.5442493    0.74430825237435
 p    1 1.00
             0.1687144                   1
 d    1 1.00
                   0.8                   1

18 0
 s    6 1.00
             3047.5249  0.0018347001629433
             457.36951    0.01403730124668
             103.94869   0.068842606114048
             29.210155    0.23218442062076
              9.286663    0.46794134155879
              3.163927    0.36231203217765
 s    3 1.00
             7.8682724   -0.11933240861517
             1.8812885   -0.16085421161283
             0.5442493     1.1434564825515
 s    1 1.00
             0.1687144                   1
 p    3 1.00
             7.8682724   0.068999095584993
             1.8812885    0.31642397975315
             0.5442493    0.74430825237435
 p    1 1.00
             0.1687144                   1
 d    1 1.00
                   0.8                   1

19 0
 s    6 1.00
             3047.5249  0.0018347001629433
             457.36951    0.01403730124668
             103.94869   0.068842606114048
             29.210155    0.23218442062076
              9.286663    0.46794134155879
              3.163927    0.36231203217765
 s    3 1.00
             7.8682724   -0.11933240861517
             1.8812885   -0.16085421161283
             0.5442493     1.1434564825515
 s    1 1.00
             0.1687144                   1
 p    3 1.00
             7.8682724   0.068999095584993
             1.8812885    0.31642397975315
             0.5442493    0.74430825237435
 p    1 1.00
             0.1687144                   1
 d    1 1.00
                   0.8                   1

20 0
 s    6 1.00
             3047.5249  0.0018347001629433
             457.36951    0.01403730124668
             103.94869   0.068842606114048
             29.210155    0.23218442062076
              9.286663    0.46794134155879
              3.163927    0.36231203217765
 s    3 1.00
             7.8682724   -0.11933240861517
             1.8812885   -0.16085421161283
             0.5442493     1.1434564825515
 s    1 1.00
             0.1687144                   1
 p    3 1.00
             7.8682724   0.068999095584993
             1.8812885    0.31642397975315
             0.5442493    0.74430825237435
 p    1 1.00
             0.1687144                   1
 d    1 1.00
                   0.8                   1

21 0
 s    6 1.00
             3047.5249  0.0018347001629433
             457.36951    0.01403730124668
             103.94869   0.068842606114048
             29.210155    0.23218442062076
              9.286663    0.46794134155879
              3.163927    0.36231203217765
 s    3 1.00
             7.8682724   -0.11933240861517
             1.8812885   -0.16085421161283
             0.5442493     1.1434564825515
 s    1 1.00
             0.1687144                   1
 p    3 1.00
             7.8682724   0.068999095584993
             1.8812885    0.31642397975315
             0.5442493    0.74430825237435
 p    1 1.00
             0.1687144                   1
 d    1 1.00
                   0.8                   1

22 0
 s    3 1.00
             18.731137    0.03349459952309
             2.8253937    0.23472694665786
             0.6401217    0.81375731841339
 s    1 1.00
             0.1612778                   1

23 0
 s    3 1.00
             18.731137    0.03349459952309
             2.8253937    0.23472694665786
             0.6401217    0.81375731841339
 s    1 1.00
             0.1612778                   1

24 0
 s    3 1.00
             18.731137    0.03349459952309
             2.8253937    0.23472694665786
             0.6401217    0.81375731841339
 s    1 1.00
             0.1612778                   1

25 0
 s    3 1.00
             18.731137    0.03349459952309
             2.8253937    0.23472694665786
             0.6401217    0.81375731841339
 s    1 1.00
             0.1612778                   1

26 0
 s    3 1.00
             18.731137    0.03349459952309
             2.8253937    0.23472694665786
             0.6401217    0.81375731841339
 s    1 1.00
             0.1612778                   1

27 0
 s    3 1.00
             18.731137    0.03349459952309
             2.8253937    0.23472694665786
             0.6401217    0.81375731841339
 s    1 1.00
             0.1612778                   1

28 0
 s    3 1.00
             18.731137    0.03349459952309
             2.8253937    0.23472694665786
             0.6401217    0.81375731841339
 s    1 1.00
             0.1612778                   1

29 0
 s    3 1.00
             18.731137    0.03349459952309
             2.8253937    0.23472694665786
             0.6401217    0.81375731841339
 s    1 1.00
             0.1612778                   1

30 0
 s    3 1.00
             18.731137    0.03349459952309
             2.8253937    0.23472694665786
             0.6401217    0.81375731841339
 s    1 1.00
             0.1612778                   1

31 0
 s    3 1.00
             18.731137    0.03349459952309
             2.8253937    0.23472694665786
             0.6401217    0.81375731841339
 s    1 1.00
             0.1612778                   1

32 0
 s    3 1.00
             18.731137    0.03349459952309
             2.8253937    0.23472694665786
             0.6401217    0.81375731841339
 s    1 1.00
             0.1612778                   1

33 0
 s    6 1.00
             3047.5249  0.0018347001629433
             457.36951    0.01403730124668
             103.94869   0.068842606114048
             29.210155    0.23218442062076
              9.286663    0.46794134155879
              3.163927    0.36231203217765
 s    3 1.00
             7.8682724   -0.11933240861517
             1.8812885   -0.16085421161283
             0.5442493     1.1434564825515
 s    1 1.00
             0.1687144                   1
 p    3 1.00
             7.8682724   0.068999095584993
             1.8812885    0.31642397975315
             0.5442493    0.74430825237435
 p    1 1.00
             0.1687144                   1
 d    1 1.00
                   0.8                   1

34 0
 s    6 1.00
             3047.5249  0.0018347001629433
             457.36951    0.01403730124668
             103.94869   0.068842606114048
             29.210155    0.23218442062076
              9.286663    0.46794134155879
              3.163927    0.36231203217765
 s    3 1.00
             7.8682724   -0.11933240861517
             1.8812885   -0.16085421161283
             0.5442493     1.1434564825515
 s    1 1.00
             0.1687144                   1
 p    3 1.00
             7.8682724   0.068999095584993
             1.8812885    0.31642397975315
             0.5442493    0.74430825237435
 p    1 1.00
             0.1687144                   1
 d    1 1.00
                   0.8                   1

35 0
 s    3 1.00
             18.731137    0.03349459952309
             2.8253937    0.23472694665786
             0.6401217    0.81375731841339
 s    1 1.00
             0.1612778                   1

36 0
 s    6 1.00
             3047.5249  0.0018347001629433
             457.36951    0.01403730124668
             103.94869   0.068842606114048
             29.210155    0.23218442062076
              9.286663    0.46794134155879
              3.163927    0.36231203217765
 s    3 1.00
             7.8682724   -0.11933240861517
             1.8812885   -0.16085421161283
             0.5442493     1.1434564825515
 s    1 1.00
             0.1687144                   1
 p    3 1.00
             7.8682724   0.068999095584993
             1.8812885    0.31642397975315
             0.5442493    0.74430825237435
 p    1 1.00
             0.1687144                   1
 d    1 1.00
                   0.8                   1

37 0
 s    3 1.00
             18.731137    0.03349459952309
             2.8253937    0.23472694665786
             0.6401217    0.81375731841339
 s    1 1.00
             0.1612778                   1

38 0
 s    3 1.00
             18.731137    0.03349459952309
             2.8253937    0.23472694665786
             0.6401217    0.81375731841339
 s    1 1.00
             0.1612778                   1

39 0
 s    6 1.00
             3047.5249  0.0018347001629433
             457.36951    0.01403730124668
             103.94869   0.068842606114048
             29.210155    0.23218442062076
              9.286663    0.46794134155879
              3.163927    0.36231203217765
 s    3 1.00
             7.8682724   -0.11933240861517
             1.8812885   -0.16085421161283
             0.5442493     1.1434564825515
 s    1 1.00
             0.1687144                   1
 p    3 1.00
             7.8682724   0.068999095584993
             1.8812885    0.31642397975315
             0.5442493    0.74430825237435
 p    1 1.00
             0.1687144                   1
 d    1 1.00
                   0.8                   1

40 0
 s    6 1.00
             3047.5249  0.0018347001629433
             457.36951    0.01403730124668
             103.94869   0.068842606114048
             29.210155    0.23218442062076
              9.286663    0.46794134155879
              3.163927    0.36231203217765
 s    3 1.00
             7.8682724   -0.11933240861517
             1.8812885   -0.16085421161283
             0.5442493     1.1434564825515
 s    1 1.00
             0.1687144                   1
 p    3 1.00
             7.8682724   0.068999095584993
             1.8812885    0.31642397975315
             0.5442493    0.74430825237435
 p    1 1.00
             0.1687144                   1
 d    1 1.00
                   0.8                   1

41 0
 s    3 1.00
             18.731137    0.03349459952309
             2.8253937    0.23472694665786
             0.6401217    0.81375731841339
 s    1 1.00
             0.1612778                   1

42 0
 s    6 1.00
             5484.6717   0.001831099805527
             825.23495   0.013950098518422
             188.04696    0.06844509273075
               52.9645    0.23271427528445
              16.89757    0.47019295006289
             5.7996353    0.35852086192309
 s    3 1.00
             15.539616   -0.11077750382508
             3.5999336   -0.14802630511126
             1.0137618     1.1307670390447
 s    1 1.00
             0.2700058                   1
 p    3 1.00
             15.539616   0.070874299543311
             3.5999336    0.33975279781076
             1.0137618    0.72715859531445
 p    1 1.00
             0.2700058                   1
 d    1 1.00
                   0.8                   1

43 0
 s    3 1.00
             18.731137    0.03349459952309
             2.8253937    0.23472694665786
             0.6401217    0.81375731841339
 s    1 1.00
             0.1612778                   1

[5d]
[7f]
[9g]

[MO]
 Sym= A
 Ene=               0
 Spin= Alpha
 Occup=    1.00000
   1    -0.012279530795044
   2    0.0012282158420808
   3    -0.0075750742092411
   4    -0.0004828814311286
   5    9.8970421652557e-05
   6    -0.0013114813189223
   7    -0.00052985400142043
   8    -0.00087024228406334
   9    0.0040644242572913
  10    0.0010604522381828
  11    0.0010253308259652
  12    -0.00013750384286222
  13    0.00025687498114201
  14    -5.5255031282024e-05
  15    0.0004612253307001
  16    0.00093447098117358
  17     -0.99441174393897
  18    -0.038514764652841
  19     0.030062752570594
  20    -0.00079822619015459
  21    -0.00022419758684043
  22    0.00021757269945995
  23    0.0036179934803642
  24    0.0011024562676514
  25    0.00017986837585475
  26    -0.00082915573047318
  27    0.00025881312827412
  28    0.00039916173893802
  29    -0.00021469320702148
  30    -0.0001342712707743
  31    0.0012739060714579
  32    -0.0040594068204229
  33    -0.027372850517637
  34    0.00088362666225804
  35    -0.0066330192213899
  36    -0.00093304076098737
  37    -0.00045071777306158
  38    0.0015210878370928
  39    0.00027776070345749
  40    -0.00036435544390077
  41    -0.0050409836533861
  42    0.00068557540666615
  43    -0.0011129563036351
  44    -0.00061927308327378
  45    0.00038511627881017
  46    0.00043506444094016
  47    0.00049995050216346
  48    0.00068017164957113
  49    0.0050240775444609
  50    0.0005879923863505
  51    -0.00066304153240717
  52    -7.8567608063102e-06
  53    -0.00013124874786566
  54    0.00027345669663616
  55    0.00076755094901383
  56    0.0006448363648611
  57    -0.0032154102074426
  58    4.7225835116351e-05
  59    -7.8012397861774e-05
  60    -7.4475816698934e-05
  61    -8.5889708021107e-06
  62    -0.00012238780033419
  63    0.00020935868493669
  64    0.00040602532397546
  65    2.1053313277609e-06
  66    5.5276257808389e-06
  67    -5.3306705547604e-08
  68    -7.6655918674647e-07
  69    -3.2798367505583e-06
  70    -1.0021701975251e-06
  71    2.981955903361e-06
  72    7.4727829601415e-07
  73    -9.6607468031856e-06
  74    -2.1858822429547e-05
  75    -1.1184272850887e-05
  76    3.0303428288374e-07
  77    2.2280846050839e-07
  78    -4.4446922689219e-08
  79    -3.2272090775286e-07
  80    2.5093334009312e-08
  81    -2.0135788231948e-06
  82    -1.1472815773613e-05
  83    1.0157902720541e-07
  84    3.3168866556023e-07
  85    3.730484311406e-05
  86    -2.242825106355e-06
  87    -2.7537218286971e-06
  88    -3.0514019545558e-06
  89    -1.2662560426767e-05
  90    4.6316518595531e-05
  91    -3.7061704074019e-06
  92    -1.4066349932748e-06
  93    1.7220432053561e-06
  94    -2.2551571346597e-06
  95    4.0625005538645e-07
  96    8.842891735449e-07
  97    -4.4114105158332e-06
  98    -9.5521814055842e-06
  99    2.7688709786089e-06
 100    1.4621983416341e-05
 101    3.5608047639991e-07
 102    7.3436286305812e-06
 103    -0.00011716927984123
 104    8.7469639841203e-07
 105    6.0280052174186e-06
 106     1.06748895601e-07
 107    0.00011708554693252
 108    -0.00011756449955728
 109    -9.7695496969356e-05
 110    5.5830926134841e-06
 111    8.0075833695192e-07
 112    -2.6616179399832e-07
 113    -1.3520915389561e-06
 114    2.8477802999432e-06
 115    2.8585380062085e-06
 116    2.9474474472681e-05
 117    -0.00018567701661577
 118    9.5972490596244e-07
 119    -3.0151606612117e-07
 120    -5.222680162325e-06
 121    4.0079194872745e-05
 122    -1.7268649488106e-05
 123    -5.7821002828607e-06
 124    -9.9990074416356e-07
 125    1.7670937315173e-06
 126    1.7227444402815e-06
 127    -5.0153775008068e-07
 128    1.5255751902344e-06
 129    4.5154344784278e-06
 130    4.2819364939037e-05
 131    -3.0738655503572e-05
 132    5.4658908255298e-07
 133    5.2325199010505e-06
 134    -2.038688624774e-05
 135    0.00018395528817719
 136    -2.2467858745945e-05
 137    0.00024770286056874
 138    -4.5605187797102e-06
 139    -1.0031831205765e-05
 140    -2.6690735843153e-06
 141    -4.3308299486861e-06
 142    -4.5692399951266e-06
 143    1.3473186960947e-06
 144    1.8811140405876e-05
 145    -4.0519365201351e-05
 146    -1.7748535880718e-06
 147    -6.1678230419495e-06
 148    -6.2024096658743e-06
 149    -1.2219311075709e-05
 150    2.5600593783295e-05
 151    3.6269638814959e-05
 152    4.1347789358862e-06
 153    3.3036959367329e-06
 154    8.2992856978841e-07
 155    -3.2013629238812e-06
 156    1.8927154800542e-06
 157    -7.9680638186607e-07
 158    -6.0571974615408e-06
 159    5.3279801554983e-06
 160    -4.3998522590745e-06
 161    8.2564475531697e-07
 162    3.7220759838477e-07
 163    3.0079903547611e-05
 164    -1.1531284250835e-05
 165    -6.0186324100282e-06
 166    -2.5204342154499e-06
 167    1.7260329589644e-07
 168    3.100033453642e-07
 169    -4.7081426525245e-07
 170    -7.8073146452351e-07
 171    6.6135331647643e-07
 172    1.2387852073952e-05
 173    -2.6075234614273e-05
 174    2.3306559562998e-06
 175    -3.3858785745106e-07
 176    -8.1447687286136e-06
 177    1.4234545296658e-05
 178    7.8157916017587e-06
 179    3.0394287895347e-05
 180    -1.7876429595616e-06
 181    -2.8759312089771e-06
 182    -6.6683471163541e-07
 183    1.3775203150782e-06
 184    -3.0786299812915e-07
 185    2.1318331933734e-06
 186    1.776274425816e-05
 187    -4.6589585262197e-05
 188    8.9657280284847e-07
 189    -5.4287584108525e-07
 190    -3.5001160799426e-06
 191    4.9522043437031e-06
 192    4.1734577901179e-06
 193    4.6795359035844e-05
 194    -2.0605893643787e-06
 195    -8.266724837784e-07
 196    -9.1440928309288e-07
 197    -4.9569085299493e-08
 198    -2.0342785393958e-07
 199    4.528815641772e-06
 200    -5.8863355814675e-07
 201    1.877501596743e-06
 202    -1.3340008018149e-05
 203    7.8411079385577e-06
 204    -2.5610809154558e-06
 205    3.0957016247025e-06
 206    2.1748071512251e-05
 207    -8.8223242957519e-06
 208    6.6002908299735e-05
 209    -7.0766438949872e-06
 210    2.2061703182557e-05
 211    -3.3196660793979e-06
 212    -1.0225086750676e-05
 213    8.5013023450855e-07
 214    1.3909273294202e-05
 215    -1.1637779474929e-06
 216    5.0736114393785e-05
 217    -2.5600928715859e-08
 218    -6.508052562869e-06
 219    6.9772445291097e-07
 220    6.8991272634804e-07
 221    2.9046518647019e-06
 222    4.581725347944e-05
 223    -0.00057321214981928
 224    2.0427154334916e-05
 225    1.9051414979336e-06
 226    -5.9163228014565e-06
 227    -0.00054495789642911
 228    -0.00020590468099952
 229    0.00045931262123126
 230    2.6657274673749e-06
 231    2.6734317524608e-05
 232    1.1719071175619e-05
 233    -1.4303680267747e-05
 234    -1.5615922777927e-05
 235    2.1489040770765e-05
 236    6.0625141962592e-05
 237    -0.00055266937869223
 238    1.5026345359123e-05
 239    -4.0366967454751e-06
 240    2.1755451743944e-05
 241    -8.2598506827303e-05
 242    -0.00027060434620946
 243    0.0014535783222352
 244    -2.8322300496317e-05
 245    -5.4228561318913e-05
 246    -4.6950408240411e-06
 247    -1.4907216984687e-05
 248    -3.4750815085619e-08
 249    1.7124121054262e-05
 250    -0.00031033733862817
 251    1.2572390221554e-05
 252    0.00029253423157824
 253    -0.000551771342575
 254    -0.00010191040491477
 255    3.5684944012023e-05
 256    -0.00024324272688226
 257    0.0007481294494055
 258    -0.00014911803856488
 259    0.0014553157567874
 260    8.9607597765084e-05
 261    -2.6590753118742e-06
 262    2.8486589416101e-06
 263    -0.00012980530904551
 264    -7.9734024285652e-05
 265    7.1584469024238e-05
 266    -0.00015206664994126
 267    0.00015614748918812
 268    0.00070104653153244
 269    3.1945093326876e-05
 270    0.00017506212571512
 271    -0.0022667135936473
 272    -2.4783925432667e-05
 273    2.7397339158937e-05
 274    -4.4464880607465e-05
 275    0.0010705594283425
 276    0.00035868051532369
 277    -0.0014551146355792
 278    -3.3117214345627e-05
 279    7.9165328740435e-05
 280    2.2148533583548e-05