[Molden Format]
made by pyscf v[2.0.1]
[Atoms] (AU)
C   1   6     0.69100024066471     0.64692934207205    -3.48223131169301
H   2   1     2.68052439830868     1.13355088658700    -3.25784032593313
C   3   6    -0.36286361513219     0.85440132524594    -5.97030179418974
H   4   1    -2.35448549047279     0.36322488579172    -6.17995817793143
C   5   6     0.93697958957450     1.61209284601821    -8.05828437677121
H   6   1     0.73648971111668     3.55370010139060    -8.71472010856714
C   7   6     2.58127687438623    -0.01872844577485    -9.47001807350619
H   8   1     2.76404479428938    -1.95840164828389    -8.78885291415754
H   9   1     1.55630230933075    -1.92953025305990    12.99630010416247
C   10   6     0.75233899775814    -2.21270439606481    11.10705728102219
H   11   1    -0.43433408177274    -3.90944857546550    11.22216085340412
C   12   6     2.86362581178706    -2.63237380607947     9.17926416456045
H   13   1     4.39038949912609    -1.24955421540245     9.49899813497433
H   14   1     3.74629220191363    -4.48798724300892     9.47414880959024
C   15   6     2.02478325613682    -2.42177285709634     6.44560829588644
C   16   6     3.88048732735477    -3.58795445234514     4.61402886975252
C   17   6    -0.18412382258602    -1.30464291234259     5.76021113872346
C   18   6    -2.10044360464350    -0.26837831858460     7.71610340967100
C   19   6    -3.08956938670431     2.35282328359417     6.88693925039594
C   20   6    -4.37372924086464    -2.09766595989678     7.93610724222001
C   21   6    -0.83850430601230     0.06372213486173    10.33002307638377
H   22   1     0.38411922151109     1.74281358582432    10.27380136542181
H   23   1    -2.30980003007874     0.45460143924521    11.73986301809809
H   24   1     4.58527064644668    -5.38706904487420     5.36778158031719
H   25   1     5.54944938085014    -2.37631462192748     4.35398898413318
H   26   1     3.06633019150423    -3.94118377050688     2.75255466040884
H   27   1    -4.17727778763735     2.26573369139522     5.12914900961283
H   28   1    -1.52662344944051     3.68001877445626     6.59540397144508
H   29   1    -4.32916174397830     3.13643051467482     8.35225460090378
H   30   1    -5.32329548508442    -2.36691813602939     6.11583672749896
H   31   1    -5.77989366602257    -1.33896741843465     9.25748940450990
H   32   1    -3.79310905208926    -3.96389819310853     8.61386170102686
C   33   6    -1.01100794811226    -1.06331657314144     3.11929490449947
C   34   6     0.37686231036534    -0.33275864505552     1.09165013605873
H   35   1    -3.01671213906703    -1.40297922279997     2.77827895090944
C   36   6    -0.64382707979370    -0.11591880174385    -1.42063131251064
H   37   1     2.35569259782137     0.17174499283897     1.33641070251401
H   38   1    -2.63317482980319    -0.60229203511219    -1.66119700387645
C   39   6     3.90960344721415     0.65123442372143   -11.55890098643101
C   40   6     5.53597339482346    -1.15257329589011   -12.86589030877460
H   41   1     3.81237322709460     2.55237110239842   -12.33607146621226
O   42   8     6.77935136485374    -0.67974925370394   -14.75037240649433
H   43   1     5.57867975922019    -3.07543379045103   -12.00509846248917
[GTO]
1 0
 s    6 1.00
             3047.5249  0.0018347001629433
             457.36951    0.01403730124668
             103.94869   0.068842606114048
             29.210155    0.23218442062076
              9.286663    0.46794134155879
              3.163927    0.36231203217765
 s    3 1.00
             7.8682724   -0.11933240861517
             1.8812885   -0.16085421161283
             0.5442493     1.1434564825515
 s    1 1.00
             0.1687144                   1
 p    3 1.00
             7.8682724   0.068999095584993
             1.8812885    0.31642397975315
             0.5442493    0.74430825237435
 p    1 1.00
             0.1687144                   1
 d    1 1.00
                   0.8                   1

2 0
 s    3 1.00
             18.731137    0.03349459952309
             2.8253937    0.23472694665786
             0.6401217    0.81375731841339
 s    1 1.00
             0.1612778                   1

3 0
 s    6 1.00
             3047.5249  0.0018347001629433
             457.36951    0.01403730124668
             103.94869   0.068842606114048
             29.210155    0.23218442062076
              9.286663    0.46794134155879
              3.163927    0.36231203217765
 s    3 1.00
             7.8682724   -0.11933240861517
             1.8812885   -0.16085421161283
             0.5442493     1.1434564825515
 s    1 1.00
             0.1687144                   1
 p    3 1.00
             7.8682724   0.068999095584993
             1.8812885    0.31642397975315
             0.5442493    0.74430825237435
 p    1 1.00
             0.1687144                   1
 d    1 1.00
                   0.8                   1

4 0
 s    3 1.00
             18.731137    0.03349459952309
             2.8253937    0.23472694665786
             0.6401217    0.81375731841339
 s    1 1.00
             0.1612778                   1

5 0
 s    6 1.00
             3047.5249  0.0018347001629433
             457.36951    0.01403730124668
             103.94869   0.068842606114048
             29.210155    0.23218442062076
              9.286663    0.46794134155879
              3.163927    0.36231203217765
 s    3 1.00
             7.8682724   -0.11933240861517
             1.8812885   -0.16085421161283
             0.5442493     1.1434564825515
 s    1 1.00
             0.1687144                   1
 p    3 1.00
             7.8682724   0.068999095584993
             1.8812885    0.31642397975315
             0.5442493    0.74430825237435
 p    1 1.00
             0.1687144                   1
 d    1 1.00
                   0.8                   1

6 0
 s    3 1.00
             18.731137    0.03349459952309
             2.8253937    0.23472694665786
             0.6401217    0.81375731841339
 s    1 1.00
             0.1612778                   1

7 0
 s    6 1.00
             3047.5249  0.0018347001629433
             457.36951    0.01403730124668
             103.94869   0.068842606114048
             29.210155    0.23218442062076
              9.286663    0.46794134155879
              3.163927    0.36231203217765
 s    3 1.00
             7.8682724   -0.11933240861517
             1.8812885   -0.16085421161283
             0.5442493     1.1434564825515
 s    1 1.00
             0.1687144                   1
 p    3 1.00
             7.8682724   0.068999095584993
             1.8812885    0.31642397975315
             0.5442493    0.74430825237435
 p    1 1.00
             0.1687144                   1
 d    1 1.00
                   0.8                   1

8 0
 s    3 1.00
             18.731137    0.03349459952309
             2.8253937    0.23472694665786
             0.6401217    0.81375731841339
 s    1 1.00
             0.1612778                   1

9 0
 s    3 1.00
             18.731137    0.03349459952309
             2.8253937    0.23472694665786
             0.6401217    0.81375731841339
 s    1 1.00
             0.1612778                   1

10 0
 s    6 1.00
             3047.5249  0.0018347001629433
             457.36951    0.01403730124668
             103.94869   0.068842606114048
             29.210155    0.23218442062076
              9.286663    0.46794134155879
              3.163927    0.36231203217765
 s    3 1.00
             7.8682724   -0.11933240861517
             1.8812885   -0.16085421161283
             0.5442493     1.1434564825515
 s    1 1.00
             0.1687144                   1
 p    3 1.00
             7.8682724   0.068999095584993
             1.8812885    0.31642397975315
             0.5442493    0.74430825237435
 p    1 1.00
             0.1687144                   1
 d    1 1.00
                   0.8                   1

11 0
 s    3 1.00
             18.731137    0.03349459952309
             2.8253937    0.23472694665786
             0.6401217    0.81375731841339
 s    1 1.00
             0.1612778                   1

12 0
 s    6 1.00
             3047.5249  0.0018347001629433
             457.36951    0.01403730124668
             103.94869   0.068842606114048
             29.210155    0.23218442062076
              9.286663    0.46794134155879
              3.163927    0.36231203217765
 s    3 1.00
             7.8682724   -0.11933240861517
             1.8812885   -0.16085421161283
             0.5442493     1.1434564825515
 s    1 1.00
             0.1687144                   1
 p    3 1.00
             7.8682724   0.068999095584993
             1.8812885    0.31642397975315
             0.5442493    0.74430825237435
 p    1 1.00
             0.1687144                   1
 d    1 1.00
                   0.8                   1

13 0
 s    3 1.00
             18.731137    0.03349459952309
             2.8253937    0.23472694665786
             0.6401217    0.81375731841339
 s    1 1.00
             0.1612778                   1

14 0
 s    3 1.00
             18.731137    0.03349459952309
             2.8253937    0.23472694665786
             0.6401217    0.81375731841339
 s    1 1.00
             0.1612778                   1

15 0
 s    6 1.00
             3047.5249  0.0018347001629433
             457.36951    0.01403730124668
             103.94869   0.068842606114048
             29.210155    0.23218442062076
              9.286663    0.46794134155879
              3.163927    0.36231203217765
 s    3 1.00
             7.8682724   -0.11933240861517
             1.8812885   -0.16085421161283
             0.5442493     1.1434564825515
 s    1 1.00
             0.1687144                   1
 p    3 1.00
             7.8682724   0.068999095584993
             1.8812885    0.31642397975315
             0.5442493    0.74430825237435
 p    1 1.00
             0.1687144                   1
 d    1 1.00
                   0.8                   1

16 0
 s    6 1.00
             3047.5249  0.0018347001629433
             457.36951    0.01403730124668
             103.94869   0.068842606114048
             29.210155    0.23218442062076
              9.286663    0.46794134155879
              3.163927    0.36231203217765
 s    3 1.00
             7.8682724   -0.11933240861517
             1.8812885   -0.16085421161283
             0.5442493     1.1434564825515
 s    1 1.00
             0.1687144                   1
 p    3 1.00
             7.8682724   0.068999095584993
             1.8812885    0.31642397975315
             0.5442493    0.74430825237435
 p    1 1.00
             0.1687144                   1
 d    1 1.00
                   0.8                   1

17 0
 s    6 1.00
             3047.5249  0.0018347001629433
             457.36951    0.01403730124668
             103.94869   0.068842606114048
             29.210155    0.23218442062076
              9.286663    0.46794134155879
              3.163927    0.36231203217765
 s    3 1.00
             7.8682724   -0.11933240861517
             1.8812885   -0.16085421161283
             0.5442493     1.1434564825515
 s    1 1.00
             0.1687144                   1
 p    3 1.00
             7.8682724   0.068999095584993
             1.8812885    0.31642397975315
             0.5442493    0.74430825237435
 p    1 1.00
             0.1687144                   1
 d    1 1.00
                   0.8                   1

18 0
 s    6 1.00
             3047.5249  0.0018347001629433
             457.36951    0.01403730124668
             103.94869   0.068842606114048
             29.210155    0.23218442062076
              9.286663    0.46794134155879
              3.163927    0.36231203217765
 s    3 1.00
             7.8682724   -0.11933240861517
             1.8812885   -0.16085421161283
             0.5442493     1.1434564825515
 s    1 1.00
             0.1687144                   1
 p    3 1.00
             7.8682724   0.068999095584993
             1.8812885    0.31642397975315
             0.5442493    0.74430825237435
 p    1 1.00
             0.1687144                   1
 d    1 1.00
                   0.8                   1

19 0
 s    6 1.00
             3047.5249  0.0018347001629433
             457.36951    0.01403730124668
             103.94869   0.068842606114048
             29.210155    0.23218442062076
              9.286663    0.46794134155879
              3.163927    0.36231203217765
 s    3 1.00
             7.8682724   -0.11933240861517
             1.8812885   -0.16085421161283
             0.5442493     1.1434564825515
 s    1 1.00
             0.1687144                   1
 p    3 1.00
             7.8682724   0.068999095584993
             1.8812885    0.31642397975315
             0.5442493    0.74430825237435
 p    1 1.00
             0.1687144                   1
 d    1 1.00
                   0.8                   1

20 0
 s    6 1.00
             3047.5249  0.0018347001629433
             457.36951    0.01403730124668
             103.94869   0.068842606114048
             29.210155    0.23218442062076
              9.286663    0.46794134155879
              3.163927    0.36231203217765
 s    3 1.00
             7.8682724   -0.11933240861517
             1.8812885   -0.16085421161283
             0.5442493     1.1434564825515
 s    1 1.00
             0.1687144                   1
 p    3 1.00
             7.8682724   0.068999095584993
             1.8812885    0.31642397975315
             0.5442493    0.74430825237435
 p    1 1.00
             0.1687144                   1
 d    1 1.00
                   0.8                   1

21 0
 s    6 1.00
             3047.5249  0.0018347001629433
             457.36951    0.01403730124668
             103.94869   0.068842606114048
             29.210155    0.23218442062076
              9.286663    0.46794134155879
              3.163927    0.36231203217765
 s    3 1.00
             7.8682724   -0.11933240861517
             1.8812885   -0.16085421161283
             0.5442493     1.1434564825515
 s    1 1.00
             0.1687144                   1
 p    3 1.00
             7.8682724   0.068999095584993
             1.8812885    0.31642397975315
             0.5442493    0.74430825237435
 p    1 1.00
             0.1687144                   1
 d    1 1.00
                   0.8                   1

22 0
 s    3 1.00
             18.731137    0.03349459952309
             2.8253937    0.23472694665786
             0.6401217    0.81375731841339
 s    1 1.00
             0.1612778                   1

23 0
 s    3 1.00
             18.731137    0.03349459952309
             2.8253937    0.23472694665786
             0.6401217    0.81375731841339
 s    1 1.00
             0.1612778                   1

24 0
 s    3 1.00
             18.731137    0.03349459952309
             2.8253937    0.23472694665786
             0.6401217    0.81375731841339
 s    1 1.00
             0.1612778                   1

25 0
 s    3 1.00
             18.731137    0.03349459952309
             2.8253937    0.23472694665786
             0.6401217    0.81375731841339
 s    1 1.00
             0.1612778                   1

26 0
 s    3 1.00
             18.731137    0.03349459952309
             2.8253937    0.23472694665786
             0.6401217    0.81375731841339
 s    1 1.00
             0.1612778                   1

27 0
 s    3 1.00
             18.731137    0.03349459952309
             2.8253937    0.23472694665786
             0.6401217    0.81375731841339
 s    1 1.00
             0.1612778                   1

28 0
 s    3 1.00
             18.731137    0.03349459952309
             2.8253937    0.23472694665786
             0.6401217    0.81375731841339
 s    1 1.00
             0.1612778                   1

29 0
 s    3 1.00
             18.731137    0.03349459952309
             2.8253937    0.23472694665786
             0.6401217    0.81375731841339
 s    1 1.00
             0.1612778                   1

30 0
 s    3 1.00
             18.731137    0.03349459952309
             2.8253937    0.23472694665786
             0.6401217    0.81375731841339
 s    1 1.00
             0.1612778                   1

31 0
 s    3 1.00
             18.731137    0.03349459952309
             2.8253937    0.23472694665786
             0.6401217    0.81375731841339
 s    1 1.00
             0.1612778                   1

32 0
 s    3 1.00
             18.731137    0.03349459952309
             2.8253937    0.23472694665786
             0.6401217    0.81375731841339
 s    1 1.00
             0.1612778                   1

33 0
 s    6 1.00
             3047.5249  0.0018347001629433
             457.36951    0.01403730124668
             103.94869   0.068842606114048
             29.210155    0.23218442062076
              9.286663    0.46794134155879
              3.163927    0.36231203217765
 s    3 1.00
             7.8682724   -0.11933240861517
             1.8812885   -0.16085421161283
             0.5442493     1.1434564825515
 s    1 1.00
             0.1687144                   1
 p    3 1.00
             7.8682724   0.068999095584993
             1.8812885    0.31642397975315
             0.5442493    0.74430825237435
 p    1 1.00
             0.1687144                   1
 d    1 1.00
                   0.8                   1

34 0
 s    6 1.00
             3047.5249  0.0018347001629433
             457.36951    0.01403730124668
             103.94869   0.068842606114048
             29.210155    0.23218442062076
              9.286663    0.46794134155879
              3.163927    0.36231203217765
 s    3 1.00
             7.8682724   -0.11933240861517
             1.8812885   -0.16085421161283
             0.5442493     1.1434564825515
 s    1 1.00
             0.1687144                   1
 p    3 1.00
             7.8682724   0.068999095584993
             1.8812885    0.31642397975315
             0.5442493    0.74430825237435
 p    1 1.00
             0.1687144                   1
 d    1 1.00
                   0.8                   1

35 0
 s    3 1.00
             18.731137    0.03349459952309
             2.8253937    0.23472694665786
             0.6401217    0.81375731841339
 s    1 1.00
             0.1612778                   1

36 0
 s    6 1.00
             3047.5249  0.0018347001629433
             457.36951    0.01403730124668
             103.94869   0.068842606114048
             29.210155    0.23218442062076
              9.286663    0.46794134155879
              3.163927    0.36231203217765
 s    3 1.00
             7.8682724   -0.11933240861517
             1.8812885   -0.16085421161283
             0.5442493     1.1434564825515
 s    1 1.00
             0.1687144                   1
 p    3 1.00
             7.8682724   0.068999095584993
             1.8812885    0.31642397975315
             0.5442493    0.74430825237435
 p    1 1.00
             0.1687144                   1
 d    1 1.00
                   0.8                   1

37 0
 s    3 1.00
             18.731137    0.03349459952309
             2.8253937    0.23472694665786
             0.6401217    0.81375731841339
 s    1 1.00
             0.1612778                   1

38 0
 s    3 1.00
             18.731137    0.03349459952309
             2.8253937    0.23472694665786
             0.6401217    0.81375731841339
 s    1 1.00
             0.1612778                   1

39 0
 s    6 1.00
             3047.5249  0.0018347001629433
             457.36951    0.01403730124668
             103.94869   0.068842606114048
             29.210155    0.23218442062076
              9.286663    0.46794134155879
              3.163927    0.36231203217765
 s    3 1.00
             7.8682724   -0.11933240861517
             1.8812885   -0.16085421161283
             0.5442493     1.1434564825515
 s    1 1.00
             0.1687144                   1
 p    3 1.00
             7.8682724   0.068999095584993
             1.8812885    0.31642397975315
             0.5442493    0.74430825237435
 p    1 1.00
             0.1687144                   1
 d    1 1.00
                   0.8                   1

40 0
 s    6 1.00
             3047.5249  0.0018347001629433
             457.36951    0.01403730124668
             103.94869   0.068842606114048
             29.210155    0.23218442062076
              9.286663    0.46794134155879
              3.163927    0.36231203217765
 s    3 1.00
             7.8682724   -0.11933240861517
             1.8812885   -0.16085421161283
             0.5442493     1.1434564825515
 s    1 1.00
             0.1687144                   1
 p    3 1.00
             7.8682724   0.068999095584993
             1.8812885    0.31642397975315
             0.5442493    0.74430825237435
 p    1 1.00
             0.1687144                   1
 d    1 1.00
                   0.8                   1

41 0
 s    3 1.00
             18.731137    0.03349459952309
             2.8253937    0.23472694665786
             0.6401217    0.81375731841339
 s    1 1.00
             0.1612778                   1

42 0
 s    6 1.00
             5484.6717   0.001831099805527
             825.23495   0.013950098518422
             188.04696    0.06844509273075
               52.9645    0.23271427528445
              16.89757    0.47019295006289
             5.7996353    0.35852086192309
 s    3 1.00
             15.539616   -0.11077750382508
             3.5999336   -0.14802630511126
             1.0137618     1.1307670390447
 s    1 1.00
             0.2700058                   1
 p    3 1.00
             15.539616   0.070874299543311
             3.5999336    0.33975279781076
             1.0137618    0.72715859531445
 p    1 1.00
             0.2700058                   1
 d    1 1.00
                   0.8                   1

43 0
 s    3 1.00
             18.731137    0.03349459952309
             2.8253937    0.23472694665786
             0.6401217    0.81375731841339
 s    1 1.00
             0.1612778                   1

[5d]
[7f]
[9g]

[MO]
 Sym= A
 Ene=               0
 Spin= Alpha
 Occup=    1.00000
   1     0.017781923068099
   2    -0.0010874906328212
   3    0.0077297233889942
   4    0.00045385294989096
   5    -0.00019259381621509
   6    0.0013168073601486
   7    0.00085780843796767
   8    0.0015332249415438
   9    -0.0059500796552528
  10    -0.00099115217056217
  11    -0.00097455845598664
  12    0.00014613201133455
  13    -0.00021968808776611
  14    5.3115653230549e-05
  15    -0.00052789766392253
  16    -0.0010232371930355
  17      0.99466377522609
  18     0.039316138781137
  19      -0.0313399486557
  20    0.0010636357450544
  21    0.00021435905180831
  22    -0.00058254390236709
  23    -0.0040587785906267
  24    -0.0012604397342608
  25    -0.00084508596994793
  26    0.00079269456715129
  27    -0.00032443222431844
  28    -0.00034059852772169
  29    0.0002655602003659
  30    0.00022855961591788
  31    -0.0013261145975397
  32    0.0041468404796706
  33      0.01475512590828
  34    -0.00038072972447283
  35    0.0015377783895855
  36    0.00095839362481211
  37    0.00038548185734808
  38    -0.0012992153891353
  39    -0.0031451730311265
  40    0.0034745047149474
  41    0.0040053637203839
  42    -0.00063884492277673
  43    0.0013178412729898
  44    0.0005611813731001
  45    -0.00041180435613054
  46    -0.00040647170314098
  47    -0.00060223703748301
  48    -0.00057558944661115
  49    -0.00038123490168718
  50    -0.00057557439361741
  51    -2.9539309969366e-05
  52    0.00034251071459611
  53    4.7829181003828e-05
  54    -0.00038789319380153
  55    -0.0059154957139461
  56    0.00084664074070583
  57    0.0069516297364004
  58    -0.00019066234223464
  59    -6.8272862574204e-07
  60    9.4047815910776e-05
  61    -0.00019367150221862
  62    -0.00028548706501129
  63    -0.00050838312842068
  64    0.00023935092779515
  65    -2.7628273962848e-06
  66    -4.5850438007043e-06
  67    -3.0963803216593e-08
  68    -1.0277012125928e-06
  69    4.7425770542082e-06
  70    1.8457372694493e-06
  71    -4.7445161179009e-06
  72    -5.3830999759598e-08
  73    1.4571142476267e-05
  74    2.8404607327074e-05
  75    1.0616240743579e-05
  76    -1.3552085092273e-07
  77    -2.5196147256974e-07
  78    2.5173937997453e-07
  79    5.6112381925651e-07
  80    1.5633808010523e-08
  81    2.8941038462797e-06
  82     1.47999068368e-05
  83    1.776803849095e-07
  84    8.8618584652245e-07
  85    -7.0445601586911e-05
  86    4.3690176060233e-06
  87    3.5890284079185e-06
  88    5.3426133490916e-06
  89    2.3390157718127e-05
  90    -6.8309702173824e-05
  91    8.9869869925565e-06
  92    1.7598406836932e-06
  93    -2.7315802019029e-06
  94    4.0095544111407e-06
  95    -6.9485063283502e-07
  96    -1.1270629747275e-06
  97    7.8704723131973e-06
  98    1.4049944188765e-05
  99    -3.7851647122046e-06
 100    -2.0852031780211e-05
 101    -9.8140594201574e-07
 102    -1.0313260322994e-05
 103    0.00021690354568412
 104    -2.8416452978468e-06
 105    -1.0247385033434e-05
 106    -3.2624091529877e-06
 107    -0.00019360018612842
 108    0.00019142259479495
 109    0.00015382219396005
 110    -6.7501314632784e-06
 111    -2.8978085448826e-07
 112    6.9604702882987e-08
 113    8.7210673841601e-07
 114    -5.4010198180299e-06
 115    -3.6114866279305e-06
 116    -3.5472847058439e-05
 117    0.00025254067225222
 118    -2.1691160374161e-06
 119    2.2228578051892e-06
 120    5.7475667779209e-06
 121    -5.5774594711861e-05
 122    1.9265359470641e-05
 123    3.0885602743399e-05
 124    1.4985654272176e-06
 125    -3.407302069039e-06
 126    -2.4400919927601e-06
 127    1.1430683281629e-06
 128    -2.4249185839975e-06
 129    -5.7255510362399e-06
 130    -5.5322352605631e-05
 131    0.00014985622979822
 132    4.748042769563e-06
 133    -4.8583297842067e-06
 134    2.3728313687332e-05
 135    -0.00034466479072494
 136    2.3672948957951e-05
 137    -0.00042512493804834
 138    8.7471325184764e-06
 139    1.481080419236e-05
 140    5.5879008058004e-06
 141    5.1020250392871e-06
 142    7.109569928291e-06
 143    -2.3926241139557e-06
 144    -3.1886581197522e-05
 145    5.0962655155964e-05
 146    2.1199404286769e-06
 147    6.0748056168003e-06
 148    1.422769107317e-05
 149    1.9740464050569e-05
 150    4.4738536786323e-06
 151    -7.9269324989411e-05
 152    -6.683671272489e-06
 153    -4.6058756989734e-06
 154    -3.2085058675861e-06
 155    4.3481825468462e-06
 156    -4.4410306131513e-06
 157    1.8139350196278e-06
 158    1.4056439013804e-05
 159    -4.6871910579099e-05
 160    6.3039539969784e-06
 161    1.754858124052e-07
 162    -1.9536437071728e-06
 163    -5.4202733785032e-05
 164    2.9406784280283e-05
 165     1.33515572821e-05
 166    4.9183174750725e-06
 167    -1.135316352575e-06
 168    -2.6339516678609e-07
 169    1.1087044624383e-06
 170    2.0913340418416e-06
 171    -5.8506521244184e-07
 172    -1.4228414560516e-05
 173    2.7297289861772e-05
 174    -4.5756969637826e-06
 175    -3.2197211022921e-07
 176    1.1948968115633e-05
 177    2.4986779788777e-07
 178    -2.2668975516038e-06
 179    -2.7988268384012e-05
 180    1.6706574748897e-06
 181    5.1676289142938e-06
 182    1.1425251080391e-06
 183    -1.1974730400788e-06
 184    1.7246390502329e-06
 185    -3.5556948149105e-06
 186    -3.0091337405405e-05
 187    8.9681609798808e-05
 188    -2.4216990303642e-06
 189    5.9488486721851e-07
 190    4.8331545404626e-06
 191    -6.4156189930973e-06
 192    -1.564370475227e-05
 193    -7.4901400124945e-05
 194    3.163015860634e-06
 195    1.8985767764471e-06
 196    3.0132316216998e-06
 197    -2.0528776408682e-07
 198    4.8296247048326e-07
 199    -7.6396314565944e-06
 200    1.5204847857869e-06
 201    -2.9649212758931e-06
 202    1.979918106597e-05
 203    -1.1751327625272e-05
 204    -2.6235626503996e-06
 205    -6.6697052147042e-07
 206    -2.9563676825214e-05
 207    8.987881051535e-06
 208    -6.1356151267981e-05
 209    1.2121507698296e-05
 210    -2.734346183955e-05
 211    7.0463559379528e-06
 212    1.8505441154892e-05
 213    -7.3954855957806e-07
 214    -2.2857401315468e-05
 215    -2.8535319812847e-06
 216    -3.0803239646093e-05
 217    1.3767723969853e-06
 218    1.018005853141e-05
 219    3.7265793336632e-07
 220    -2.4114312271921e-06
 221    -9.0515259862485e-06
 222    -9.1840326722377e-05
 223    0.00093732691016702
 224    -1.4329382413472e-05
 225    -1.6283892558249e-06
 226    1.2428977380343e-05
 227    0.00067392482282238
 228    0.00032861792475455
 229    -0.00094683892823003
 230    3.0461502298396e-06
 231    -4.6291297789959e-05
 232    -2.2111967119108e-05
 233    2.3277736252036e-05
 234    2.3446425973505e-05
 235    -1.648735868396e-05
 236    -4.0512043671941e-05
 237    -0.00019386438042176
 238    -2.20934034017e-05
 239    -2.395657561226e-06
 240    1.0866114714503e-05
 241    0.00028769763318103
 242    0.00038520225786437
 243    -0.0016356179235644
 244    1.0235516892355e-05
 245    7.618183049732e-05
 246    1.0954621091469e-05
 247    2.1079150044163e-05
 248    -5.124594328877e-06
 249    -3.5300276798648e-05
 250    0.00032675834865984
 251    -2.5693411457507e-05
 252    -0.0004177778628772
 253    0.0021400646296556
 254    7.9143523127869e-05
 255    -2.9343715123598e-05
 256    0.00024268012115971
 257    -3.1362755062056e-05
 258    0.00031432412783103
 259    -0.0018825767212836
 260    -7.1643026274036e-05
 261    -1.89337400204e-05
 262    -7.202965295591e-06
 263    0.00015258008381909
 264    8.0970869284237e-05
 265    -9.5508306579447e-05
 266    0.00021394088100113
 267    -0.00014790548600113
 268    -0.00055550555543662
 269    -8.2429241135109e-05
 270    -0.00054977938452331
 271    0.0072630561646923
 272    -0.00011683866662573
 273    0.00010879897064594
 274    0.00010485856897096
 275    -0.0013267136671319
 276    -0.0028245420562048
 277    0.0032072576926968
 278     0.000102600164143
 279    -0.00018043881593492
 280    -0.00011953805694847
 281    -2.246717737304e-05