[Molden Format]
made by pyscf v[2.0.1]
[Atoms] (AU)
C   1   6     0.69100024066471     0.64692934207205    -3.48223131169301
H   2   1     2.68052439830868     1.13355088658700    -3.25784032593313
C   3   6    -0.36286361513219     0.85440132524594    -5.97030179418974
H   4   1    -2.35448549047279     0.36322488579172    -6.17995817793143
C   5   6     0.93697958957450     1.61209284601821    -8.05828437677121
H   6   1    -0.04002876534153     1.70579051152009    -9.86870372539436
C   7   6     3.55882871340184     2.30532870411993    -8.01809862923490
H   8   1     4.51217335653741     2.20318273111775    -6.19041637810672
H   9   1     1.55630230933075    -1.92953025305990    12.99630010416247
C   10   6     0.75233899775814    -2.21270439606481    11.10705728102219
H   11   1    -0.43433408177274    -3.90944857546550    11.22216085340412
C   12   6     2.86362581178706    -2.63237380607947     9.17926416456045
H   13   1     4.39038949912609    -1.24955421540245     9.49899813497433
H   14   1     3.74629220191363    -4.48798724300892     9.47414880959024
C   15   6     2.02478325613682    -2.42177285709634     6.44560829588644
C   16   6     3.88048732735477    -3.58795445234514     4.61402886975252
C   17   6    -0.18412382258602    -1.30464291234259     5.76021113872346
C   18   6    -2.10044360464350    -0.26837831858460     7.71610340967100
C   19   6    -3.08956938670431     2.35282328359417     6.88693925039594
C   20   6    -4.37372924086464    -2.09766595989678     7.93610724222001
C   21   6    -0.83850430601230     0.06372213486173    10.33002307638377
H   22   1     0.38411922151109     1.74281358582432    10.27380136542181
H   23   1    -2.30980003007874     0.45460143924521    11.73986301809809
H   24   1     4.58527064644668    -5.38706904487420     5.36778158031719
H   25   1     5.54944938085014    -2.37631462192748     4.35398898413318
H   26   1     3.06633019150423    -3.94118377050688     2.75255466040884
H   27   1    -4.17727778763735     2.26573369139522     5.12914900961283
H   28   1    -1.52662344944051     3.68001877445626     6.59540397144508
H   29   1    -4.32916174397830     3.13643051467482     8.35225460090378
H   30   1    -5.32329548508442    -2.36691813602939     6.11583672749896
H   31   1    -5.77989366602257    -1.33896741843465     9.25748940450990
H   32   1    -3.79310905208926    -3.96389819310853     8.61386170102686
C   33   6    -1.01100794811226    -1.06331657314144     3.11929490449947
C   34   6     0.37686231036534    -0.33275864505552     1.09165013605873
H   35   1    -3.01671213906703    -1.40297922279997     2.77827895090944
C   36   6    -0.64382707979370    -0.11591880174385    -1.42063131251064
H   37   1     2.35569259782137     0.17174499283897     1.33641070251401
H   38   1    -2.63317482980319    -0.60229203511219    -1.66119700387645
C   39   6     4.92949292707610     3.06752929189425   -10.04715344157890
C   40   6     7.59555456141448     3.73329481661799    -9.81073387339210
H   41   1     4.09542353861424     3.21030697797155   -11.92110945203513
O   42   8     8.93835728030826     4.43020973545744   -11.55200196938216
H   43   1     8.37079058468688     3.56000927179912    -7.85902689076443
[GTO]
1 0
 s    6 1.00
             3047.5249  0.0018347001629433
             457.36951    0.01403730124668
             103.94869   0.068842606114048
             29.210155    0.23218442062076
              9.286663    0.46794134155879
              3.163927    0.36231203217765
 s    3 1.00
             7.8682724   -0.11933240861517
             1.8812885   -0.16085421161283
             0.5442493     1.1434564825515
 s    1 1.00
             0.1687144                   1
 p    3 1.00
             7.8682724   0.068999095584993
             1.8812885    0.31642397975315
             0.5442493    0.74430825237435
 p    1 1.00
             0.1687144                   1
 d    1 1.00
                   0.8                   1

2 0
 s    3 1.00
             18.731137    0.03349459952309
             2.8253937    0.23472694665786
             0.6401217    0.81375731841339
 s    1 1.00
             0.1612778                   1

3 0
 s    6 1.00
             3047.5249  0.0018347001629433
             457.36951    0.01403730124668
             103.94869   0.068842606114048
             29.210155    0.23218442062076
              9.286663    0.46794134155879
              3.163927    0.36231203217765
 s    3 1.00
             7.8682724   -0.11933240861517
             1.8812885   -0.16085421161283
             0.5442493     1.1434564825515
 s    1 1.00
             0.1687144                   1
 p    3 1.00
             7.8682724   0.068999095584993
             1.8812885    0.31642397975315
             0.5442493    0.74430825237435
 p    1 1.00
             0.1687144                   1
 d    1 1.00
                   0.8                   1

4 0
 s    3 1.00
             18.731137    0.03349459952309
             2.8253937    0.23472694665786
             0.6401217    0.81375731841339
 s    1 1.00
             0.1612778                   1

5 0
 s    6 1.00
             3047.5249  0.0018347001629433
             457.36951    0.01403730124668
             103.94869   0.068842606114048
             29.210155    0.23218442062076
              9.286663    0.46794134155879
              3.163927    0.36231203217765
 s    3 1.00
             7.8682724   -0.11933240861517
             1.8812885   -0.16085421161283
             0.5442493     1.1434564825515
 s    1 1.00
             0.1687144                   1
 p    3 1.00
             7.8682724   0.068999095584993
             1.8812885    0.31642397975315
             0.5442493    0.74430825237435
 p    1 1.00
             0.1687144                   1
 d    1 1.00
                   0.8                   1

6 0
 s    3 1.00
             18.731137    0.03349459952309
             2.8253937    0.23472694665786
             0.6401217    0.81375731841339
 s    1 1.00
             0.1612778                   1

7 0
 s    6 1.00
             3047.5249  0.0018347001629433
             457.36951    0.01403730124668
             103.94869   0.068842606114048
             29.210155    0.23218442062076
              9.286663    0.46794134155879
              3.163927    0.36231203217765
 s    3 1.00
             7.8682724   -0.11933240861517
             1.8812885   -0.16085421161283
             0.5442493     1.1434564825515
 s    1 1.00
             0.1687144                   1
 p    3 1.00
             7.8682724   0.068999095584993
             1.8812885    0.31642397975315
             0.5442493    0.74430825237435
 p    1 1.00
             0.1687144                   1
 d    1 1.00
                   0.8                   1

8 0
 s    3 1.00
             18.731137    0.03349459952309
             2.8253937    0.23472694665786
             0.6401217    0.81375731841339
 s    1 1.00
             0.1612778                   1

9 0
 s    3 1.00
             18.731137    0.03349459952309
             2.8253937    0.23472694665786
             0.6401217    0.81375731841339
 s    1 1.00
             0.1612778                   1

10 0
 s    6 1.00
             3047.5249  0.0018347001629433
             457.36951    0.01403730124668
             103.94869   0.068842606114048
             29.210155    0.23218442062076
              9.286663    0.46794134155879
              3.163927    0.36231203217765
 s    3 1.00
             7.8682724   -0.11933240861517
             1.8812885   -0.16085421161283
             0.5442493     1.1434564825515
 s    1 1.00
             0.1687144                   1
 p    3 1.00
             7.8682724   0.068999095584993
             1.8812885    0.31642397975315
             0.5442493    0.74430825237435
 p    1 1.00
             0.1687144                   1
 d    1 1.00
                   0.8                   1

11 0
 s    3 1.00
             18.731137    0.03349459952309
             2.8253937    0.23472694665786
             0.6401217    0.81375731841339
 s    1 1.00
             0.1612778                   1

12 0
 s    6 1.00
             3047.5249  0.0018347001629433
             457.36951    0.01403730124668
             103.94869   0.068842606114048
             29.210155    0.23218442062076
              9.286663    0.46794134155879
              3.163927    0.36231203217765
 s    3 1.00
             7.8682724   -0.11933240861517
             1.8812885   -0.16085421161283
             0.5442493     1.1434564825515
 s    1 1.00
             0.1687144                   1
 p    3 1.00
             7.8682724   0.068999095584993
             1.8812885    0.31642397975315
             0.5442493    0.74430825237435
 p    1 1.00
             0.1687144                   1
 d    1 1.00
                   0.8                   1

13 0
 s    3 1.00
             18.731137    0.03349459952309
             2.8253937    0.23472694665786
             0.6401217    0.81375731841339
 s    1 1.00
             0.1612778                   1

14 0
 s    3 1.00
             18.731137    0.03349459952309
             2.8253937    0.23472694665786
             0.6401217    0.81375731841339
 s    1 1.00
             0.1612778                   1

15 0
 s    6 1.00
             3047.5249  0.0018347001629433
             457.36951    0.01403730124668
             103.94869   0.068842606114048
             29.210155    0.23218442062076
              9.286663    0.46794134155879
              3.163927    0.36231203217765
 s    3 1.00
             7.8682724   -0.11933240861517
             1.8812885   -0.16085421161283
             0.5442493     1.1434564825515
 s    1 1.00
             0.1687144                   1
 p    3 1.00
             7.8682724   0.068999095584993
             1.8812885    0.31642397975315
             0.5442493    0.74430825237435
 p    1 1.00
             0.1687144                   1
 d    1 1.00
                   0.8                   1

16 0
 s    6 1.00
             3047.5249  0.0018347001629433
             457.36951    0.01403730124668
             103.94869   0.068842606114048
             29.210155    0.23218442062076
              9.286663    0.46794134155879
              3.163927    0.36231203217765
 s    3 1.00
             7.8682724   -0.11933240861517
             1.8812885   -0.16085421161283
             0.5442493     1.1434564825515
 s    1 1.00
             0.1687144                   1
 p    3 1.00
             7.8682724   0.068999095584993
             1.8812885    0.31642397975315
             0.5442493    0.74430825237435
 p    1 1.00
             0.1687144                   1
 d    1 1.00
                   0.8                   1

17 0
 s    6 1.00
             3047.5249  0.0018347001629433
             457.36951    0.01403730124668
             103.94869   0.068842606114048
             29.210155    0.23218442062076
              9.286663    0.46794134155879
              3.163927    0.36231203217765
 s    3 1.00
             7.8682724   -0.11933240861517
             1.8812885   -0.16085421161283
             0.5442493     1.1434564825515
 s    1 1.00
             0.1687144                   1
 p    3 1.00
             7.8682724   0.068999095584993
             1.8812885    0.31642397975315
             0.5442493    0.74430825237435
 p    1 1.00
             0.1687144                   1
 d    1 1.00
                   0.8                   1

18 0
 s    6 1.00
             3047.5249  0.0018347001629433
             457.36951    0.01403730124668
             103.94869   0.068842606114048
             29.210155    0.23218442062076
              9.286663    0.46794134155879
              3.163927    0.36231203217765
 s    3 1.00
             7.8682724   -0.11933240861517
             1.8812885   -0.16085421161283
             0.5442493     1.1434564825515
 s    1 1.00
             0.1687144                   1
 p    3 1.00
             7.8682724   0.068999095584993
             1.8812885    0.31642397975315
             0.5442493    0.74430825237435
 p    1 1.00
             0.1687144                   1
 d    1 1.00
                   0.8                   1

19 0
 s    6 1.00
             3047.5249  0.0018347001629433
             457.36951    0.01403730124668
             103.94869   0.068842606114048
             29.210155    0.23218442062076
              9.286663    0.46794134155879
              3.163927    0.36231203217765
 s    3 1.00
             7.8682724   -0.11933240861517
             1.8812885   -0.16085421161283
             0.5442493     1.1434564825515
 s    1 1.00
             0.1687144                   1
 p    3 1.00
             7.8682724   0.068999095584993
             1.8812885    0.31642397975315
             0.5442493    0.74430825237435
 p    1 1.00
             0.1687144                   1
 d    1 1.00
                   0.8                   1

20 0
 s    6 1.00
             3047.5249  0.0018347001629433
             457.36951    0.01403730124668
             103.94869   0.068842606114048
             29.210155    0.23218442062076
              9.286663    0.46794134155879
              3.163927    0.36231203217765
 s    3 1.00
             7.8682724   -0.11933240861517
             1.8812885   -0.16085421161283
             0.5442493     1.1434564825515
 s    1 1.00
             0.1687144                   1
 p    3 1.00
             7.8682724   0.068999095584993
             1.8812885    0.31642397975315
             0.5442493    0.74430825237435
 p    1 1.00
             0.1687144                   1
 d    1 1.00
                   0.8                   1

21 0
 s    6 1.00
             3047.5249  0.0018347001629433
             457.36951    0.01403730124668
             103.94869   0.068842606114048
             29.210155    0.23218442062076
              9.286663    0.46794134155879
              3.163927    0.36231203217765
 s    3 1.00
             7.8682724   -0.11933240861517
             1.8812885   -0.16085421161283
             0.5442493     1.1434564825515
 s    1 1.00
             0.1687144                   1
 p    3 1.00
             7.8682724   0.068999095584993
             1.8812885    0.31642397975315
             0.5442493    0.74430825237435
 p    1 1.00
             0.1687144                   1
 d    1 1.00
                   0.8                   1

22 0
 s    3 1.00
             18.731137    0.03349459952309
             2.8253937    0.23472694665786
             0.6401217    0.81375731841339
 s    1 1.00
             0.1612778                   1

23 0
 s    3 1.00
             18.731137    0.03349459952309
             2.8253937    0.23472694665786
             0.6401217    0.81375731841339
 s    1 1.00
             0.1612778                   1

24 0
 s    3 1.00
             18.731137    0.03349459952309
             2.8253937    0.23472694665786
             0.6401217    0.81375731841339
 s    1 1.00
             0.1612778                   1

25 0
 s    3 1.00
             18.731137    0.03349459952309
             2.8253937    0.23472694665786
             0.6401217    0.81375731841339
 s    1 1.00
             0.1612778                   1

26 0
 s    3 1.00
             18.731137    0.03349459952309
             2.8253937    0.23472694665786
             0.6401217    0.81375731841339
 s    1 1.00
             0.1612778                   1

27 0
 s    3 1.00
             18.731137    0.03349459952309
             2.8253937    0.23472694665786
             0.6401217    0.81375731841339
 s    1 1.00
             0.1612778                   1

28 0
 s    3 1.00
             18.731137    0.03349459952309
             2.8253937    0.23472694665786
             0.6401217    0.81375731841339
 s    1 1.00
             0.1612778                   1

29 0
 s    3 1.00
             18.731137    0.03349459952309
             2.8253937    0.23472694665786
             0.6401217    0.81375731841339
 s    1 1.00
             0.1612778                   1

30 0
 s    3 1.00
             18.731137    0.03349459952309
             2.8253937    0.23472694665786
             0.6401217    0.81375731841339
 s    1 1.00
             0.1612778                   1

31 0
 s    3 1.00
             18.731137    0.03349459952309
             2.8253937    0.23472694665786
             0.6401217    0.81375731841339
 s    1 1.00
             0.1612778                   1

32 0
 s    3 1.00
             18.731137    0.03349459952309
             2.8253937    0.23472694665786
             0.6401217    0.81375731841339
 s    1 1.00
             0.1612778                   1

33 0
 s    6 1.00
             3047.5249  0.0018347001629433
             457.36951    0.01403730124668
             103.94869   0.068842606114048
             29.210155    0.23218442062076
              9.286663    0.46794134155879
              3.163927    0.36231203217765
 s    3 1.00
             7.8682724   -0.11933240861517
             1.8812885   -0.16085421161283
             0.5442493     1.1434564825515
 s    1 1.00
             0.1687144                   1
 p    3 1.00
             7.8682724   0.068999095584993
             1.8812885    0.31642397975315
             0.5442493    0.74430825237435
 p    1 1.00
             0.1687144                   1
 d    1 1.00
                   0.8                   1

34 0
 s    6 1.00
             3047.5249  0.0018347001629433
             457.36951    0.01403730124668
             103.94869   0.068842606114048
             29.210155    0.23218442062076
              9.286663    0.46794134155879
              3.163927    0.36231203217765
 s    3 1.00
             7.8682724   -0.11933240861517
             1.8812885   -0.16085421161283
             0.5442493     1.1434564825515
 s    1 1.00
             0.1687144                   1
 p    3 1.00
             7.8682724   0.068999095584993
             1.8812885    0.31642397975315
             0.5442493    0.74430825237435
 p    1 1.00
             0.1687144                   1
 d    1 1.00
                   0.8                   1

35 0
 s    3 1.00
             18.731137    0.03349459952309
             2.8253937    0.23472694665786
             0.6401217    0.81375731841339
 s    1 1.00
             0.1612778                   1

36 0
 s    6 1.00
             3047.5249  0.0018347001629433
             457.36951    0.01403730124668
             103.94869   0.068842606114048
             29.210155    0.23218442062076
              9.286663    0.46794134155879
              3.163927    0.36231203217765
 s    3 1.00
             7.8682724   -0.11933240861517
             1.8812885   -0.16085421161283
             0.5442493     1.1434564825515
 s    1 1.00
             0.1687144                   1
 p    3 1.00
             7.8682724   0.068999095584993
             1.8812885    0.31642397975315
             0.5442493    0.74430825237435
 p    1 1.00
             0.1687144                   1
 d    1 1.00
                   0.8                   1

37 0
 s    3 1.00
             18.731137    0.03349459952309
             2.8253937    0.23472694665786
             0.6401217    0.81375731841339
 s    1 1.00
             0.1612778                   1

38 0
 s    3 1.00
             18.731137    0.03349459952309
             2.8253937    0.23472694665786
             0.6401217    0.81375731841339
 s    1 1.00
             0.1612778                   1

39 0
 s    6 1.00
             3047.5249  0.0018347001629433
             457.36951    0.01403730124668
             103.94869   0.068842606114048
             29.210155    0.23218442062076
              9.286663    0.46794134155879
              3.163927    0.36231203217765
 s    3 1.00
             7.8682724   -0.11933240861517
             1.8812885   -0.16085421161283
             0.5442493     1.1434564825515
 s    1 1.00
             0.1687144                   1
 p    3 1.00
             7.8682724   0.068999095584993
             1.8812885    0.31642397975315
             0.5442493    0.74430825237435
 p    1 1.00
             0.1687144                   1
 d    1 1.00
                   0.8                   1

40 0
 s    6 1.00
             3047.5249  0.0018347001629433
             457.36951    0.01403730124668
             103.94869   0.068842606114048
             29.210155    0.23218442062076
              9.286663    0.46794134155879
              3.163927    0.36231203217765
 s    3 1.00
             7.8682724   -0.11933240861517
             1.8812885   -0.16085421161283
             0.5442493     1.1434564825515
 s    1 1.00
             0.1687144                   1
 p    3 1.00
             7.8682724   0.068999095584993
             1.8812885    0.31642397975315
             0.5442493    0.74430825237435
 p    1 1.00
             0.1687144                   1
 d    1 1.00
                   0.8                   1

41 0
 s    3 1.00
             18.731137    0.03349459952309
             2.8253937    0.23472694665786
             0.6401217    0.81375731841339
 s    1 1.00
             0.1612778                   1

42 0
 s    6 1.00
             5484.6717   0.001831099805527
             825.23495   0.013950098518422
             188.04696    0.06844509273075
               52.9645    0.23271427528445
              16.89757    0.47019295006289
             5.7996353    0.35852086192309
 s    3 1.00
             15.539616   -0.11077750382508
             3.5999336   -0.14802630511126
             1.0137618     1.1307670390447
 s    1 1.00
             0.2700058                   1
 p    3 1.00
             15.539616   0.070874299543311
             3.5999336    0.33975279781076
             1.0137618    0.72715859531445
 p    1 1.00
             0.2700058                   1
 d    1 1.00
                   0.8                   1

43 0
 s    3 1.00
             18.731137    0.03349459952309
             2.8253937    0.23472694665786
             0.6401217    0.81375731841339
 s    1 1.00
             0.1612778                   1

[5d]
[7f]
[9g]

[MO]
 Sym= A
 Ene=               0
 Spin= Alpha
 Occup=    1.00000
   1    0.00086840299843106
   2    0.0002516704772773
   3    0.00017514903627593
   4    0.00015794158157108
   5    6.0720384006372e-05
   6    -9.742484025569e-05
   7    -0.0019543765110494
   8    -0.00057437085978992
   9    0.00027991260644264
  10    6.4037655795694e-05
  11    -6.2461571559839e-05
  12    -3.2249286529958e-05
  13    -3.6275580707101e-05
  14    -5.778528110177e-06
  15    8.7998787988063e-05
  16    0.0020357822811187
  17    -0.0002686910012696
  18    0.00037882769832568
  19    -0.0017351162268894
  20    0.00018557157540238
  21    6.8986232460059e-05
  22    -9.969131122415e-05
  23    -0.00021912344481552
  24    -0.00010546016475588
  25    0.00023647300673075
  26    -0.00014250149258219
  27    -8.2182445956381e-05
  28    4.1102150301886e-05
  29    -6.1247044191065e-05
  30    -2.0262753436542e-05
  31    4.839121153341e-05
  32    -0.00016177823903446
  33    -0.0087633157216116
  34    0.0013094738332231
  35    -0.0071802878563284
  36    0.0013286554263993
  37    0.00036208755178792
  38    -3.3793613500757e-05
  39    -0.0035552518733367
  40    -0.0013001440134207
  41    0.0017840147397526
  42    -0.0007416732437041
  43    0.00016383910552848
  44    3.5035946396242e-05
  45     0.001167483058305
  46    0.00063614281487189
  47    0.00045709942728593
  48    0.0006180802256196
  49     -0.99484560312576
  50    -0.038577358558527
  51     0.031234529459728
  52    0.00012410360606084
  53    -0.00010733262174621
  54    0.00072209389183062
  55    -0.00080199013914739
  56    0.0003358356012206
  57    -0.0028240694281382
  58    -0.00011312837114617
  59    0.00064373998584029
  60    0.00035971318232212
  61    -0.00056657204162003
  62    -0.00048174703834755
  63    0.0013714116696735
  64    -0.0054148267062824
  65    9.3987025320062e-07
  66    1.8551887970146e-06
  67    -6.385377716889e-08
  68    1.0459300099076e-07
  69    -3.8652209091531e-07
  70    -6.4539899421629e-07
  71    1.5180179658011e-06
  72    -2.0481337685483e-07
  73    -4.6814741452053e-06
  74    -9.3111507986361e-06
  75    -4.7506630207959e-06
  76    2.430630000328e-07
  77    1.2039046250374e-07
  78    -1.3039420242847e-07
  79    -2.0511009507965e-07
  80    2.6434044079688e-08
  81    -1.0059306676408e-06
  82    -4.8608695835231e-06
  83    -4.1680067390684e-08
  84    2.2388644678064e-08
  85    2.1734048708309e-05
  86    -2.1077204824563e-06
  87    -7.9586884242537e-07
  88    -1.9946256498708e-06
  89    -5.5935859583891e-06
  90    2.2985818508082e-05
  91    -1.3857857782427e-06
  92    -8.3665493039058e-07
  93    1.0509063886985e-06
  94    -1.5284225526167e-06
  95    2.1836425748836e-08
  96    3.1847851122709e-07
  97    -2.3460854598643e-06
  98    -6.8542214767866e-06
  99    9.5845687088129e-07
 100    6.0787186338618e-06
 101    5.1958677288868e-07
 102    5.2906290880245e-06
 103    -0.00010281200228843
 104    2.5485627115873e-07
 105    3.521100444518e-06
 106    7.2451862616951e-07
 107    8.8941019961431e-05
 108    -8.0416057684134e-05
 109    -4.8299819368179e-05
 110    2.362752810835e-06
 111    8.9147288766815e-07
 112    8.9266498708894e-08
 113    -1.0547584623587e-06
 114    2.0341315827922e-06
 115    1.1270177588963e-06
 116    1.0671057939102e-05
 117    -9.9909152916942e-05
 118    3.5037790285385e-06
 119    -4.8766099867554e-06
 120    1.0837182056282e-06
 121    1.8146590504621e-06
 122    9.8407109421817e-06
 123    -3.2833457850606e-05
 124    -2.7809842512258e-07
 125    1.3118543712372e-06
 126    1.7397234961847e-06
 127    6.4426164474575e-07
 128    1.7930160998529e-06
 129    2.0336667445985e-06
 130    2.4164659289245e-05
 131    -1.4274185881391e-05
 132    -2.1660077068577e-06
 133    1.2276532490039e-06
 134    -1.3422614787375e-05
 135    0.00013623166757475
 136    -1.3435053317642e-05
 137    0.00018001246074698
 138    -4.7603087372156e-06
 139    -6.1531010333489e-06
 140    -1.5509697601654e-06
 141    -1.9341980949566e-06
 142    -2.9532977563972e-06
 143    1.3627985707983e-06
 144    1.3770850705153e-05
 145    -3.7089382342628e-05
 146    -6.8007934616289e-07
 147    -1.9923636755602e-06
 148    -3.4595714759758e-06
 149    -2.2603989716732e-05
 150    8.3436012792683e-06
 151    2.0731609314026e-05
 152    3.1344986872231e-06
 153    1.9638842952197e-06
 154    8.6281690808026e-07
 155    -2.1983603581654e-06
 156    1.9452753792216e-06
 157    -5.2195050214539e-07
 158    -4.18735295346e-06
 159    7.9656965697611e-06
 160    -2.4419247700789e-06
 161    2.2566810710191e-07
 162    6.6045762660488e-07
 163    2.2074297965736e-05
 164    -7.3624330088113e-06
 165    -4.6072629866756e-06
 166    -1.8254198046233e-06
 167    4.7201563865506e-07
 168    7.352470778459e-08
 169    2.0600686232563e-08
 170    -9.3989330686613e-07
 171    2.1062181240617e-07
 172    5.3441046134677e-06
 173    -1.4535951376943e-05
 174    1.0963333225702e-06
 175    -2.9235163240364e-08
 176    -4.0608514337624e-06
 177    7.6382290068262e-06
 178    -4.4175738372128e-07
 179    1.3332509335075e-05
 180    -6.936827842986e-07
 181    -1.7631731439844e-06
 182    -4.9719051501032e-07
 183    9.0829836620078e-07
 184    -3.6133523855933e-07
 185    1.1675155992067e-06
 186    1.1353933814339e-05
 187    -2.2804553651765e-05
 188    4.2172134266764e-07
 189    -5.3270556965716e-07
 190    -3.2787346337729e-06
 191    4.903960276013e-07
 192    4.0034268696202e-06
 193    2.3823920318866e-05
 194    -1.030906293049e-06
 195    -5.3750331367032e-07
 196    -8.9524419651891e-07
 197    -1.383855139109e-07
 198    -2.67218211965e-08
 199    2.5646401779647e-06
 200    -1.5465912594225e-07
 201    7.8563130743679e-07
 202    -8.9896659069114e-06
 203    7.5229471869029e-06
 204    1.6782061806698e-05
 205    -6.9063900508271e-06
 206    3.2461472692849e-05
 207    -6.8554671861344e-06
 208    1.0880430619509e-05
 209    -4.542730138413e-06
 210    1.2859536736804e-05
 211    -2.7057769140745e-06
 212    -6.9914782463866e-06
 213    6.1843345168973e-07
 214    8.8887345235248e-06
 215    -2.3866127664585e-07
 216    2.3091514184554e-05
 217    -2.0929832293766e-08
 218    -1.9809234259013e-06
 219    -1.1462860113068e-07
 220    -1.2326449341787e-06
 221    4.4217715862889e-06
 222    4.0476656476857e-05
 223    -0.0001360114040115
 224    8.3814416077275e-06
 225    3.3548342804133e-06
 226    -1.0876582243434e-05
 227    -0.00027458798742156
 228    -0.00010885993652279
 229    0.00025491563578095
 230    2.9203456011887e-06
 231    1.6425539385288e-05
 232    7.5687295826893e-06
 233    -1.1909579304115e-05
 234    -1.0872560126827e-05
 235    3.4148348665101e-07
 236    -1.6511463856958e-06
 237    -0.00024710114506303
 238    -1.4904837610598e-05
 239    -4.272543107842e-06
 240    -9.592234543851e-06
 241    0.00030048461611126
 242    -4.0072952299042e-05
 243    0.00067185262687857
 244    -4.1520562950609e-06
 245    -2.8313824389948e-05
 246    -5.3742113745863e-06
 247    -4.5778158694633e-06
 248    3.7983048752529e-06
 249    9.0709319699502e-06
 250    -0.00016593730691101
 251    8.7392534855546e-06
 252    4.7546050499417e-05
 253    -0.000798041672476
 254    -1.8944815508868e-05
 255    -4.9877093087197e-06
 256    1.3625746577247e-06
 257    0.00021060073204445
 258    -0.0002199507079224
 259    0.0013862649555447
 260    -3.3713817170166e-05
 261    3.9586782422115e-05
 262    2.3498228293678e-05
 263    -4.253918503646e-07
 264    -1.0468586569432e-05
 265    3.8648231796374e-05
 266    -0.00035794277602643
 267    4.6161618783062e-05
 268    0.00021753957059008
 269    -0.00022780966615178
 270    0.0021805902837241
 271    -0.010223868013168
 272    -0.0010592453558727
 273    -0.00059939569748904
 274    0.0016214753888971
 275    0.0028842126640813
 276    0.0012285605737569
 277    -0.0023455920049462
 278    0.00079762557449318
 279    -0.0010783158403718
 280    -0.00064648400205783