[Molden Format]
made by pyscf v[2.0.1]
[Atoms] (AU)
C   1   6     0.69100024066471     0.64692934207205    -3.48223131169301
H   2   1     2.68052439830868     1.13355088658700    -3.25784032593313
C   3   6    -0.36286361513219     0.85440132524594    -5.97030179418974
H   4   1    -2.35448549047279     0.36322488579172    -6.17995817793143
C   5   6     0.93697958957450     1.61209284601821    -8.05828437677121
H   6   1     0.30646242799847     3.28538583431710    -9.07979378939352
C   7   6     3.12235401223615     0.31857752265429    -9.01077606594223
H   8   1     3.73232478675010    -1.35404880050347    -7.96675544506269
H   9   1     1.55630230933075    -1.92953025305990    12.99630010416247
C   10   6     0.75233899775814    -2.21270439606481    11.10705728102219
H   11   1    -0.43433408177274    -3.90944857546550    11.22216085340412
C   12   6     2.86362581178706    -2.63237380607947     9.17926416456045
H   13   1     4.39038949912609    -1.24955421540245     9.49899813497433
H   14   1     3.74629220191363    -4.48798724300892     9.47414880959024
C   15   6     2.02478325613682    -2.42177285709634     6.44560829588644
C   16   6     3.88048732735477    -3.58795445234514     4.61402886975252
C   17   6    -0.18412382258602    -1.30464291234259     5.76021113872346
C   18   6    -2.10044360464350    -0.26837831858460     7.71610340967100
C   19   6    -3.08956938670431     2.35282328359417     6.88693925039594
C   20   6    -4.37372924086464    -2.09766595989678     7.93610724222001
C   21   6    -0.83850430601230     0.06372213486173    10.33002307638377
H   22   1     0.38411922151109     1.74281358582432    10.27380136542181
H   23   1    -2.30980003007874     0.45460143924521    11.73986301809809
H   24   1     4.58527064644668    -5.38706904487420     5.36778158031719
H   25   1     5.54944938085014    -2.37631462192748     4.35398898413318
H   26   1     3.06633019150423    -3.94118377050688     2.75255466040884
H   27   1    -4.17727778763735     2.26573369139522     5.12914900961283
H   28   1    -1.52662344944051     3.68001877445626     6.59540397144508
H   29   1    -4.32916174397830     3.13643051467482     8.35225460090378
H   30   1    -5.32329548508442    -2.36691813602939     6.11583672749896
H   31   1    -5.77989366602257    -1.33896741843465     9.25748940450990
H   32   1    -3.79310905208926    -3.96389819310853     8.61386170102686
C   33   6    -1.01100794811226    -1.06331657314144     3.11929490449947
C   34   6     0.37686231036534    -0.33275864505552     1.09165013605873
H   35   1    -3.01671213906703    -1.40297922279997     2.77827895090944
C   36   6    -0.64382707979370    -0.11591880174385    -1.42063131251064
H   37   1     2.35569259782137     0.17174499283897     1.33641070251401
H   38   1    -2.63317482980319    -0.60229203511219    -1.66119700387645
C   39   6     4.47307059082302     1.00138906809445   -11.08105785168909
C   40   6     6.67463726557562    -0.44413475967984   -11.89995199897600
H   41   1     3.96718229655089     2.64690253849906   -12.20539356366280
O   42   8     7.97152342098443     0.06042731610533   -13.73960618931333
H   43   1     7.12379765531873    -2.11255344586070   -10.69379572801653
[GTO]
1 0
 s    6 1.00
             3047.5249  0.0018347001629433
             457.36951    0.01403730124668
             103.94869   0.068842606114048
             29.210155    0.23218442062076
              9.286663    0.46794134155879
              3.163927    0.36231203217765
 s    3 1.00
             7.8682724   -0.11933240861517
             1.8812885   -0.16085421161283
             0.5442493     1.1434564825515
 s    1 1.00
             0.1687144                   1
 p    3 1.00
             7.8682724   0.068999095584993
             1.8812885    0.31642397975315
             0.5442493    0.74430825237435
 p    1 1.00
             0.1687144                   1
 d    1 1.00
                   0.8                   1

2 0
 s    3 1.00
             18.731137    0.03349459952309
             2.8253937    0.23472694665786
             0.6401217    0.81375731841339
 s    1 1.00
             0.1612778                   1

3 0
 s    6 1.00
             3047.5249  0.0018347001629433
             457.36951    0.01403730124668
             103.94869   0.068842606114048
             29.210155    0.23218442062076
              9.286663    0.46794134155879
              3.163927    0.36231203217765
 s    3 1.00
             7.8682724   -0.11933240861517
             1.8812885   -0.16085421161283
             0.5442493     1.1434564825515
 s    1 1.00
             0.1687144                   1
 p    3 1.00
             7.8682724   0.068999095584993
             1.8812885    0.31642397975315
             0.5442493    0.74430825237435
 p    1 1.00
             0.1687144                   1
 d    1 1.00
                   0.8                   1

4 0
 s    3 1.00
             18.731137    0.03349459952309
             2.8253937    0.23472694665786
             0.6401217    0.81375731841339
 s    1 1.00
             0.1612778                   1

5 0
 s    6 1.00
             3047.5249  0.0018347001629433
             457.36951    0.01403730124668
             103.94869   0.068842606114048
             29.210155    0.23218442062076
              9.286663    0.46794134155879
              3.163927    0.36231203217765
 s    3 1.00
             7.8682724   -0.11933240861517
             1.8812885   -0.16085421161283
             0.5442493     1.1434564825515
 s    1 1.00
             0.1687144                   1
 p    3 1.00
             7.8682724   0.068999095584993
             1.8812885    0.31642397975315
             0.5442493    0.74430825237435
 p    1 1.00
             0.1687144                   1
 d    1 1.00
                   0.8                   1

6 0
 s    3 1.00
             18.731137    0.03349459952309
             2.8253937    0.23472694665786
             0.6401217    0.81375731841339
 s    1 1.00
             0.1612778                   1

7 0
 s    6 1.00
             3047.5249  0.0018347001629433
             457.36951    0.01403730124668
             103.94869   0.068842606114048
             29.210155    0.23218442062076
              9.286663    0.46794134155879
              3.163927    0.36231203217765
 s    3 1.00
             7.8682724   -0.11933240861517
             1.8812885   -0.16085421161283
             0.5442493     1.1434564825515
 s    1 1.00
             0.1687144                   1
 p    3 1.00
             7.8682724   0.068999095584993
             1.8812885    0.31642397975315
             0.5442493    0.74430825237435
 p    1 1.00
             0.1687144                   1
 d    1 1.00
                   0.8                   1

8 0
 s    3 1.00
             18.731137    0.03349459952309
             2.8253937    0.23472694665786
             0.6401217    0.81375731841339
 s    1 1.00
             0.1612778                   1

9 0
 s    3 1.00
             18.731137    0.03349459952309
             2.8253937    0.23472694665786
             0.6401217    0.81375731841339
 s    1 1.00
             0.1612778                   1

10 0
 s    6 1.00
             3047.5249  0.0018347001629433
             457.36951    0.01403730124668
             103.94869   0.068842606114048
             29.210155    0.23218442062076
              9.286663    0.46794134155879
              3.163927    0.36231203217765
 s    3 1.00
             7.8682724   -0.11933240861517
             1.8812885   -0.16085421161283
             0.5442493     1.1434564825515
 s    1 1.00
             0.1687144                   1
 p    3 1.00
             7.8682724   0.068999095584993
             1.8812885    0.31642397975315
             0.5442493    0.74430825237435
 p    1 1.00
             0.1687144                   1
 d    1 1.00
                   0.8                   1

11 0
 s    3 1.00
             18.731137    0.03349459952309
             2.8253937    0.23472694665786
             0.6401217    0.81375731841339
 s    1 1.00
             0.1612778                   1

12 0
 s    6 1.00
             3047.5249  0.0018347001629433
             457.36951    0.01403730124668
             103.94869   0.068842606114048
             29.210155    0.23218442062076
              9.286663    0.46794134155879
              3.163927    0.36231203217765
 s    3 1.00
             7.8682724   -0.11933240861517
             1.8812885   -0.16085421161283
             0.5442493     1.1434564825515
 s    1 1.00
             0.1687144                   1
 p    3 1.00
             7.8682724   0.068999095584993
             1.8812885    0.31642397975315
             0.5442493    0.74430825237435
 p    1 1.00
             0.1687144                   1
 d    1 1.00
                   0.8                   1

13 0
 s    3 1.00
             18.731137    0.03349459952309
             2.8253937    0.23472694665786
             0.6401217    0.81375731841339
 s    1 1.00
             0.1612778                   1

14 0
 s    3 1.00
             18.731137    0.03349459952309
             2.8253937    0.23472694665786
             0.6401217    0.81375731841339
 s    1 1.00
             0.1612778                   1

15 0
 s    6 1.00
             3047.5249  0.0018347001629433
             457.36951    0.01403730124668
             103.94869   0.068842606114048
             29.210155    0.23218442062076
              9.286663    0.46794134155879
              3.163927    0.36231203217765
 s    3 1.00
             7.8682724   -0.11933240861517
             1.8812885   -0.16085421161283
             0.5442493     1.1434564825515
 s    1 1.00
             0.1687144                   1
 p    3 1.00
             7.8682724   0.068999095584993
             1.8812885    0.31642397975315
             0.5442493    0.74430825237435
 p    1 1.00
             0.1687144                   1
 d    1 1.00
                   0.8                   1

16 0
 s    6 1.00
             3047.5249  0.0018347001629433
             457.36951    0.01403730124668
             103.94869   0.068842606114048
             29.210155    0.23218442062076
              9.286663    0.46794134155879
              3.163927    0.36231203217765
 s    3 1.00
             7.8682724   -0.11933240861517
             1.8812885   -0.16085421161283
             0.5442493     1.1434564825515
 s    1 1.00
             0.1687144                   1
 p    3 1.00
             7.8682724   0.068999095584993
             1.8812885    0.31642397975315
             0.5442493    0.74430825237435
 p    1 1.00
             0.1687144                   1
 d    1 1.00
                   0.8                   1

17 0
 s    6 1.00
             3047.5249  0.0018347001629433
             457.36951    0.01403730124668
             103.94869   0.068842606114048
             29.210155    0.23218442062076
              9.286663    0.46794134155879
              3.163927    0.36231203217765
 s    3 1.00
             7.8682724   -0.11933240861517
             1.8812885   -0.16085421161283
             0.5442493     1.1434564825515
 s    1 1.00
             0.1687144                   1
 p    3 1.00
             7.8682724   0.068999095584993
             1.8812885    0.31642397975315
             0.5442493    0.74430825237435
 p    1 1.00
             0.1687144                   1
 d    1 1.00
                   0.8                   1

18 0
 s    6 1.00
             3047.5249  0.0018347001629433
             457.36951    0.01403730124668
             103.94869   0.068842606114048
             29.210155    0.23218442062076
              9.286663    0.46794134155879
              3.163927    0.36231203217765
 s    3 1.00
             7.8682724   -0.11933240861517
             1.8812885   -0.16085421161283
             0.5442493     1.1434564825515
 s    1 1.00
             0.1687144                   1
 p    3 1.00
             7.8682724   0.068999095584993
             1.8812885    0.31642397975315
             0.5442493    0.74430825237435
 p    1 1.00
             0.1687144                   1
 d    1 1.00
                   0.8                   1

19 0
 s    6 1.00
             3047.5249  0.0018347001629433
             457.36951    0.01403730124668
             103.94869   0.068842606114048
             29.210155    0.23218442062076
              9.286663    0.46794134155879
              3.163927    0.36231203217765
 s    3 1.00
             7.8682724   -0.11933240861517
             1.8812885   -0.16085421161283
             0.5442493     1.1434564825515
 s    1 1.00
             0.1687144                   1
 p    3 1.00
             7.8682724   0.068999095584993
             1.8812885    0.31642397975315
             0.5442493    0.74430825237435
 p    1 1.00
             0.1687144                   1
 d    1 1.00
                   0.8                   1

20 0
 s    6 1.00
             3047.5249  0.0018347001629433
             457.36951    0.01403730124668
             103.94869   0.068842606114048
             29.210155    0.23218442062076
              9.286663    0.46794134155879
              3.163927    0.36231203217765
 s    3 1.00
             7.8682724   -0.11933240861517
             1.8812885   -0.16085421161283
             0.5442493     1.1434564825515
 s    1 1.00
             0.1687144                   1
 p    3 1.00
             7.8682724   0.068999095584993
             1.8812885    0.31642397975315
             0.5442493    0.74430825237435
 p    1 1.00
             0.1687144                   1
 d    1 1.00
                   0.8                   1

21 0
 s    6 1.00
             3047.5249  0.0018347001629433
             457.36951    0.01403730124668
             103.94869   0.068842606114048
             29.210155    0.23218442062076
              9.286663    0.46794134155879
              3.163927    0.36231203217765
 s    3 1.00
             7.8682724   -0.11933240861517
             1.8812885   -0.16085421161283
             0.5442493     1.1434564825515
 s    1 1.00
             0.1687144                   1
 p    3 1.00
             7.8682724   0.068999095584993
             1.8812885    0.31642397975315
             0.5442493    0.74430825237435
 p    1 1.00
             0.1687144                   1
 d    1 1.00
                   0.8                   1

22 0
 s    3 1.00
             18.731137    0.03349459952309
             2.8253937    0.23472694665786
             0.6401217    0.81375731841339
 s    1 1.00
             0.1612778                   1

23 0
 s    3 1.00
             18.731137    0.03349459952309
             2.8253937    0.23472694665786
             0.6401217    0.81375731841339
 s    1 1.00
             0.1612778                   1

24 0
 s    3 1.00
             18.731137    0.03349459952309
             2.8253937    0.23472694665786
             0.6401217    0.81375731841339
 s    1 1.00
             0.1612778                   1

25 0
 s    3 1.00
             18.731137    0.03349459952309
             2.8253937    0.23472694665786
             0.6401217    0.81375731841339
 s    1 1.00
             0.1612778                   1

26 0
 s    3 1.00
             18.731137    0.03349459952309
             2.8253937    0.23472694665786
             0.6401217    0.81375731841339
 s    1 1.00
             0.1612778                   1

27 0
 s    3 1.00
             18.731137    0.03349459952309
             2.8253937    0.23472694665786
             0.6401217    0.81375731841339
 s    1 1.00
             0.1612778                   1

28 0
 s    3 1.00
             18.731137    0.03349459952309
             2.8253937    0.23472694665786
             0.6401217    0.81375731841339
 s    1 1.00
             0.1612778                   1

29 0
 s    3 1.00
             18.731137    0.03349459952309
             2.8253937    0.23472694665786
             0.6401217    0.81375731841339
 s    1 1.00
             0.1612778                   1

30 0
 s    3 1.00
             18.731137    0.03349459952309
             2.8253937    0.23472694665786
             0.6401217    0.81375731841339
 s    1 1.00
             0.1612778                   1

31 0
 s    3 1.00
             18.731137    0.03349459952309
             2.8253937    0.23472694665786
             0.6401217    0.81375731841339
 s    1 1.00
             0.1612778                   1

32 0
 s    3 1.00
             18.731137    0.03349459952309
             2.8253937    0.23472694665786
             0.6401217    0.81375731841339
 s    1 1.00
             0.1612778                   1

33 0
 s    6 1.00
             3047.5249  0.0018347001629433
             457.36951    0.01403730124668
             103.94869   0.068842606114048
             29.210155    0.23218442062076
              9.286663    0.46794134155879
              3.163927    0.36231203217765
 s    3 1.00
             7.8682724   -0.11933240861517
             1.8812885   -0.16085421161283
             0.5442493     1.1434564825515
 s    1 1.00
             0.1687144                   1
 p    3 1.00
             7.8682724   0.068999095584993
             1.8812885    0.31642397975315
             0.5442493    0.74430825237435
 p    1 1.00
             0.1687144                   1
 d    1 1.00
                   0.8                   1

34 0
 s    6 1.00
             3047.5249  0.0018347001629433
             457.36951    0.01403730124668
             103.94869   0.068842606114048
             29.210155    0.23218442062076
              9.286663    0.46794134155879
              3.163927    0.36231203217765
 s    3 1.00
             7.8682724   -0.11933240861517
             1.8812885   -0.16085421161283
             0.5442493     1.1434564825515
 s    1 1.00
             0.1687144                   1
 p    3 1.00
             7.8682724   0.068999095584993
             1.8812885    0.31642397975315
             0.5442493    0.74430825237435
 p    1 1.00
             0.1687144                   1
 d    1 1.00
                   0.8                   1

35 0
 s    3 1.00
             18.731137    0.03349459952309
             2.8253937    0.23472694665786
             0.6401217    0.81375731841339
 s    1 1.00
             0.1612778                   1

36 0
 s    6 1.00
             3047.5249  0.0018347001629433
             457.36951    0.01403730124668
             103.94869   0.068842606114048
             29.210155    0.23218442062076
              9.286663    0.46794134155879
              3.163927    0.36231203217765
 s    3 1.00
             7.8682724   -0.11933240861517
             1.8812885   -0.16085421161283
             0.5442493     1.1434564825515
 s    1 1.00
             0.1687144                   1
 p    3 1.00
             7.8682724   0.068999095584993
             1.8812885    0.31642397975315
             0.5442493    0.74430825237435
 p    1 1.00
             0.1687144                   1
 d    1 1.00
                   0.8                   1

37 0
 s    3 1.00
             18.731137    0.03349459952309
             2.8253937    0.23472694665786
             0.6401217    0.81375731841339
 s    1 1.00
             0.1612778                   1

38 0
 s    3 1.00
             18.731137    0.03349459952309
             2.8253937    0.23472694665786
             0.6401217    0.81375731841339
 s    1 1.00
             0.1612778                   1

39 0
 s    6 1.00
             3047.5249  0.0018347001629433
             457.36951    0.01403730124668
             103.94869   0.068842606114048
             29.210155    0.23218442062076
              9.286663    0.46794134155879
              3.163927    0.36231203217765
 s    3 1.00
             7.8682724   -0.11933240861517
             1.8812885   -0.16085421161283
             0.5442493     1.1434564825515
 s    1 1.00
             0.1687144                   1
 p    3 1.00
             7.8682724   0.068999095584993
             1.8812885    0.31642397975315
             0.5442493    0.74430825237435
 p    1 1.00
             0.1687144                   1
 d    1 1.00
                   0.8                   1

40 0
 s    6 1.00
             3047.5249  0.0018347001629433
             457.36951    0.01403730124668
             103.94869   0.068842606114048
             29.210155    0.23218442062076
              9.286663    0.46794134155879
              3.163927    0.36231203217765
 s    3 1.00
             7.8682724   -0.11933240861517
             1.8812885   -0.16085421161283
             0.5442493     1.1434564825515
 s    1 1.00
             0.1687144                   1
 p    3 1.00
             7.8682724   0.068999095584993
             1.8812885    0.31642397975315
             0.5442493    0.74430825237435
 p    1 1.00
             0.1687144                   1
 d    1 1.00
                   0.8                   1

41 0
 s    3 1.00
             18.731137    0.03349459952309
             2.8253937    0.23472694665786
             0.6401217    0.81375731841339
 s    1 1.00
             0.1612778                   1

42 0
 s    6 1.00
             5484.6717   0.001831099805527
             825.23495   0.013950098518422
             188.04696    0.06844509273075
               52.9645    0.23271427528445
              16.89757    0.47019295006289
             5.7996353    0.35852086192309
 s    3 1.00
             15.539616   -0.11077750382508
             3.5999336   -0.14802630511126
             1.0137618     1.1307670390447
 s    1 1.00
             0.2700058                   1
 p    3 1.00
             15.539616   0.070874299543311
             3.5999336    0.33975279781076
             1.0137618    0.72715859531445
 p    1 1.00
             0.2700058                   1
 d    1 1.00
                   0.8                   1

43 0
 s    3 1.00
             18.731137    0.03349459952309
             2.8253937    0.23472694665786
             0.6401217    0.81375731841339
 s    1 1.00
             0.1612778                   1

[5d]
[7f]
[9g]

[MO]
 Sym= A
 Ene=               0
 Spin= Alpha
 Occup=    1.00000
   1    -0.015716461570078
   2    0.0011178389020539
   3    -0.0078490374378858
   4    -0.00050057603228016
   5    0.00022234359992452
   6    -0.0012655684471938
   7    -0.00058254096395062
   8    -0.0014494813058838
   9    0.0048721247090013
  10    0.0010040538776089
  11    0.0010186503617804
  12    -0.00012338386828472
  13    0.0002380293315389
  14    -6.094289901599e-05
  15    0.00046178140929089
  16    0.0010634808790631
  17     -0.99458199481742
  18    -0.038992767022109
  19     0.030463584226969
  20    -0.0010137176394997
  21    -0.00023864679317967
  22    0.00039298233895249
  23    0.0037401196035201
  24    0.0011755645827488
  25    0.00060622423001141
  26    -0.00078436556837924
  27    0.00030359332673598
  28    0.00034957814551077
  29    -0.00022849812379105
  30    -0.00025231523291256
  31    0.0013381192100303
  32    -0.0041052481476253
  33    -0.020097560893735
  34    0.0005862004451928
  35    -0.0034724643550435
  36    -0.00095065106631912
  37    -0.00043291553273059
  38    0.0013565951162937
  39    0.0032214025075425
  40    -0.0018642525236418
  41    -0.0031086438043319
  42    0.00060206580275457
  43    -0.0012345630818419
  44    -0.00062361519529486
  45    0.00043663804610997
  46    0.00044033365649023
  47    0.00053015477365724
  48    0.00032454911342409
  49    0.00045449025083363
  50    0.00046988474900489
  51    0.00097831558823156
  52    -0.00037365131940646
  53    -0.00012195054496082
  54    0.00028188405313623
  55    0.0053600227032449
  56    0.00043056541419186
  57    -0.0049117117611765
  58    0.00016448890111486
  59    -8.5181254469262e-05
  60    3.5078428889494e-05
  61    2.5908238304746e-05
  62    0.0002821500392185
  63    0.00042726225917111
  64    -5.475022578281e-05
  65    2.3776899276383e-06
  66    5.5768888325233e-06
  67    -1.2677647779447e-07
  68    -8.6060774789155e-07
  69    9.7870551272423e-07
  70    -7.9536088621881e-07
  71    3.7634868821011e-06
  72    4.3518878776335e-07
  73    -1.3494703710546e-05
  74    -2.7366602843192e-05
  75    -1.2435306111263e-05
  76    2.1727938172676e-07
  77    4.8539770503357e-08
  78    2.3895843169548e-08
  79    -3.2690059721376e-07
  80    -8.9607783311536e-08
  81    -2.9548607323103e-06
  82    -1.5107149611559e-05
  83    8.3849340528514e-08
  84    6.5646805334635e-07
  85    4.9471121750657e-05
  86    -3.55825836371e-06
  87    -3.4095610282711e-06
  88    -3.7441638547319e-06
  89    -1.3139214507508e-05
  90    5.7144345371588e-05
  91    -6.8733858664882e-06
  92    -1.6956827590774e-06
  93    1.8973894371444e-06
  94    -3.0030423266003e-06
  95    4.1502664679035e-07
  96    1.0254658197285e-06
  97    -6.3335304915575e-06
  98    -1.3141628765049e-05
  99    3.4952248936857e-06
 100    1.8479665403732e-05
 101    1.1694786980873e-07
 102    5.1653826115399e-06
 103    -0.00010859870371329
 104    2.0819838417368e-06
 105    9.8155371470047e-06
 106    8.1514957536019e-07
 107    0.0001348697544562
 108    -0.00014510452797496
 109    -0.00013359621083295
 110    6.8776182601072e-06
 111    7.1250862565515e-07
 112    -1.8517601627035e-07
 113    5.5446194826278e-08
 114    3.463764054142e-06
 115    3.3442300637352e-06
 116    3.3447911985663e-05
 117    -0.00021631578128416
 118    9.5687934115725e-07
 119    9.1971228973835e-07
 120    -6.2352017009473e-06
 121    5.3190159054376e-05
 122    -3.183441576389e-05
 123    -1.8192208983431e-05
 124    -9.9578006389511e-07
 125    3.1458977958337e-06
 126    1.749116464819e-06
 127    -1.5784565128057e-06
 128    2.1892544745606e-06
 129    4.7532568689369e-06
 130    4.7029244695314e-05
 131    -6.0548324845384e-05
 132    8.3959394732653e-08
 133    3.5259832847269e-06
 134    -2.2970627268322e-05
 135    0.00021071994991471
 136    1.0428848193827e-05
 137    0.0003096745934172
 138    -4.3007588580969e-06
 139    -1.3281133179918e-05
 140    -3.4480029582483e-06
 141    -5.3182660021369e-06
 142    -5.8699706761064e-06
 143    2.4995707241305e-06
 144    3.0772127225901e-05
 145    -8.3241064133911e-05
 146    -2.10082122392e-06
 147    -5.3501301327807e-06
 148    -1.0656811180748e-05
 149    -2.1925858246625e-05
 150    1.5859298773905e-06
 151    8.3354344700451e-05
 152    4.1790443586282e-06
 153    4.9899027141436e-06
 154    1.9233277293374e-06
 155    -3.4839281590645e-06
 156    3.3864391346046e-06
 157    -1.5229139860746e-06
 158    -1.1581290896531e-05
 159    4.2423647133183e-05
 160    -5.1507207123082e-06
 161    -2.6291460449277e-07
 162    2.213687826482e-06
 163    4.5018030073095e-05
 164    -2.8240700062409e-05
 165    -1.3721902103466e-05
 166    -4.2386703176572e-06
 167    1.4187237702091e-06
 168    3.9328434449284e-07
 169    -1.2977086413772e-06
 170    -1.4609447190702e-06
 171    8.0628571242971e-07
 172    1.5320711575145e-05
 173    -3.1978507673848e-05
 174    3.9881094561742e-06
 175    7.3558646179333e-08
 176    -1.0551469579265e-05
 177    3.126113508494e-06
 178    6.3653039275481e-06
 179    2.8391364716684e-05
 180    -1.6572909872793e-06
 181    -4.2766949232902e-06
 182    -1.3959562322408e-06
 183    1.0131275458443e-06
 184    -1.0612908035335e-06
 185    2.7138457434235e-06
 186    2.2418943981053e-05
 187    -6.8878306719632e-05
 188    1.2004313715829e-06
 189    -3.6541965000692e-07
 190    -3.7130141328136e-06
 191    1.2943834532224e-05
 192    1.2585469677953e-05
 193    5.7412043353229e-05
 194    -2.0132822682976e-06
 195    -1.5603356190125e-06
 196    -2.2551308404182e-06
 197    -1.7794079585796e-07
 198    -4.5174854273994e-07
 199    5.2457153487443e-06
 200    -3.7658880089918e-06
 201    3.0950192621757e-06
 202    -1.365510339172e-05
 203    8.7992548034013e-06
 204    -7.4214025128945e-06
 205    2.2469977961573e-06
 206    2.8469583140059e-05
 207    -6.1845492259513e-06
 208    5.0493073835099e-05
 209    -1.0667412348553e-05
 210    2.2886389269432e-05
 211    -6.2349864107334e-06
 212    -1.4046347995515e-05
 213    8.8574844377719e-07
 214    1.9453933026341e-05
 215    1.0288840447218e-06
 216    4.1003131842911e-05
 217    -4.3122408739624e-07
 218    -1.0344925839807e-05
 219    5.1844371936689e-07
 220    3.7756745289576e-06
 221    6.5316503913085e-06
 222    7.1910641146985e-05
 223    -0.00083275378589971
 224    1.7286854015528e-05
 225    4.4711946307827e-06
 226    -6.0613256491623e-06
 227    -0.0006409959742369
 228    -0.00028059273958169
 229    0.00066712408522115
 230    -1.8631577747895e-06
 231    3.7761225938673e-05
 232    1.5827299510918e-05
 233    -2.0263312044069e-05
 234    -1.9333498870038e-05
 235    1.9458649693589e-05
 236    5.170346007162e-05
 237    -0.00021698997229523
 238    1.8433369983044e-05
 239    1.1663545872421e-06
 240    3.1499025947836e-06
 241    -0.00016825204473404
 242    -0.00038733657453682
 243    0.0016235814087101
 244    -1.8439700577011e-05
 245    -6.9196091185742e-05
 246    -1.1584856863221e-06
 247    -2.0172994481089e-05
 248    8.8834917749507e-06
 249    2.4903598639846e-05
 250    -0.00032758783006229
 251    1.636247788757e-05
 252    0.00034740079300027
 253    -0.0011385319623293
 254    -8.0039274913909e-05
 255    1.3000932664619e-05
 256    -0.00025713673882796
 257    0.00042978536810247
 258    -4.4356130254009e-05
 259    0.0016832969046517
 260    8.3490809019223e-05
 261    6.4839460598181e-06
 262    -1.0272650923188e-05
 263    -0.00014861111133067
 264    -6.346851314737e-05
 265    8.6142948504405e-05
 266    -0.00019070145337635
 267    0.00015478457408765
 268    0.00063699275012039
 269    7.1398487165541e-05
 270    0.00046537696250536
 271    -0.0061671479422738
 272    0.0001384417582651
 273    -4.7269827623404e-05
 274    -5.3361777849707e-05
 275    0.0009371557610705
 276    0.0018673742790745
 277    -0.0031800549880175
 278    -0.00011608031337979
 279    0.00013767051991357
 280    0.00011023301379102
 281    -2.0195407444814e-05