[Molden Format]
made by pyscf v[2.0.1]
[Atoms] (AU)
C   1   6     0.69100024066471     0.64692934207205    -3.48223131169301
H   2   1     2.68052439830868     1.13355088658700    -3.25784032593313
C   3   6    -0.36286361513219     0.85440132524594    -5.97030179418974
H   4   1    -2.35448549047279     0.36322488579172    -6.17995817793143
C   5   6     0.93697958957450     1.61209284601821    -8.05828437677121
H   6   1     1.11826626333964     3.62551264984471    -8.45099117670825
C   7   6     2.10097243920823    -0.10888483292738    -9.80174075747215
H   8   1     1.90436861547379    -2.12023320363586    -9.38275759847606
H   9   1     1.55630230933075    -1.92953025305990    12.99630010416247
C   10   6     0.75233899775814    -2.21270439606481    11.10705728102219
H   11   1    -0.43433408177274    -3.90944857546550    11.22216085340412
C   12   6     2.86362581178706    -2.63237380607947     9.17926416456045
H   13   1     4.39038949912609    -1.24955421540245     9.49899813497433
H   14   1     3.74629220191363    -4.48798724300892     9.47414880959024
C   15   6     2.02478325613682    -2.42177285709634     6.44560829588644
C   16   6     3.88048732735477    -3.58795445234514     4.61402886975252
C   17   6    -0.18412382258602    -1.30464291234259     5.76021113872346
C   18   6    -2.10044360464350    -0.26837831858460     7.71610340967100
C   19   6    -3.08956938670431     2.35282328359417     6.88693925039594
C   20   6    -4.37372924086464    -2.09766595989678     7.93610724222001
C   21   6    -0.83850430601230     0.06372213486173    10.33002307638377
H   22   1     0.38411922151109     1.74281358582432    10.27380136542181
H   23   1    -2.30980003007874     0.45460143924521    11.73986301809809
H   24   1     4.58527064644668    -5.38706904487420     5.36778158031719
H   25   1     5.54944938085014    -2.37631462192748     4.35398898413318
H   26   1     3.06633019150423    -3.94118377050688     2.75255466040884
H   27   1    -4.17727778763735     2.26573369139522     5.12914900961283
H   28   1    -1.52662344944051     3.68001877445626     6.59540397144508
H   29   1    -4.32916174397830     3.13643051467482     8.35225460090378
H   30   1    -5.32329548508442    -2.36691813602939     6.11583672749896
H   31   1    -5.77989366602257    -1.33896741843465     9.25748940450990
H   32   1    -3.79310905208926    -3.96389819310853     8.61386170102686
C   33   6    -1.01100794811226    -1.06331657314144     3.11929490449947
C   34   6     0.37686231036534    -0.33275864505552     1.09165013605873
H   35   1    -3.01671213906703    -1.40297922279997     2.77827895090944
C   36   6    -0.64382707979370    -0.11591880174385    -1.42063131251064
H   37   1     2.35569259782137     0.17174499283897     1.33641070251401
H   38   1    -2.63317482980319    -0.60229203511219    -1.66119700387645
C   39   6     3.40965399787931     0.55809653308114   -11.90393532262733
C   40   6     4.52549279160481    -1.34135539088305   -13.56345596406470
H   41   1     3.67536210453709     2.52791097593625   -12.43024189111277
O   42   8     5.72170846290986    -0.87635365493868   -15.48013684009233
H   43   1     4.20717735374393    -3.33265649371778   -12.95224886476863
[GTO]
1 0
 s    6 1.00
             3047.5249  0.0018347001629433
             457.36951    0.01403730124668
             103.94869   0.068842606114048
             29.210155    0.23218442062076
              9.286663    0.46794134155879
              3.163927    0.36231203217765
 s    3 1.00
             7.8682724   -0.11933240861517
             1.8812885   -0.16085421161283
             0.5442493     1.1434564825515
 s    1 1.00
             0.1687144                   1
 p    3 1.00
             7.8682724   0.068999095584993
             1.8812885    0.31642397975315
             0.5442493    0.74430825237435
 p    1 1.00
             0.1687144                   1
 d    1 1.00
                   0.8                   1

2 0
 s    3 1.00
             18.731137    0.03349459952309
             2.8253937    0.23472694665786
             0.6401217    0.81375731841339
 s    1 1.00
             0.1612778                   1

3 0
 s    6 1.00
             3047.5249  0.0018347001629433
             457.36951    0.01403730124668
             103.94869   0.068842606114048
             29.210155    0.23218442062076
              9.286663    0.46794134155879
              3.163927    0.36231203217765
 s    3 1.00
             7.8682724   -0.11933240861517
             1.8812885   -0.16085421161283
             0.5442493     1.1434564825515
 s    1 1.00
             0.1687144                   1
 p    3 1.00
             7.8682724   0.068999095584993
             1.8812885    0.31642397975315
             0.5442493    0.74430825237435
 p    1 1.00
             0.1687144                   1
 d    1 1.00
                   0.8                   1

4 0
 s    3 1.00
             18.731137    0.03349459952309
             2.8253937    0.23472694665786
             0.6401217    0.81375731841339
 s    1 1.00
             0.1612778                   1

5 0
 s    6 1.00
             3047.5249  0.0018347001629433
             457.36951    0.01403730124668
             103.94869   0.068842606114048
             29.210155    0.23218442062076
              9.286663    0.46794134155879
              3.163927    0.36231203217765
 s    3 1.00
             7.8682724   -0.11933240861517
             1.8812885   -0.16085421161283
             0.5442493     1.1434564825515
 s    1 1.00
             0.1687144                   1
 p    3 1.00
             7.8682724   0.068999095584993
             1.8812885    0.31642397975315
             0.5442493    0.74430825237435
 p    1 1.00
             0.1687144                   1
 d    1 1.00
                   0.8                   1

6 0
 s    3 1.00
             18.731137    0.03349459952309
             2.8253937    0.23472694665786
             0.6401217    0.81375731841339
 s    1 1.00
             0.1612778                   1

7 0
 s    6 1.00
             3047.5249  0.0018347001629433
             457.36951    0.01403730124668
             103.94869   0.068842606114048
             29.210155    0.23218442062076
              9.286663    0.46794134155879
              3.163927    0.36231203217765
 s    3 1.00
             7.8682724   -0.11933240861517
             1.8812885   -0.16085421161283
             0.5442493     1.1434564825515
 s    1 1.00
             0.1687144                   1
 p    3 1.00
             7.8682724   0.068999095584993
             1.8812885    0.31642397975315
             0.5442493    0.74430825237435
 p    1 1.00
             0.1687144                   1
 d    1 1.00
                   0.8                   1

8 0
 s    3 1.00
             18.731137    0.03349459952309
             2.8253937    0.23472694665786
             0.6401217    0.81375731841339
 s    1 1.00
             0.1612778                   1

9 0
 s    3 1.00
             18.731137    0.03349459952309
             2.8253937    0.23472694665786
             0.6401217    0.81375731841339
 s    1 1.00
             0.1612778                   1

10 0
 s    6 1.00
             3047.5249  0.0018347001629433
             457.36951    0.01403730124668
             103.94869   0.068842606114048
             29.210155    0.23218442062076
              9.286663    0.46794134155879
              3.163927    0.36231203217765
 s    3 1.00
             7.8682724   -0.11933240861517
             1.8812885   -0.16085421161283
             0.5442493     1.1434564825515
 s    1 1.00
             0.1687144                   1
 p    3 1.00
             7.8682724   0.068999095584993
             1.8812885    0.31642397975315
             0.5442493    0.74430825237435
 p    1 1.00
             0.1687144                   1
 d    1 1.00
                   0.8                   1

11 0
 s    3 1.00
             18.731137    0.03349459952309
             2.8253937    0.23472694665786
             0.6401217    0.81375731841339
 s    1 1.00
             0.1612778                   1

12 0
 s    6 1.00
             3047.5249  0.0018347001629433
             457.36951    0.01403730124668
             103.94869   0.068842606114048
             29.210155    0.23218442062076
              9.286663    0.46794134155879
              3.163927    0.36231203217765
 s    3 1.00
             7.8682724   -0.11933240861517
             1.8812885   -0.16085421161283
             0.5442493     1.1434564825515
 s    1 1.00
             0.1687144                   1
 p    3 1.00
             7.8682724   0.068999095584993
             1.8812885    0.31642397975315
             0.5442493    0.74430825237435
 p    1 1.00
             0.1687144                   1
 d    1 1.00
                   0.8                   1

13 0
 s    3 1.00
             18.731137    0.03349459952309
             2.8253937    0.23472694665786
             0.6401217    0.81375731841339
 s    1 1.00
             0.1612778                   1

14 0
 s    3 1.00
             18.731137    0.03349459952309
             2.8253937    0.23472694665786
             0.6401217    0.81375731841339
 s    1 1.00
             0.1612778                   1

15 0
 s    6 1.00
             3047.5249  0.0018347001629433
             457.36951    0.01403730124668
             103.94869   0.068842606114048
             29.210155    0.23218442062076
              9.286663    0.46794134155879
              3.163927    0.36231203217765
 s    3 1.00
             7.8682724   -0.11933240861517
             1.8812885   -0.16085421161283
             0.5442493     1.1434564825515
 s    1 1.00
             0.1687144                   1
 p    3 1.00
             7.8682724   0.068999095584993
             1.8812885    0.31642397975315
             0.5442493    0.74430825237435
 p    1 1.00
             0.1687144                   1
 d    1 1.00
                   0.8                   1

16 0
 s    6 1.00
             3047.5249  0.0018347001629433
             457.36951    0.01403730124668
             103.94869   0.068842606114048
             29.210155    0.23218442062076
              9.286663    0.46794134155879
              3.163927    0.36231203217765
 s    3 1.00
             7.8682724   -0.11933240861517
             1.8812885   -0.16085421161283
             0.5442493     1.1434564825515
 s    1 1.00
             0.1687144                   1
 p    3 1.00
             7.8682724   0.068999095584993
             1.8812885    0.31642397975315
             0.5442493    0.74430825237435
 p    1 1.00
             0.1687144                   1
 d    1 1.00
                   0.8                   1

17 0
 s    6 1.00
             3047.5249  0.0018347001629433
             457.36951    0.01403730124668
             103.94869   0.068842606114048
             29.210155    0.23218442062076
              9.286663    0.46794134155879
              3.163927    0.36231203217765
 s    3 1.00
             7.8682724   -0.11933240861517
             1.8812885   -0.16085421161283
             0.5442493     1.1434564825515
 s    1 1.00
             0.1687144                   1
 p    3 1.00
             7.8682724   0.068999095584993
             1.8812885    0.31642397975315
             0.5442493    0.74430825237435
 p    1 1.00
             0.1687144                   1
 d    1 1.00
                   0.8                   1

18 0
 s    6 1.00
             3047.5249  0.0018347001629433
             457.36951    0.01403730124668
             103.94869   0.068842606114048
             29.210155    0.23218442062076
              9.286663    0.46794134155879
              3.163927    0.36231203217765
 s    3 1.00
             7.8682724   -0.11933240861517
             1.8812885   -0.16085421161283
             0.5442493     1.1434564825515
 s    1 1.00
             0.1687144                   1
 p    3 1.00
             7.8682724   0.068999095584993
             1.8812885    0.31642397975315
             0.5442493    0.74430825237435
 p    1 1.00
             0.1687144                   1
 d    1 1.00
                   0.8                   1

19 0
 s    6 1.00
             3047.5249  0.0018347001629433
             457.36951    0.01403730124668
             103.94869   0.068842606114048
             29.210155    0.23218442062076
              9.286663    0.46794134155879
              3.163927    0.36231203217765
 s    3 1.00
             7.8682724   -0.11933240861517
             1.8812885   -0.16085421161283
             0.5442493     1.1434564825515
 s    1 1.00
             0.1687144                   1
 p    3 1.00
             7.8682724   0.068999095584993
             1.8812885    0.31642397975315
             0.5442493    0.74430825237435
 p    1 1.00
             0.1687144                   1
 d    1 1.00
                   0.8                   1

20 0
 s    6 1.00
             3047.5249  0.0018347001629433
             457.36951    0.01403730124668
             103.94869   0.068842606114048
             29.210155    0.23218442062076
              9.286663    0.46794134155879
              3.163927    0.36231203217765
 s    3 1.00
             7.8682724   -0.11933240861517
             1.8812885   -0.16085421161283
             0.5442493     1.1434564825515
 s    1 1.00
             0.1687144                   1
 p    3 1.00
             7.8682724   0.068999095584993
             1.8812885    0.31642397975315
             0.5442493    0.74430825237435
 p    1 1.00
             0.1687144                   1
 d    1 1.00
                   0.8                   1

21 0
 s    6 1.00
             3047.5249  0.0018347001629433
             457.36951    0.01403730124668
             103.94869   0.068842606114048
             29.210155    0.23218442062076
              9.286663    0.46794134155879
              3.163927    0.36231203217765
 s    3 1.00
             7.8682724   -0.11933240861517
             1.8812885   -0.16085421161283
             0.5442493     1.1434564825515
 s    1 1.00
             0.1687144                   1
 p    3 1.00
             7.8682724   0.068999095584993
             1.8812885    0.31642397975315
             0.5442493    0.74430825237435
 p    1 1.00
             0.1687144                   1
 d    1 1.00
                   0.8                   1

22 0
 s    3 1.00
             18.731137    0.03349459952309
             2.8253937    0.23472694665786
             0.6401217    0.81375731841339
 s    1 1.00
             0.1612778                   1

23 0
 s    3 1.00
             18.731137    0.03349459952309
             2.8253937    0.23472694665786
             0.6401217    0.81375731841339
 s    1 1.00
             0.1612778                   1

24 0
 s    3 1.00
             18.731137    0.03349459952309
             2.8253937    0.23472694665786
             0.6401217    0.81375731841339
 s    1 1.00
             0.1612778                   1

25 0
 s    3 1.00
             18.731137    0.03349459952309
             2.8253937    0.23472694665786
             0.6401217    0.81375731841339
 s    1 1.00
             0.1612778                   1

26 0
 s    3 1.00
             18.731137    0.03349459952309
             2.8253937    0.23472694665786
             0.6401217    0.81375731841339
 s    1 1.00
             0.1612778                   1

27 0
 s    3 1.00
             18.731137    0.03349459952309
             2.8253937    0.23472694665786
             0.6401217    0.81375731841339
 s    1 1.00
             0.1612778                   1

28 0
 s    3 1.00
             18.731137    0.03349459952309
             2.8253937    0.23472694665786
             0.6401217    0.81375731841339
 s    1 1.00
             0.1612778                   1

29 0
 s    3 1.00
             18.731137    0.03349459952309
             2.8253937    0.23472694665786
             0.6401217    0.81375731841339
 s    1 1.00
             0.1612778                   1

30 0
 s    3 1.00
             18.731137    0.03349459952309
             2.8253937    0.23472694665786
             0.6401217    0.81375731841339
 s    1 1.00
             0.1612778                   1

31 0
 s    3 1.00
             18.731137    0.03349459952309
             2.8253937    0.23472694665786
             0.6401217    0.81375731841339
 s    1 1.00
             0.1612778                   1

32 0
 s    3 1.00
             18.731137    0.03349459952309
             2.8253937    0.23472694665786
             0.6401217    0.81375731841339
 s    1 1.00
             0.1612778                   1

33 0
 s    6 1.00
             3047.5249  0.0018347001629433
             457.36951    0.01403730124668
             103.94869   0.068842606114048
             29.210155    0.23218442062076
              9.286663    0.46794134155879
              3.163927    0.36231203217765
 s    3 1.00
             7.8682724   -0.11933240861517
             1.8812885   -0.16085421161283
             0.5442493     1.1434564825515
 s    1 1.00
             0.1687144                   1
 p    3 1.00
             7.8682724   0.068999095584993
             1.8812885    0.31642397975315
             0.5442493    0.74430825237435
 p    1 1.00
             0.1687144                   1
 d    1 1.00
                   0.8                   1

34 0
 s    6 1.00
             3047.5249  0.0018347001629433
             457.36951    0.01403730124668
             103.94869   0.068842606114048
             29.210155    0.23218442062076
              9.286663    0.46794134155879
              3.163927    0.36231203217765
 s    3 1.00
             7.8682724   -0.11933240861517
             1.8812885   -0.16085421161283
             0.5442493     1.1434564825515
 s    1 1.00
             0.1687144                   1
 p    3 1.00
             7.8682724   0.068999095584993
             1.8812885    0.31642397975315
             0.5442493    0.74430825237435
 p    1 1.00
             0.1687144                   1
 d    1 1.00
                   0.8                   1

35 0
 s    3 1.00
             18.731137    0.03349459952309
             2.8253937    0.23472694665786
             0.6401217    0.81375731841339
 s    1 1.00
             0.1612778                   1

36 0
 s    6 1.00
             3047.5249  0.0018347001629433
             457.36951    0.01403730124668
             103.94869   0.068842606114048
             29.210155    0.23218442062076
              9.286663    0.46794134155879
              3.163927    0.36231203217765
 s    3 1.00
             7.8682724   -0.11933240861517
             1.8812885   -0.16085421161283
             0.5442493     1.1434564825515
 s    1 1.00
             0.1687144                   1
 p    3 1.00
             7.8682724   0.068999095584993
             1.8812885    0.31642397975315
             0.5442493    0.74430825237435
 p    1 1.00
             0.1687144                   1
 d    1 1.00
                   0.8                   1

37 0
 s    3 1.00
             18.731137    0.03349459952309
             2.8253937    0.23472694665786
             0.6401217    0.81375731841339
 s    1 1.00
             0.1612778                   1

38 0
 s    3 1.00
             18.731137    0.03349459952309
             2.8253937    0.23472694665786
             0.6401217    0.81375731841339
 s    1 1.00
             0.1612778                   1

39 0
 s    6 1.00
             3047.5249  0.0018347001629433
             457.36951    0.01403730124668
             103.94869   0.068842606114048
             29.210155    0.23218442062076
              9.286663    0.46794134155879
              3.163927    0.36231203217765
 s    3 1.00
             7.8682724   -0.11933240861517
             1.8812885   -0.16085421161283
             0.5442493     1.1434564825515
 s    1 1.00
             0.1687144                   1
 p    3 1.00
             7.8682724   0.068999095584993
             1.8812885    0.31642397975315
             0.5442493    0.74430825237435
 p    1 1.00
             0.1687144                   1
 d    1 1.00
                   0.8                   1

40 0
 s    6 1.00
             3047.5249  0.0018347001629433
             457.36951    0.01403730124668
             103.94869   0.068842606114048
             29.210155    0.23218442062076
              9.286663    0.46794134155879
              3.163927    0.36231203217765
 s    3 1.00
             7.8682724   -0.11933240861517
             1.8812885   -0.16085421161283
             0.5442493     1.1434564825515
 s    1 1.00
             0.1687144                   1
 p    3 1.00
             7.8682724   0.068999095584993
             1.8812885    0.31642397975315
             0.5442493    0.74430825237435
 p    1 1.00
             0.1687144                   1
 d    1 1.00
                   0.8                   1

41 0
 s    3 1.00
             18.731137    0.03349459952309
             2.8253937    0.23472694665786
             0.6401217    0.81375731841339
 s    1 1.00
             0.1612778                   1

42 0
 s    6 1.00
             5484.6717   0.001831099805527
             825.23495   0.013950098518422
             188.04696    0.06844509273075
               52.9645    0.23271427528445
              16.89757    0.47019295006289
             5.7996353    0.35852086192309
 s    3 1.00
             15.539616   -0.11077750382508
             3.5999336   -0.14802630511126
             1.0137618     1.1307670390447
 s    1 1.00
             0.2700058                   1
 p    3 1.00
             15.539616   0.070874299543311
             3.5999336    0.33975279781076
             1.0137618    0.72715859531445
 p    1 1.00
             0.2700058                   1
 d    1 1.00
                   0.8                   1

43 0
 s    3 1.00
             18.731137    0.03349459952309
             2.8253937    0.23472694665786
             0.6401217    0.81375731841339
 s    1 1.00
             0.1612778                   1

[5d]
[7f]
[9g]

[MO]
 Sym= A
 Ene=               0
 Spin= Alpha
 Occup=    1.00000
   1     0.016047972891001
   2    -0.0011811230384101
   3    0.0077105667276255
   4    0.0004340716074648
   5    -0.00013621152966822
   6    0.0013507092546348
   7    0.0008917240949409
   8    0.0013209559344951
   9    -0.0060308401084815
  10    -0.0010016794185809
  11    -0.00095829947640309
  12    0.00016094952990316
  13    -0.0002184816382057
  14    5.2819018950658e-05
  15    -0.00054298041009549
  16    -0.00099344661013289
  17       0.9947189337748
  18     0.039342343549868
  19     -0.03141188868157
  20    0.0010265600729147
  21    0.0001843928924737
  22    -0.00064574593396618
  23    -0.0039884943907983
  24    -0.0011681490560303
  25    -0.00081846983430856
  26    0.0008112910075767
  27    -0.00032062181780566
  28    -0.00036286577482167
  29    0.0002848282612542
  30    0.00017624789022179
  31    -0.0012872271725111
  32    0.0042267517513172
  33     0.012943588966456
  34    -0.00039502192447214
  35      0.00123150731139
  36    0.00096137927448774
  37    0.00037520138436424
  38    -0.0013072970945298
  39    -0.0023612292494155
  40    0.0038118224099346
  41    0.0047208221756135
  42    -0.00069616356070791
  43    0.0013156248429813
  44    0.00051476617620955
  45    -0.00037755109055921
  46    -0.00043483053301961
  47    -0.00060671388680788
  48    -0.00065248093983745
  49    -0.00038905651488422
  50    -0.0006051967250071
  51    0.00034003538474782
  52    0.00024984327339954
  53    2.2629909800897e-05
  54    -0.00045666908816244
  55    -0.0049627389394177
  56      0.00126494661971
  57      0.00780134984776
  58    -0.00015602414524711
  59    -7.6529770179611e-06
  60    0.0001968076298973
  61    -0.0002776244750859
  62    -0.00016752753847559
  63    -0.00051725382639543
  64    0.00027913406233703
  65    -2.9418362814491e-06
  66    -4.5714958088134e-06
  67    -1.2412035640258e-07
  68    -1.4879734647096e-06
  69    7.6627074883778e-06
  70    2.4927140792018e-06
  71    -4.9793696705368e-06
  72    -2.7806695878943e-07
  73    1.4273053555973e-05
  74    2.7173730531955e-05
  75    1.0168219643302e-05
  76    -1.2718078702452e-07
  77    -3.6814358641068e-07
  78    3.7760405557596e-07
  79    6.4678629879129e-07
  80    -3.2166183069319e-08
  81    2.5900456965079e-06
  82    1.3705049320723e-05
  83    2.5649487999886e-07
  84    1.6981667415059e-06
  85    -7.1137243711541e-05
  86    3.8311558414214e-06
  87    3.353228586345e-06
  88    5.6289768251765e-06
  89    2.6378463812986e-05
  90    -6.9558711796852e-05
  91    7.5100556352278e-06
  92    1.7234416098758e-06
  93    -3.0132928932111e-06
  94    4.0674858920198e-06
  95    -8.5701530519864e-07
  96    -1.1488882164116e-06
  97    7.3693422391214e-06
  98    1.2838508550784e-05
  99    -3.5815016649861e-06
 100    -2.0424113025321e-05
 101    -1.3253424852841e-06
 102    -1.3189858385601e-05
 103    0.00026117591490409
 104    -1.860657265982e-06
 105    -7.7095856586289e-06
 106    -3.7689123102204e-06
 107    -0.00020811651123961
 108    0.00020006831096421
 109    0.00014269965721266
 110    -6.3467715667591e-06
 111    -1.0929691863895e-08
 112    -1.7853721411894e-08
 113    1.6547170053627e-06
 114    -5.9144453322433e-06
 115    -3.5111876542158e-06
 116    -3.511541685147e-05
 117    0.00025318648448136
 118    -2.5531356805007e-06
 119    3.3492088456989e-06
 120    5.5672847933742e-06
 121    -5.0973565898713e-05
 122    9.8126751547025e-06
 123    3.0891658775918e-05
 124    1.7437325012824e-06
 125    -3.0011769713865e-06
 126    -2.7380028119269e-06
 127    5.2573370541727e-07
 128    -2.2994501012089e-06
 129    -5.82576657418e-06
 130    -5.6245038334478e-05
 131    0.0001548262959592
 132    6.6613785713941e-06
 133    -5.188767655226e-06
 134    2.3544928728362e-05
 135    -0.0003855424504422
 136     4.95924055831e-05
 137    -0.00042959917554902
 138     9.88140849137e-06
 139    1.412567189107e-05
 140    6.2746657971529e-06
 141    4.7859946446091e-06
 142    7.4461054315297e-06
 143    -1.9513954218527e-06
 144    -2.7551830816525e-05
 145    1.9049837774524e-05
 146    2.3796906924199e-06
 147    6.5327061229084e-06
 148    1.3801325765547e-05
 149    1.1440267297973e-05
 150    -3.3424503662633e-07
 151    -6.4021407330351e-05
 152    -7.5192075429428e-06
 153    -3.9912918673048e-06
 154    -3.351114751493e-06
 155    4.5050625153384e-06
 156    -4.1627110435137e-06
 157    1.6992694387155e-06
 158    1.3370182813699e-05
 159    -3.7387360341344e-05
 160    6.3892766848378e-06
 161    -9.2787603422626e-08
 162    -1.4816227771812e-06
 163    -5.228914160948e-05
 164    2.5107603515374e-05
 165    1.1068027808502e-05
 166    4.5598451188476e-06
 167    -5.670294313166e-07
 168    -2.2896369276198e-07
 169    8.5404918493507e-07
 170    2.0098879265359e-06
 171    -5.1699935698934e-07
 172    -1.3048405231124e-05
 173    2.398620309811e-05
 174    -4.1747510589254e-06
 175    -1.88012090569e-07
 176    1.1891404175353e-05
 177    -1.4707893046662e-06
 178    -2.1612125897054e-06
 179    -2.8833667673748e-05
 180    1.7315060851737e-06
 181    5.1126299556796e-06
 182    8.0054633016252e-07
 183    -1.3071925042696e-06
 184    1.7280265873772e-06
 185    -3.650562908481e-06
 186    -3.1418375959141e-05
 187    9.2638351314278e-05
 188    -2.786781055006e-06
 189    7.2342745486725e-07
 190    5.268286017088e-06
 191    -2.1732152482451e-06
 192    -1.442880500877e-05
 193    -7.8500262637512e-05
 194    3.6529984013958e-06
 195    1.8245425652316e-06
 196    2.8481232337962e-06
 197    -4.169995894332e-07
 198    4.5308445730122e-07
 199    -8.3537270021726e-06
 200    -1.6331647984995e-07
 201    -2.3885858369988e-06
 202    2.1839259320907e-05
 203    -1.213742100609e-05
 204    -7.0122751592753e-06
 205    -6.4821872914835e-07
 206    -2.9252713697394e-05
 207    1.1188761778655e-05
 208    -7.0587648425397e-05
 209    1.1591407090525e-05
 210    -2.7986532572913e-05
 211    6.4280795025711e-06
 212    1.8626547334996e-05
 213    -6.1892311633261e-07
 214    -2.2464943946233e-05
 215    -2.9602998224777e-06
 216    -3.0761581739083e-05
 217    1.6477292068143e-06
 218    9.3242909107058e-06
 219    5.491696538798e-07
 220    -1.4785637615548e-06
 221    -9.0736806410797e-06
 222    -9.2176744115066e-05
 223    0.00092441395286753
 224    -1.4661030543159e-05
 225    -1.2034649608971e-06
 226    1.2964485892631e-05
 227    0.0006757511707117
 228    0.00032036938341346
 229    -0.00097047475810665
 230    2.4993304413204e-06
 231    -4.5856272337807e-05
 232    -2.318796611234e-05
 233    2.2764687229196e-05
 234    2.3842730243074e-05
 235    -1.6066530786774e-05
 236    -4.0012010426477e-05
 237    -0.00023004339996973
 238    -2.1776227280016e-05
 239    -4.2306377683397e-06
 240    1.0278396287845e-05
 241    0.0003049492767528
 242    0.00035318662703303
 243    -0.0016178364161994
 244    1.1192470113349e-05
 245    7.4930977640683e-05
 246    1.5920123071384e-05
 247    1.9523306367952e-05
 248    -9.6094825740816e-07
 249    -3.5077970557828e-05
 250    0.00032642635557153
 251    -2.7387326528254e-05
 252    -0.00041914830905934
 253    0.0021983164046645
 254    8.6852879025207e-05
 255    -4.2059975756761e-05
 256    0.00023265694796462
 257    -3.0026552890478e-05
 258    0.00043851988873299
 259    -0.0018519436664781
 260    -7.0423601893575e-05
 261    -2.0822281325635e-05
 262    -1.9149470168058e-05
 263    0.00014700665033592
 264    9.4070761804475e-05
 265    -9.6151662493711e-05
 266    0.00021484597425374
 267    -0.00014510586641129
 268    -0.00055285147840548
 269    -8.2059258909031e-05
 270    -0.00054857656213466
 271    0.0072271059284837
 272    -6.0701882158972e-05
 273    0.00012000926348527
 274    0.00014235614829744
 275    -0.001798076784739
 276    -0.0029777450561096
 277    0.0028185638373388
 278    8.4844252704425e-05
 279    -0.00019208245353266
 280    -9.6986158296396e-05
 281    -3.2665982702471e-05