[Molden Format]
made by pyscf v[2.0.1]
[Atoms] (AU)
C   1   6     0.69100024066471     0.64692934207205    -3.48223131169301
H   2   1     2.68052439830868     1.13355088658700    -3.25784032593313
C   3   6    -0.36286361513219     0.85440132524594    -5.97030179418974
H   4   1    -2.35448549047279     0.36322488579172    -6.17995817793143
C   5   6     0.93697958957450     1.61209284601821    -8.05828437677121
H   6   1     0.01358296644616     2.85086245433209    -9.41980240085128
C   7   6     3.49095983212942     0.86501358647737    -8.58301400036413
H   8   1     4.39173101664678    -0.37544723242066    -7.20113468241566
H   9   1     1.55630230933075    -1.92953025305990    12.99630010416247
C   10   6     0.75233899775814    -2.21270439606481    11.10705728102219
H   11   1    -0.43433408177274    -3.90944857546550    11.22216085340412
C   12   6     2.86362581178706    -2.63237380607947     9.17926416456045
H   13   1     4.39038949912609    -1.24955421540245     9.49899813497433
H   14   1     3.74629220191363    -4.48798724300892     9.47414880959024
C   15   6     2.02478325613682    -2.42177285709634     6.44560829588644
C   16   6     3.88048732735477    -3.58795445234514     4.61402886975252
C   17   6    -0.18412382258602    -1.30464291234259     5.76021113872346
C   18   6    -2.10044360464350    -0.26837831858460     7.71610340967100
C   19   6    -3.08956938670431     2.35282328359417     6.88693925039594
C   20   6    -4.37372924086464    -2.09766595989678     7.93610724222001
C   21   6    -0.83850430601230     0.06372213486173    10.33002307638377
H   22   1     0.38411922151109     1.74281358582432    10.27380136542181
H   23   1    -2.30980003007874     0.45460143924521    11.73986301809809
H   24   1     4.58527064644668    -5.38706904487420     5.36778158031719
H   25   1     5.54944938085014    -2.37631462192748     4.35398898413318
H   26   1     3.06633019150423    -3.94118377050688     2.75255466040884
H   27   1    -4.17727778763735     2.26573369139522     5.12914900961283
H   28   1    -1.52662344944051     3.68001877445626     6.59540397144508
H   29   1    -4.32916174397830     3.13643051467482     8.35225460090378
H   30   1    -5.32329548508442    -2.36691813602939     6.11583672749896
H   31   1    -5.77989366602257    -1.33896741843465     9.25748940450990
H   32   1    -3.79310905208926    -3.96389819310853     8.61386170102686
C   33   6    -1.01100794811226    -1.06331657314144     3.11929490449947
C   34   6     0.37686231036534    -0.33275864505552     1.09165013605873
H   35   1    -3.01671213906703    -1.40297922279997     2.77827895090944
C   36   6    -0.64382707979370    -0.11591880174385    -1.42063131251064
H   37   1     2.35569259782137     0.17174499283897     1.33641070251401
H   38   1    -2.63317482980319    -0.60229203511219    -1.66119700387645
C   39   6     4.85727779250226     1.56932506344372   -10.63578143211247
C   40   6     7.45078580641309     0.70440198785573   -10.99998857146552
H   41   1     4.07326566832422     2.80126406203857   -12.08333786763668
O   42   8     8.78463246786107     1.26137953491899   -12.79761289932761
H   43   1     8.17650804893433    -0.55247504818230    -9.47232163774676
[GTO]
1 0
 s    6 1.00
             3047.5249  0.0018347001629433
             457.36951    0.01403730124668
             103.94869   0.068842606114048
             29.210155    0.23218442062076
              9.286663    0.46794134155879
              3.163927    0.36231203217765
 s    3 1.00
             7.8682724   -0.11933240861517
             1.8812885   -0.16085421161283
             0.5442493     1.1434564825515
 s    1 1.00
             0.1687144                   1
 p    3 1.00
             7.8682724   0.068999095584993
             1.8812885    0.31642397975315
             0.5442493    0.74430825237435
 p    1 1.00
             0.1687144                   1
 d    1 1.00
                   0.8                   1

2 0
 s    3 1.00
             18.731137    0.03349459952309
             2.8253937    0.23472694665786
             0.6401217    0.81375731841339
 s    1 1.00
             0.1612778                   1

3 0
 s    6 1.00
             3047.5249  0.0018347001629433
             457.36951    0.01403730124668
             103.94869   0.068842606114048
             29.210155    0.23218442062076
              9.286663    0.46794134155879
              3.163927    0.36231203217765
 s    3 1.00
             7.8682724   -0.11933240861517
             1.8812885   -0.16085421161283
             0.5442493     1.1434564825515
 s    1 1.00
             0.1687144                   1
 p    3 1.00
             7.8682724   0.068999095584993
             1.8812885    0.31642397975315
             0.5442493    0.74430825237435
 p    1 1.00
             0.1687144                   1
 d    1 1.00
                   0.8                   1

4 0
 s    3 1.00
             18.731137    0.03349459952309
             2.8253937    0.23472694665786
             0.6401217    0.81375731841339
 s    1 1.00
             0.1612778                   1

5 0
 s    6 1.00
             3047.5249  0.0018347001629433
             457.36951    0.01403730124668
             103.94869   0.068842606114048
             29.210155    0.23218442062076
              9.286663    0.46794134155879
              3.163927    0.36231203217765
 s    3 1.00
             7.8682724   -0.11933240861517
             1.8812885   -0.16085421161283
             0.5442493     1.1434564825515
 s    1 1.00
             0.1687144                   1
 p    3 1.00
             7.8682724   0.068999095584993
             1.8812885    0.31642397975315
             0.5442493    0.74430825237435
 p    1 1.00
             0.1687144                   1
 d    1 1.00
                   0.8                   1

6 0
 s    3 1.00
             18.731137    0.03349459952309
             2.8253937    0.23472694665786
             0.6401217    0.81375731841339
 s    1 1.00
             0.1612778                   1

7 0
 s    6 1.00
             3047.5249  0.0018347001629433
             457.36951    0.01403730124668
             103.94869   0.068842606114048
             29.210155    0.23218442062076
              9.286663    0.46794134155879
              3.163927    0.36231203217765
 s    3 1.00
             7.8682724   -0.11933240861517
             1.8812885   -0.16085421161283
             0.5442493     1.1434564825515
 s    1 1.00
             0.1687144                   1
 p    3 1.00
             7.8682724   0.068999095584993
             1.8812885    0.31642397975315
             0.5442493    0.74430825237435
 p    1 1.00
             0.1687144                   1
 d    1 1.00
                   0.8                   1

8 0
 s    3 1.00
             18.731137    0.03349459952309
             2.8253937    0.23472694665786
             0.6401217    0.81375731841339
 s    1 1.00
             0.1612778                   1

9 0
 s    3 1.00
             18.731137    0.03349459952309
             2.8253937    0.23472694665786
             0.6401217    0.81375731841339
 s    1 1.00
             0.1612778                   1

10 0
 s    6 1.00
             3047.5249  0.0018347001629433
             457.36951    0.01403730124668
             103.94869   0.068842606114048
             29.210155    0.23218442062076
              9.286663    0.46794134155879
              3.163927    0.36231203217765
 s    3 1.00
             7.8682724   -0.11933240861517
             1.8812885   -0.16085421161283
             0.5442493     1.1434564825515
 s    1 1.00
             0.1687144                   1
 p    3 1.00
             7.8682724   0.068999095584993
             1.8812885    0.31642397975315
             0.5442493    0.74430825237435
 p    1 1.00
             0.1687144                   1
 d    1 1.00
                   0.8                   1

11 0
 s    3 1.00
             18.731137    0.03349459952309
             2.8253937    0.23472694665786
             0.6401217    0.81375731841339
 s    1 1.00
             0.1612778                   1

12 0
 s    6 1.00
             3047.5249  0.0018347001629433
             457.36951    0.01403730124668
             103.94869   0.068842606114048
             29.210155    0.23218442062076
              9.286663    0.46794134155879
              3.163927    0.36231203217765
 s    3 1.00
             7.8682724   -0.11933240861517
             1.8812885   -0.16085421161283
             0.5442493     1.1434564825515
 s    1 1.00
             0.1687144                   1
 p    3 1.00
             7.8682724   0.068999095584993
             1.8812885    0.31642397975315
             0.5442493    0.74430825237435
 p    1 1.00
             0.1687144                   1
 d    1 1.00
                   0.8                   1

13 0
 s    3 1.00
             18.731137    0.03349459952309
             2.8253937    0.23472694665786
             0.6401217    0.81375731841339
 s    1 1.00
             0.1612778                   1

14 0
 s    3 1.00
             18.731137    0.03349459952309
             2.8253937    0.23472694665786
             0.6401217    0.81375731841339
 s    1 1.00
             0.1612778                   1

15 0
 s    6 1.00
             3047.5249  0.0018347001629433
             457.36951    0.01403730124668
             103.94869   0.068842606114048
             29.210155    0.23218442062076
              9.286663    0.46794134155879
              3.163927    0.36231203217765
 s    3 1.00
             7.8682724   -0.11933240861517
             1.8812885   -0.16085421161283
             0.5442493     1.1434564825515
 s    1 1.00
             0.1687144                   1
 p    3 1.00
             7.8682724   0.068999095584993
             1.8812885    0.31642397975315
             0.5442493    0.74430825237435
 p    1 1.00
             0.1687144                   1
 d    1 1.00
                   0.8                   1

16 0
 s    6 1.00
             3047.5249  0.0018347001629433
             457.36951    0.01403730124668
             103.94869   0.068842606114048
             29.210155    0.23218442062076
              9.286663    0.46794134155879
              3.163927    0.36231203217765
 s    3 1.00
             7.8682724   -0.11933240861517
             1.8812885   -0.16085421161283
             0.5442493     1.1434564825515
 s    1 1.00
             0.1687144                   1
 p    3 1.00
             7.8682724   0.068999095584993
             1.8812885    0.31642397975315
             0.5442493    0.74430825237435
 p    1 1.00
             0.1687144                   1
 d    1 1.00
                   0.8                   1

17 0
 s    6 1.00
             3047.5249  0.0018347001629433
             457.36951    0.01403730124668
             103.94869   0.068842606114048
             29.210155    0.23218442062076
              9.286663    0.46794134155879
              3.163927    0.36231203217765
 s    3 1.00
             7.8682724   -0.11933240861517
             1.8812885   -0.16085421161283
             0.5442493     1.1434564825515
 s    1 1.00
             0.1687144                   1
 p    3 1.00
             7.8682724   0.068999095584993
             1.8812885    0.31642397975315
             0.5442493    0.74430825237435
 p    1 1.00
             0.1687144                   1
 d    1 1.00
                   0.8                   1

18 0
 s    6 1.00
             3047.5249  0.0018347001629433
             457.36951    0.01403730124668
             103.94869   0.068842606114048
             29.210155    0.23218442062076
              9.286663    0.46794134155879
              3.163927    0.36231203217765
 s    3 1.00
             7.8682724   -0.11933240861517
             1.8812885   -0.16085421161283
             0.5442493     1.1434564825515
 s    1 1.00
             0.1687144                   1
 p    3 1.00
             7.8682724   0.068999095584993
             1.8812885    0.31642397975315
             0.5442493    0.74430825237435
 p    1 1.00
             0.1687144                   1
 d    1 1.00
                   0.8                   1

19 0
 s    6 1.00
             3047.5249  0.0018347001629433
             457.36951    0.01403730124668
             103.94869   0.068842606114048
             29.210155    0.23218442062076
              9.286663    0.46794134155879
              3.163927    0.36231203217765
 s    3 1.00
             7.8682724   -0.11933240861517
             1.8812885   -0.16085421161283
             0.5442493     1.1434564825515
 s    1 1.00
             0.1687144                   1
 p    3 1.00
             7.8682724   0.068999095584993
             1.8812885    0.31642397975315
             0.5442493    0.74430825237435
 p    1 1.00
             0.1687144                   1
 d    1 1.00
                   0.8                   1

20 0
 s    6 1.00
             3047.5249  0.0018347001629433
             457.36951    0.01403730124668
             103.94869   0.068842606114048
             29.210155    0.23218442062076
              9.286663    0.46794134155879
              3.163927    0.36231203217765
 s    3 1.00
             7.8682724   -0.11933240861517
             1.8812885   -0.16085421161283
             0.5442493     1.1434564825515
 s    1 1.00
             0.1687144                   1
 p    3 1.00
             7.8682724   0.068999095584993
             1.8812885    0.31642397975315
             0.5442493    0.74430825237435
 p    1 1.00
             0.1687144                   1
 d    1 1.00
                   0.8                   1

21 0
 s    6 1.00
             3047.5249  0.0018347001629433
             457.36951    0.01403730124668
             103.94869   0.068842606114048
             29.210155    0.23218442062076
              9.286663    0.46794134155879
              3.163927    0.36231203217765
 s    3 1.00
             7.8682724   -0.11933240861517
             1.8812885   -0.16085421161283
             0.5442493     1.1434564825515
 s    1 1.00
             0.1687144                   1
 p    3 1.00
             7.8682724   0.068999095584993
             1.8812885    0.31642397975315
             0.5442493    0.74430825237435
 p    1 1.00
             0.1687144                   1
 d    1 1.00
                   0.8                   1

22 0
 s    3 1.00
             18.731137    0.03349459952309
             2.8253937    0.23472694665786
             0.6401217    0.81375731841339
 s    1 1.00
             0.1612778                   1

23 0
 s    3 1.00
             18.731137    0.03349459952309
             2.8253937    0.23472694665786
             0.6401217    0.81375731841339
 s    1 1.00
             0.1612778                   1

24 0
 s    3 1.00
             18.731137    0.03349459952309
             2.8253937    0.23472694665786
             0.6401217    0.81375731841339
 s    1 1.00
             0.1612778                   1

25 0
 s    3 1.00
             18.731137    0.03349459952309
             2.8253937    0.23472694665786
             0.6401217    0.81375731841339
 s    1 1.00
             0.1612778                   1

26 0
 s    3 1.00
             18.731137    0.03349459952309
             2.8253937    0.23472694665786
             0.6401217    0.81375731841339
 s    1 1.00
             0.1612778                   1

27 0
 s    3 1.00
             18.731137    0.03349459952309
             2.8253937    0.23472694665786
             0.6401217    0.81375731841339
 s    1 1.00
             0.1612778                   1

28 0
 s    3 1.00
             18.731137    0.03349459952309
             2.8253937    0.23472694665786
             0.6401217    0.81375731841339
 s    1 1.00
             0.1612778                   1

29 0
 s    3 1.00
             18.731137    0.03349459952309
             2.8253937    0.23472694665786
             0.6401217    0.81375731841339
 s    1 1.00
             0.1612778                   1

30 0
 s    3 1.00
             18.731137    0.03349459952309
             2.8253937    0.23472694665786
             0.6401217    0.81375731841339
 s    1 1.00
             0.1612778                   1

31 0
 s    3 1.00
             18.731137    0.03349459952309
             2.8253937    0.23472694665786
             0.6401217    0.81375731841339
 s    1 1.00
             0.1612778                   1

32 0
 s    3 1.00
             18.731137    0.03349459952309
             2.8253937    0.23472694665786
             0.6401217    0.81375731841339
 s    1 1.00
             0.1612778                   1

33 0
 s    6 1.00
             3047.5249  0.0018347001629433
             457.36951    0.01403730124668
             103.94869   0.068842606114048
             29.210155    0.23218442062076
              9.286663    0.46794134155879
              3.163927    0.36231203217765
 s    3 1.00
             7.8682724   -0.11933240861517
             1.8812885   -0.16085421161283
             0.5442493     1.1434564825515
 s    1 1.00
             0.1687144                   1
 p    3 1.00
             7.8682724   0.068999095584993
             1.8812885    0.31642397975315
             0.5442493    0.74430825237435
 p    1 1.00
             0.1687144                   1
 d    1 1.00
                   0.8                   1

34 0
 s    6 1.00
             3047.5249  0.0018347001629433
             457.36951    0.01403730124668
             103.94869   0.068842606114048
             29.210155    0.23218442062076
              9.286663    0.46794134155879
              3.163927    0.36231203217765
 s    3 1.00
             7.8682724   -0.11933240861517
             1.8812885   -0.16085421161283
             0.5442493     1.1434564825515
 s    1 1.00
             0.1687144                   1
 p    3 1.00
             7.8682724   0.068999095584993
             1.8812885    0.31642397975315
             0.5442493    0.74430825237435
 p    1 1.00
             0.1687144                   1
 d    1 1.00
                   0.8                   1

35 0
 s    3 1.00
             18.731137    0.03349459952309
             2.8253937    0.23472694665786
             0.6401217    0.81375731841339
 s    1 1.00
             0.1612778                   1

36 0
 s    6 1.00
             3047.5249  0.0018347001629433
             457.36951    0.01403730124668
             103.94869   0.068842606114048
             29.210155    0.23218442062076
              9.286663    0.46794134155879
              3.163927    0.36231203217765
 s    3 1.00
             7.8682724   -0.11933240861517
             1.8812885   -0.16085421161283
             0.5442493     1.1434564825515
 s    1 1.00
             0.1687144                   1
 p    3 1.00
             7.8682724   0.068999095584993
             1.8812885    0.31642397975315
             0.5442493    0.74430825237435
 p    1 1.00
             0.1687144                   1
 d    1 1.00
                   0.8                   1

37 0
 s    3 1.00
             18.731137    0.03349459952309
             2.8253937    0.23472694665786
             0.6401217    0.81375731841339
 s    1 1.00
             0.1612778                   1

38 0
 s    3 1.00
             18.731137    0.03349459952309
             2.8253937    0.23472694665786
             0.6401217    0.81375731841339
 s    1 1.00
             0.1612778                   1

39 0
 s    6 1.00
             3047.5249  0.0018347001629433
             457.36951    0.01403730124668
             103.94869   0.068842606114048
             29.210155    0.23218442062076
              9.286663    0.46794134155879
              3.163927    0.36231203217765
 s    3 1.00
             7.8682724   -0.11933240861517
             1.8812885   -0.16085421161283
             0.5442493     1.1434564825515
 s    1 1.00
             0.1687144                   1
 p    3 1.00
             7.8682724   0.068999095584993
             1.8812885    0.31642397975315
             0.5442493    0.74430825237435
 p    1 1.00
             0.1687144                   1
 d    1 1.00
                   0.8                   1

40 0
 s    6 1.00
             3047.5249  0.0018347001629433
             457.36951    0.01403730124668
             103.94869   0.068842606114048
             29.210155    0.23218442062076
              9.286663    0.46794134155879
              3.163927    0.36231203217765
 s    3 1.00
             7.8682724   -0.11933240861517
             1.8812885   -0.16085421161283
             0.5442493     1.1434564825515
 s    1 1.00
             0.1687144                   1
 p    3 1.00
             7.8682724   0.068999095584993
             1.8812885    0.31642397975315
             0.5442493    0.74430825237435
 p    1 1.00
             0.1687144                   1
 d    1 1.00
                   0.8                   1

41 0
 s    3 1.00
             18.731137    0.03349459952309
             2.8253937    0.23472694665786
             0.6401217    0.81375731841339
 s    1 1.00
             0.1612778                   1

42 0
 s    6 1.00
             5484.6717   0.001831099805527
             825.23495   0.013950098518422
             188.04696    0.06844509273075
               52.9645    0.23271427528445
              16.89757    0.47019295006289
             5.7996353    0.35852086192309
 s    3 1.00
             15.539616   -0.11077750382508
             3.5999336   -0.14802630511126
             1.0137618     1.1307670390447
 s    1 1.00
             0.2700058                   1
 p    3 1.00
             15.539616   0.070874299543311
             3.5999336    0.33975279781076
             1.0137618    0.72715859531445
 p    1 1.00
             0.2700058                   1
 d    1 1.00
                   0.8                   1

43 0
 s    3 1.00
             18.731137    0.03349459952309
             2.8253937    0.23472694665786
             0.6401217    0.81375731841339
 s    1 1.00
             0.1612778                   1

[5d]
[7f]
[9g]

[MO]
 Sym= A
 Ene=               0
 Spin= Alpha
 Occup=    1.00000
   1    -0.013128210844671
   2    0.0012262197329899
   3    -0.0083909353534126
   4    -0.00052971802048085
   5    0.00018592201238793
   6    -0.0012444641241323
   7    -0.00018311676598571
   8    -0.0010964152218101
   9     0.004028661491762
  10    0.0010137633861277
  11    0.0010428246859973
  12    -0.0001146924260613
  13    0.00025398194196597
  14    -7.0215535305765e-05
  15    0.00042419694770044
  16    0.0010160550200448
  17      -0.9944987073352
  18    -0.038679989181414
  19     0.030122485611346
  20    -0.00092819175860842
  21    -0.00024661567184847
  22    0.00022332722731493
  23    0.0036758936032179
  24    0.00096471521157654
  25    0.00053921198641342
  26    -0.00077925032128552
  27    0.00027682478128215
  28    0.00037872062408888
  29    -0.00019332352206599
  30    -0.00023557697239945
  31    0.0013331753423253
  32    -0.0040648170175296
  33    -0.024594765060884
  34    0.00094944561877926
  35    -0.0063112617944198
  36    -0.0009366644938929
  37    -0.00049369047401565
  38    0.0014398452655343
  39    0.0020889709143855
  40    -7.9117151216341e-05
  41    -0.0029519450545149
  42    0.00061483175490621
  43    -0.0011460840613072
  44    -0.00063497416236169
  45    0.00037828051520747
  46    0.00050480611365644
  47    0.00041040034724268
  48    -5.6504254938994e-05
  49    0.00063327861875966
  50    0.00033522607868073
  51    0.0022347648822633
  52    -0.00031582309595535
  53    -0.00017127830513085
  54    0.00021711871682216
  55    0.0031597741190436
  56    0.0013833969316262
  57    -0.0031371503894803
  58    7.2520195805452e-05
  59    -0.00017518569597168
  60    7.1574916558194e-05
  61    -5.253795535019e-05
  62    0.0001591282394906
  63    0.00032377006226041
  64    0.00015604333132392
  65    2.142979260164e-06
  66    6.1860232157611e-06
  67    -2.2525310511214e-07
  68    -2.3157719747909e-06
  69    4.8176740364584e-06
  70    -1.1580184546741e-07
  71    2.9836983381732e-06
  72    9.5535146541322e-07
  73    -1.2338124442008e-05
  74    -2.5933237366294e-05
  75    -1.3977447173633e-05
  76    2.0694690716101e-07
  77    -1.4249618500699e-07
  78    2.1027226336898e-07
  79    -1.9229543444848e-07
  80    -2.0722852389765e-07
  81    -2.8485325884587e-06
  82    -1.5073565295213e-05
  83    2.2767533238494e-07
  84    9.570156587332e-07
  85    2.3086874170243e-05
  86    -2.2291648764131e-06
  87    -3.5841014801212e-06
  88    -1.9902427162267e-06
  89    -4.8882930181976e-06
  90    4.8251875884808e-05
  91    -1.1759947238004e-06
  92    -1.5140527399728e-06
  93    1.1737346205312e-06
  94    -2.0882383855402e-06
  95    3.580433504292e-07
  96    8.3232210584137e-07
  97    -4.8602538216133e-06
  98    -1.2327525848875e-05
  99    3.5814307405728e-06
 100    1.6671836114786e-05
 101    -2.8666774113234e-07
 102    2.9368190875592e-06
 103    -4.7922097867903e-05
 104    2.2236165633917e-06
 105    8.6136727111737e-06
 106    -1.5545353052705e-06
 107    8.4355334385419e-05
 108    -0.00010209429430724
 109    -8.4348142626138e-05
 110    6.4776211508145e-06
 111    4.4266459126639e-07
 112    -6.928124276823e-08
 113    2.1805373270154e-07
 114    1.8653735379365e-06
 115    2.9097591433637e-06
 116    3.0256318168341e-05
 117    -0.00016903262326911
 118    -3.4041142691044e-07
 119    2.9946058509076e-06
 120    -5.9402391297026e-06
 121    4.2270155656385e-05
 122    -3.2386610680532e-05
 123    -1.1595068002524e-06
 124    -8.763807435728e-07
 125    2.3945125009328e-06
 126    1.5549946506676e-06
 127    -1.379435356105e-06
 128    1.5603240074606e-06
 129    3.3804163079496e-06
 130    3.6642552718031e-05
 131    5.5703846473999e-05
 132    3.2133338345508e-06
 133    4.448061748481e-06
 134    -2.1099494552486e-05
 135    0.00011845503968462
 136    1.8184765435662e-05
 137    0.00015126285362989
 138    6.9195494237798e-07
 139    -1.0513696183223e-05
 140    -2.1846099378451e-06
 141    -5.1127934580888e-06
 142    -5.3637656246346e-06
 143    1.8367362636501e-06
 144    2.3356334803217e-05
 145    -6.5028193804398e-05
 146    -2.4529612666016e-06
 147    -5.5199726147061e-06
 148    -7.7787311356739e-06
 149    -3.5148221641108e-06
 150    5.6174480588311e-06
 151    7.6120364733089e-05
 152    2.1062343377087e-06
 153    4.7002550524464e-06
 154    9.5713514931076e-07
 155    -2.3504331065518e-06
 156    1.7211565683783e-06
 157    -1.2149043164277e-06
 158    -9.3955696029165e-06
 159    3.4420167920021e-05
 160    -4.3022171097348e-06
 161    7.715033141487e-08
 162    1.9189063040177e-06
 163    3.2508132800109e-05
 164    -2.5042145844129e-05
 165    -1.3182155393388e-05
 166    -3.1470891746114e-06
 167    1.0805014134665e-06
 168    5.5476655782624e-07
 169    -1.4862936545879e-06
 170    -5.8778378387021e-07
 171    9.4331992991263e-07
 172    1.5641063192544e-05
 173    -3.2360543085711e-05
 174    3.5359751017791e-06
 175    -2.9152760421801e-07
 176    -9.3290954585036e-06
 177    4.5398276312228e-06
 178    1.199655319696e-05
 179    2.9226807816092e-05
 180    -1.6727635669213e-06
 181    -3.5408142452595e-06
 182    -1.2631294580385e-06
 183    6.1197989186291e-07
 184    -5.3818785506161e-07
 185    2.0019313930387e-06
 186    1.5548228330467e-05
 187    -5.7519459139899e-05
 188    4.4648111688669e-07
 189    -7.4335203241043e-08
 190    -1.8873664518111e-06
 191    1.7617113833213e-05
 192    9.2433361465236e-06
 193    4.5027699144937e-05
 194    -1.407416330039e-06
 195    -1.3714876525326e-06
 196    -1.3778584621121e-06
 197    -2.1742789476889e-07
 198    -5.4749794646012e-07
 199     3.52346392481e-06
 200    -4.8254779526268e-06
 201    3.0606159625284e-06
 202    -7.5087856461431e-06
 203    6.3399741296999e-06
 204    -1.2792306594666e-05
 205    3.2773287276071e-06
 206    2.5412349917199e-05
 207    -6.2799290378548e-06
 208    5.1094438579782e-05
 209    -8.7429340540543e-06
 210    1.6608581997228e-05
 211    -4.8641461040406e-06
 212    -9.4100353511106e-06
 213    7.1568010123367e-07
 214    1.6001520624881e-05
 215    -8.4225346030607e-08
 216    4.7527371618182e-05
 217    -4.4458310600712e-09
 218    -1.1017153188804e-05
 219    1.4767125936668e-06
 220    5.5350283133307e-06
 221    4.8280390873556e-06
 222    5.7284313028162e-05
 223    -0.00082422224357757
 224    2.1204464330148e-05
 225    2.8943014593567e-06
 226    2.5707563558827e-06
 227    -0.00064155596107071
 228    -0.00022913233249513
 229    0.00040192841781146
 230    -2.2073970378932e-06
 231    2.8597199459719e-05
 232    1.1591262882231e-05
 233    -1.6762906290142e-05
 234    -1.573572708282e-05
 235    2.1926831960945e-05
 236    6.2065264223259e-05
 237    -0.00050883843777145
 238     1.78247331915e-05
 239    1.7025671961676e-06
 240    1.3938350515929e-05
 241    -0.00012301989067197
 242    -0.00037981784681509
 243    0.0016247371730615
 244    -2.7401793638296e-05
 245    -6.1856386302913e-05
 246    2.6688985836371e-06
 247    -1.7572561439375e-05
 248    8.2714031161003e-06
 249    1.2178984597415e-05
 250    -0.00032333875904876
 251    6.5742447366547e-06
 252    0.0002682802285735
 253    -7.4802314734156e-05
 254    -8.5056710637798e-05
 255    1.2016014004112e-05
 256    -0.00026191886078999
 257    0.00082887776798168
 258    0.00011577532206121
 259    0.0013118669920463
 260    9.8816819338461e-05
 261    -9.5832937493989e-06
 262    -1.8288645242955e-05
 263    -0.00013703255159255
 264    -5.9015820403919e-05
 265    8.1466094007895e-05
 266    -0.00015214890047999
 267    0.00015393247954972
 268    0.00069338530714865
 269    5.5394683051066e-05
 270    0.00034139599813639
 271    -0.0045414898778046
 272    0.00010179562778764
 273    1.5470338041806e-05
 274    -3.1112745357362e-05
 275    0.0010554314364947
 276    0.00086188195173259
 277    -0.0025511497373774
 278    -0.00010589545798665
 279    0.00010079752080889
 280    7.0990532153116e-05