[Molden Format]
made by pyscf v[2.0.1]
[Atoms] (AU)
C   1   6     0.69100024066471     0.64692934207205    -3.48223131169301
H   2   1     2.68052439830868     1.13355088658700    -3.25784032593313
C   3   6    -0.36286361513219     0.85440132524594    -5.97030179418974
H   4   1    -2.35448549047279     0.36322488579172    -6.17995817793143
C   5   6     0.93697958957450     1.61209284601821    -8.05828437677121
H   6   1     2.28684852848462     3.15852966115860    -7.89296704602693
C   7   6     0.63106041134958     0.47904579632082   -10.50346361691732
H   8   1    -0.72718870892227    -1.06897620367389   -10.63951300078030
H   9   1     1.55630230933075    -1.92953025305990    12.99630010416247
C   10   6     0.75233899775814    -2.21270439606481    11.10705728102219
H   11   1    -0.43433408177274    -3.90944857546550    11.22216085340412
C   12   6     2.86362581178706    -2.63237380607947     9.17926416456045
H   13   1     4.39038949912609    -1.24955421540245     9.49899813497433
H   14   1     3.74629220191363    -4.48798724300892     9.47414880959024
C   15   6     2.02478325613682    -2.42177285709634     6.44560829588644
C   16   6     3.88048732735477    -3.58795445234514     4.61402886975252
C   17   6    -0.18412382258602    -1.30464291234259     5.76021113872346
C   18   6    -2.10044360464350    -0.26837831858460     7.71610340967100
C   19   6    -3.08956938670431     2.35282328359417     6.88693925039594
C   20   6    -4.37372924086464    -2.09766595989678     7.93610724222001
C   21   6    -0.83850430601230     0.06372213486173    10.33002307638377
H   22   1     0.38411922151109     1.74281358582432    10.27380136542181
H   23   1    -2.30980003007874     0.45460143924521    11.73986301809809
H   24   1     4.58527064644668    -5.38706904487420     5.36778158031719
H   25   1     5.54944938085014    -2.37631462192748     4.35398898413318
H   26   1     3.06633019150423    -3.94118377050688     2.75255466040884
H   27   1    -4.17727778763735     2.26573369139522     5.12914900961283
H   28   1    -1.52662344944051     3.68001877445626     6.59540397144508
H   29   1    -4.32916174397830     3.13643051467482     8.35225460090378
H   30   1    -5.32329548508442    -2.36691813602939     6.11583672749896
H   31   1    -5.77989366602257    -1.33896741843465     9.25748940450990
H   32   1    -3.79310905208926    -3.96389819310853     8.61386170102686
C   33   6    -1.01100794811226    -1.06331657314144     3.11929490449947
C   34   6     0.37686231036534    -0.33275864505552     1.09165013605873
H   35   1    -3.01671213906703    -1.40297922279997     2.77827895090944
C   36   6    -0.64382707979370    -0.11591880174385    -1.42063131251064
H   37   1     2.35569259782137     0.17174499283897     1.33641070251401
H   38   1    -2.63317482980319    -0.60229203511219    -1.66119700387645
C   39   6     1.88057107480096     1.17167710004378   -12.63318625924474
C   40   6     1.43424299107759    -0.10242214041261   -15.03828188134704
H   41   1     3.25774949416826     2.69847908646217   -12.62832443574420
O   42   8     2.48751113017790     0.42264932688836   -17.02215443525925
H   43   1     0.01015752982003    -1.65333508727432   -14.95564685399208
[GTO]
1 0
 s    6 1.00
             3047.5249  0.0018347001629433
             457.36951    0.01403730124668
             103.94869   0.068842606114048
             29.210155    0.23218442062076
              9.286663    0.46794134155879
              3.163927    0.36231203217765
 s    3 1.00
             7.8682724   -0.11933240861517
             1.8812885   -0.16085421161283
             0.5442493     1.1434564825515
 s    1 1.00
             0.1687144                   1
 p    3 1.00
             7.8682724   0.068999095584993
             1.8812885    0.31642397975315
             0.5442493    0.74430825237435
 p    1 1.00
             0.1687144                   1
 d    1 1.00
                   0.8                   1

2 0
 s    3 1.00
             18.731137    0.03349459952309
             2.8253937    0.23472694665786
             0.6401217    0.81375731841339
 s    1 1.00
             0.1612778                   1

3 0
 s    6 1.00
             3047.5249  0.0018347001629433
             457.36951    0.01403730124668
             103.94869   0.068842606114048
             29.210155    0.23218442062076
              9.286663    0.46794134155879
              3.163927    0.36231203217765
 s    3 1.00
             7.8682724   -0.11933240861517
             1.8812885   -0.16085421161283
             0.5442493     1.1434564825515
 s    1 1.00
             0.1687144                   1
 p    3 1.00
             7.8682724   0.068999095584993
             1.8812885    0.31642397975315
             0.5442493    0.74430825237435
 p    1 1.00
             0.1687144                   1
 d    1 1.00
                   0.8                   1

4 0
 s    3 1.00
             18.731137    0.03349459952309
             2.8253937    0.23472694665786
             0.6401217    0.81375731841339
 s    1 1.00
             0.1612778                   1

5 0
 s    6 1.00
             3047.5249  0.0018347001629433
             457.36951    0.01403730124668
             103.94869   0.068842606114048
             29.210155    0.23218442062076
              9.286663    0.46794134155879
              3.163927    0.36231203217765
 s    3 1.00
             7.8682724   -0.11933240861517
             1.8812885   -0.16085421161283
             0.5442493     1.1434564825515
 s    1 1.00
             0.1687144                   1
 p    3 1.00
             7.8682724   0.068999095584993
             1.8812885    0.31642397975315
             0.5442493    0.74430825237435
 p    1 1.00
             0.1687144                   1
 d    1 1.00
                   0.8                   1

6 0
 s    3 1.00
             18.731137    0.03349459952309
             2.8253937    0.23472694665786
             0.6401217    0.81375731841339
 s    1 1.00
             0.1612778                   1

7 0
 s    6 1.00
             3047.5249  0.0018347001629433
             457.36951    0.01403730124668
             103.94869   0.068842606114048
             29.210155    0.23218442062076
              9.286663    0.46794134155879
              3.163927    0.36231203217765
 s    3 1.00
             7.8682724   -0.11933240861517
             1.8812885   -0.16085421161283
             0.5442493     1.1434564825515
 s    1 1.00
             0.1687144                   1
 p    3 1.00
             7.8682724   0.068999095584993
             1.8812885    0.31642397975315
             0.5442493    0.74430825237435
 p    1 1.00
             0.1687144                   1
 d    1 1.00
                   0.8                   1

8 0
 s    3 1.00
             18.731137    0.03349459952309
             2.8253937    0.23472694665786
             0.6401217    0.81375731841339
 s    1 1.00
             0.1612778                   1

9 0
 s    3 1.00
             18.731137    0.03349459952309
             2.8253937    0.23472694665786
             0.6401217    0.81375731841339
 s    1 1.00
             0.1612778                   1

10 0
 s    6 1.00
             3047.5249  0.0018347001629433
             457.36951    0.01403730124668
             103.94869   0.068842606114048
             29.210155    0.23218442062076
              9.286663    0.46794134155879
              3.163927    0.36231203217765
 s    3 1.00
             7.8682724   -0.11933240861517
             1.8812885   -0.16085421161283
             0.5442493     1.1434564825515
 s    1 1.00
             0.1687144                   1
 p    3 1.00
             7.8682724   0.068999095584993
             1.8812885    0.31642397975315
             0.5442493    0.74430825237435
 p    1 1.00
             0.1687144                   1
 d    1 1.00
                   0.8                   1

11 0
 s    3 1.00
             18.731137    0.03349459952309
             2.8253937    0.23472694665786
             0.6401217    0.81375731841339
 s    1 1.00
             0.1612778                   1

12 0
 s    6 1.00
             3047.5249  0.0018347001629433
             457.36951    0.01403730124668
             103.94869   0.068842606114048
             29.210155    0.23218442062076
              9.286663    0.46794134155879
              3.163927    0.36231203217765
 s    3 1.00
             7.8682724   -0.11933240861517
             1.8812885   -0.16085421161283
             0.5442493     1.1434564825515
 s    1 1.00
             0.1687144                   1
 p    3 1.00
             7.8682724   0.068999095584993
             1.8812885    0.31642397975315
             0.5442493    0.74430825237435
 p    1 1.00
             0.1687144                   1
 d    1 1.00
                   0.8                   1

13 0
 s    3 1.00
             18.731137    0.03349459952309
             2.8253937    0.23472694665786
             0.6401217    0.81375731841339
 s    1 1.00
             0.1612778                   1

14 0
 s    3 1.00
             18.731137    0.03349459952309
             2.8253937    0.23472694665786
             0.6401217    0.81375731841339
 s    1 1.00
             0.1612778                   1

15 0
 s    6 1.00
             3047.5249  0.0018347001629433
             457.36951    0.01403730124668
             103.94869   0.068842606114048
             29.210155    0.23218442062076
              9.286663    0.46794134155879
              3.163927    0.36231203217765
 s    3 1.00
             7.8682724   -0.11933240861517
             1.8812885   -0.16085421161283
             0.5442493     1.1434564825515
 s    1 1.00
             0.1687144                   1
 p    3 1.00
             7.8682724   0.068999095584993
             1.8812885    0.31642397975315
             0.5442493    0.74430825237435
 p    1 1.00
             0.1687144                   1
 d    1 1.00
                   0.8                   1

16 0
 s    6 1.00
             3047.5249  0.0018347001629433
             457.36951    0.01403730124668
             103.94869   0.068842606114048
             29.210155    0.23218442062076
              9.286663    0.46794134155879
              3.163927    0.36231203217765
 s    3 1.00
             7.8682724   -0.11933240861517
             1.8812885   -0.16085421161283
             0.5442493     1.1434564825515
 s    1 1.00
             0.1687144                   1
 p    3 1.00
             7.8682724   0.068999095584993
             1.8812885    0.31642397975315
             0.5442493    0.74430825237435
 p    1 1.00
             0.1687144                   1
 d    1 1.00
                   0.8                   1

17 0
 s    6 1.00
             3047.5249  0.0018347001629433
             457.36951    0.01403730124668
             103.94869   0.068842606114048
             29.210155    0.23218442062076
              9.286663    0.46794134155879
              3.163927    0.36231203217765
 s    3 1.00
             7.8682724   -0.11933240861517
             1.8812885   -0.16085421161283
             0.5442493     1.1434564825515
 s    1 1.00
             0.1687144                   1
 p    3 1.00
             7.8682724   0.068999095584993
             1.8812885    0.31642397975315
             0.5442493    0.74430825237435
 p    1 1.00
             0.1687144                   1
 d    1 1.00
                   0.8                   1

18 0
 s    6 1.00
             3047.5249  0.0018347001629433
             457.36951    0.01403730124668
             103.94869   0.068842606114048
             29.210155    0.23218442062076
              9.286663    0.46794134155879
              3.163927    0.36231203217765
 s    3 1.00
             7.8682724   -0.11933240861517
             1.8812885   -0.16085421161283
             0.5442493     1.1434564825515
 s    1 1.00
             0.1687144                   1
 p    3 1.00
             7.8682724   0.068999095584993
             1.8812885    0.31642397975315
             0.5442493    0.74430825237435
 p    1 1.00
             0.1687144                   1
 d    1 1.00
                   0.8                   1

19 0
 s    6 1.00
             3047.5249  0.0018347001629433
             457.36951    0.01403730124668
             103.94869   0.068842606114048
             29.210155    0.23218442062076
              9.286663    0.46794134155879
              3.163927    0.36231203217765
 s    3 1.00
             7.8682724   -0.11933240861517
             1.8812885   -0.16085421161283
             0.5442493     1.1434564825515
 s    1 1.00
             0.1687144                   1
 p    3 1.00
             7.8682724   0.068999095584993
             1.8812885    0.31642397975315
             0.5442493    0.74430825237435
 p    1 1.00
             0.1687144                   1
 d    1 1.00
                   0.8                   1

20 0
 s    6 1.00
             3047.5249  0.0018347001629433
             457.36951    0.01403730124668
             103.94869   0.068842606114048
             29.210155    0.23218442062076
              9.286663    0.46794134155879
              3.163927    0.36231203217765
 s    3 1.00
             7.8682724   -0.11933240861517
             1.8812885   -0.16085421161283
             0.5442493     1.1434564825515
 s    1 1.00
             0.1687144                   1
 p    3 1.00
             7.8682724   0.068999095584993
             1.8812885    0.31642397975315
             0.5442493    0.74430825237435
 p    1 1.00
             0.1687144                   1
 d    1 1.00
                   0.8                   1

21 0
 s    6 1.00
             3047.5249  0.0018347001629433
             457.36951    0.01403730124668
             103.94869   0.068842606114048
             29.210155    0.23218442062076
              9.286663    0.46794134155879
              3.163927    0.36231203217765
 s    3 1.00
             7.8682724   -0.11933240861517
             1.8812885   -0.16085421161283
             0.5442493     1.1434564825515
 s    1 1.00
             0.1687144                   1
 p    3 1.00
             7.8682724   0.068999095584993
             1.8812885    0.31642397975315
             0.5442493    0.74430825237435
 p    1 1.00
             0.1687144                   1
 d    1 1.00
                   0.8                   1

22 0
 s    3 1.00
             18.731137    0.03349459952309
             2.8253937    0.23472694665786
             0.6401217    0.81375731841339
 s    1 1.00
             0.1612778                   1

23 0
 s    3 1.00
             18.731137    0.03349459952309
             2.8253937    0.23472694665786
             0.6401217    0.81375731841339
 s    1 1.00
             0.1612778                   1

24 0
 s    3 1.00
             18.731137    0.03349459952309
             2.8253937    0.23472694665786
             0.6401217    0.81375731841339
 s    1 1.00
             0.1612778                   1

25 0
 s    3 1.00
             18.731137    0.03349459952309
             2.8253937    0.23472694665786
             0.6401217    0.81375731841339
 s    1 1.00
             0.1612778                   1

26 0
 s    3 1.00
             18.731137    0.03349459952309
             2.8253937    0.23472694665786
             0.6401217    0.81375731841339
 s    1 1.00
             0.1612778                   1

27 0
 s    3 1.00
             18.731137    0.03349459952309
             2.8253937    0.23472694665786
             0.6401217    0.81375731841339
 s    1 1.00
             0.1612778                   1

28 0
 s    3 1.00
             18.731137    0.03349459952309
             2.8253937    0.23472694665786
             0.6401217    0.81375731841339
 s    1 1.00
             0.1612778                   1

29 0
 s    3 1.00
             18.731137    0.03349459952309
             2.8253937    0.23472694665786
             0.6401217    0.81375731841339
 s    1 1.00
             0.1612778                   1

30 0
 s    3 1.00
             18.731137    0.03349459952309
             2.8253937    0.23472694665786
             0.6401217    0.81375731841339
 s    1 1.00
             0.1612778                   1

31 0
 s    3 1.00
             18.731137    0.03349459952309
             2.8253937    0.23472694665786
             0.6401217    0.81375731841339
 s    1 1.00
             0.1612778                   1

32 0
 s    3 1.00
             18.731137    0.03349459952309
             2.8253937    0.23472694665786
             0.6401217    0.81375731841339
 s    1 1.00
             0.1612778                   1

33 0
 s    6 1.00
             3047.5249  0.0018347001629433
             457.36951    0.01403730124668
             103.94869   0.068842606114048
             29.210155    0.23218442062076
              9.286663    0.46794134155879
              3.163927    0.36231203217765
 s    3 1.00
             7.8682724   -0.11933240861517
             1.8812885   -0.16085421161283
             0.5442493     1.1434564825515
 s    1 1.00
             0.1687144                   1
 p    3 1.00
             7.8682724   0.068999095584993
             1.8812885    0.31642397975315
             0.5442493    0.74430825237435
 p    1 1.00
             0.1687144                   1
 d    1 1.00
                   0.8                   1

34 0
 s    6 1.00
             3047.5249  0.0018347001629433
             457.36951    0.01403730124668
             103.94869   0.068842606114048
             29.210155    0.23218442062076
              9.286663    0.46794134155879
              3.163927    0.36231203217765
 s    3 1.00
             7.8682724   -0.11933240861517
             1.8812885   -0.16085421161283
             0.5442493     1.1434564825515
 s    1 1.00
             0.1687144                   1
 p    3 1.00
             7.8682724   0.068999095584993
             1.8812885    0.31642397975315
             0.5442493    0.74430825237435
 p    1 1.00
             0.1687144                   1
 d    1 1.00
                   0.8                   1

35 0
 s    3 1.00
             18.731137    0.03349459952309
             2.8253937    0.23472694665786
             0.6401217    0.81375731841339
 s    1 1.00
             0.1612778                   1

36 0
 s    6 1.00
             3047.5249  0.0018347001629433
             457.36951    0.01403730124668
             103.94869   0.068842606114048
             29.210155    0.23218442062076
              9.286663    0.46794134155879
              3.163927    0.36231203217765
 s    3 1.00
             7.8682724   -0.11933240861517
             1.8812885   -0.16085421161283
             0.5442493     1.1434564825515
 s    1 1.00
             0.1687144                   1
 p    3 1.00
             7.8682724   0.068999095584993
             1.8812885    0.31642397975315
             0.5442493    0.74430825237435
 p    1 1.00
             0.1687144                   1
 d    1 1.00
                   0.8                   1

37 0
 s    3 1.00
             18.731137    0.03349459952309
             2.8253937    0.23472694665786
             0.6401217    0.81375731841339
 s    1 1.00
             0.1612778                   1

38 0
 s    3 1.00
             18.731137    0.03349459952309
             2.8253937    0.23472694665786
             0.6401217    0.81375731841339
 s    1 1.00
             0.1612778                   1

39 0
 s    6 1.00
             3047.5249  0.0018347001629433
             457.36951    0.01403730124668
             103.94869   0.068842606114048
             29.210155    0.23218442062076
              9.286663    0.46794134155879
              3.163927    0.36231203217765
 s    3 1.00
             7.8682724   -0.11933240861517
             1.8812885   -0.16085421161283
             0.5442493     1.1434564825515
 s    1 1.00
             0.1687144                   1
 p    3 1.00
             7.8682724   0.068999095584993
             1.8812885    0.31642397975315
             0.5442493    0.74430825237435
 p    1 1.00
             0.1687144                   1
 d    1 1.00
                   0.8                   1

40 0
 s    6 1.00
             3047.5249  0.0018347001629433
             457.36951    0.01403730124668
             103.94869   0.068842606114048
             29.210155    0.23218442062076
              9.286663    0.46794134155879
              3.163927    0.36231203217765
 s    3 1.00
             7.8682724   -0.11933240861517
             1.8812885   -0.16085421161283
             0.5442493     1.1434564825515
 s    1 1.00
             0.1687144                   1
 p    3 1.00
             7.8682724   0.068999095584993
             1.8812885    0.31642397975315
             0.5442493    0.74430825237435
 p    1 1.00
             0.1687144                   1
 d    1 1.00
                   0.8                   1

41 0
 s    3 1.00
             18.731137    0.03349459952309
             2.8253937    0.23472694665786
             0.6401217    0.81375731841339
 s    1 1.00
             0.1612778                   1

42 0
 s    6 1.00
             5484.6717   0.001831099805527
             825.23495   0.013950098518422
             188.04696    0.06844509273075
               52.9645    0.23271427528445
              16.89757    0.47019295006289
             5.7996353    0.35852086192309
 s    3 1.00
             15.539616   -0.11077750382508
             3.5999336   -0.14802630511126
             1.0137618     1.1307670390447
 s    1 1.00
             0.2700058                   1
 p    3 1.00
             15.539616   0.070874299543311
             3.5999336    0.33975279781076
             1.0137618    0.72715859531445
 p    1 1.00
             0.2700058                   1
 d    1 1.00
                   0.8                   1

43 0
 s    3 1.00
             18.731137    0.03349459952309
             2.8253937    0.23472694665786
             0.6401217    0.81375731841339
 s    1 1.00
             0.1612778                   1

[5d]
[7f]
[9g]

[MO]
 Sym= A
 Ene=               0
 Spin= Alpha
 Occup=    1.00000
   1    -0.012767636842898
   2    0.0012071965850066
   3    -0.0073184402075489
   4    -0.00047173284807195
   5    8.4677507005254e-05
   6    -0.0013253082188141
   7    -0.00065340822598188
   8    -0.00083222095482813
   9    0.0040774022682462
  10    0.0010662657329366
  11    0.0010216717804634
  12    -0.00014497929852717
  13    0.00025473623158259
  14    -5.5676175384655e-05
  15    0.00046546871014612
  16    0.00096741973353134
  17     -0.99447717425483
  18    -0.038591898843541
  19     0.029783923454754
  20    -0.00081271566662315
  21    -0.00020937247631306
  22    0.00029685217376868
  23    0.0034382586622636
  24    0.0010676451486096
  25    0.0001118372965757
  26    -0.00084307527261321
  27    0.00026129990248921
  28    0.00040368452848685
  29    -0.00023175493829404
  30    -0.00012187668466351
  31     0.001248460283454
  32    -0.0041191256476275
  33    -0.025199691994218
  34    0.00077433064350038
  35    -0.0054280674810249
  36    -0.00094563470066815
  37    -0.0004311261812007
  38    0.0014859811118945
  39    0.00034701490873093
  40    -0.0010258119365322
  41    -0.0051315728865145
  42    0.00072124541915591
  43    -0.0011225388886057
  44    -0.00059095051339031
  45    0.00039559336759615
  46    0.00045725471554821
  47    0.00051786999417453
  48    0.00064090217073038
  49    0.0013158411345914
  50    0.00048554122695156
  51    -0.00049516729394212
  52    -1.0076259804604e-05
  53    -0.00012457541793721
  54    0.00033891100517224
  55    0.0010607912383546
  56    0.00039155395483371
  57    -0.0044291341543492
  58    4.1846091481302e-05
  59    -8.8473345357719e-05
  60    -0.00012384999667411
  61    4.9160392532677e-05
  62    -0.00013094635405308
  63    0.00027366019766636
  64    0.00022156071645557
  65    2.1651079504609e-06
  66    5.5370322927741e-06
  67    -2.6191153228192e-08
  68    -4.5837764701945e-07
  69    -5.0014611654333e-06
  70    -1.2040510104948e-06
  71    3.0728917320056e-06
  72    7.0073247931113e-07
  73    -9.5002994479891e-06
  74    -2.1578007791337e-05
  75    -1.0983559979024e-05
  76    3.3388275597218e-07
  77    3.0449435043967e-07
  78    -1.1241005296197e-07
  79    -3.6384775433593e-07
  80    7.087965274709e-08
  81    -1.9211877575581e-06
  82    -1.1038696617553e-05
  83    7.2483810500064e-08
  84    2.1493714776653e-07
  85    4.1728535541655e-05
  86    -2.3910140070194e-06
  87    -2.6592125067391e-06
  88    -3.4053224963021e-06
  89    -1.4875368601689e-05
  90    4.7356253347728e-05
  91    -4.294187677923e-06
  92    -1.4399340177591e-06
  93    1.9135663779492e-06
  94    -2.3781855158905e-06
  95    4.3051993800927e-07
  96    9.0995506956064e-07
  97    -4.5009442479724e-06
  98    -9.3825681195779e-06
  99    2.6703777852565e-06
 100    1.472192370916e-05
 101    5.1591582582367e-07
 102    8.4618679625666e-06
 103    -0.00013690772152769
 104    7.0431687539623e-07
 105    5.8171481722331e-06
 106    5.3161476214183e-07
 107    0.0001297904945807
 108    -0.00012526286962198
 109    -0.00010422542196905
 110    5.5795086456687e-06
 111    8.6450574060656e-07
 112    -3.0793714958183e-07
 113    -1.7195448351318e-06
 114    3.1756994390139e-06
 115    2.9359804702611e-06
 116    3.0119610164243e-05
 117    -0.00019526767864589
 118    1.3432153590665e-06
 119    -9.929509819252e-07
 120    -5.1495228104745e-06
 121    4.0467457015938e-05
 122    -1.5234066918232e-05
 123    -8.3604403031158e-06
 124    -1.0526500764835e-06
 125    1.7495252785022e-06
 126    1.7829089148974e-06
 127    -3.5041286440411e-07
 128    1.5873640669414e-06
 129    4.8614960483991e-06
 130    4.529403412904e-05
 131    -5.0176738164221e-05
 132    -1.2428208279062e-07
 133    5.580114354471e-06
 134    -2.0843342224217e-05
 135    0.00020545338355614
 136    -3.2282534589903e-05
 137    0.00027867099664736
 138    -5.9306599891429e-06
 139    -1.0268265764162e-05
 140    -2.8286650630283e-06
 141    -4.2419240834747e-06
 142    -4.5650324885953e-06
 143    1.3133311792858e-06
 144    1.871655038767e-05
 145    -3.7239099473751e-05
 146    -1.6961476950356e-06
 147    -6.4676587286821e-06
 148    -6.2423494523003e-06
 149    -1.4761707037737e-05
 150    3.0662244613021e-05
 151    2.9796208040405e-05
 152    4.7561596456397e-06
 153    3.1466714346343e-06
 154    8.4377488592852e-07
 155    -3.4984221918516e-06
 156    2.0432109500072e-06
 157    -7.3782547663033e-07
 158    -5.5379742664943e-06
 159    -2.7911092627999e-07
 160    -4.5433941914924e-06
 161    9.6282141249267e-07
 162    4.9806587920853e-08
 163    3.0489500113806e-05
 164    -9.0697570893242e-06
 165    -4.9395557488935e-06
 166    -2.5067640004226e-06
 167    4.6954486579576e-09
 168    2.8520947987504e-07
 169    -2.693829337361e-07
 170    -8.6028336763892e-07
 171    6.0158999078238e-07
 172    1.1930300101595e-05
 173    -2.4783142290613e-05
 174    2.2109724208161e-06
 175    -3.3058675208452e-07
 176    -8.1365169412053e-06
 177    1.655442518706e-05
 178    7.0180798826464e-06
 179    3.1159209152484e-05
 180    -1.8384513389018e-06
 181    -2.8544220492917e-06
 182    -5.8914369419306e-07
 183    1.5897469417385e-06
 184    -2.7488079694226e-07
 185    2.2409030058139e-06
 186    1.8913993610116e-05
 187    -4.6391270970079e-05
 188    1.0291577319273e-06
 189    -6.627326443534e-07
 190    -3.9425667966836e-06
 191    2.4440574301009e-06
 192    3.3914728413606e-06
 193    4.8846859231479e-05
 194    -2.2750522310799e-06
 195    -7.587341343144e-07
 196    -8.6697947711756e-07
 197    -1.8531937050814e-08
 198    -1.2864260684772e-07
 199    4.9019323482605e-06
 200    3.0042763617834e-07
 201    1.7117925007561e-06
 202    -1.4999514200234e-05
 203    8.4511153066817e-06
 204    -3.7816838411563e-07
 205    2.909450990248e-06
 206    2.2600360081939e-05
 207    -9.4400667740907e-06
 208    6.9039319660576e-05
 209    -6.9205414103877e-06
 210    2.3517196960247e-05
 211    -3.1624658049364e-06
 212    -1.0620738312651e-05
 213    9.0163431736744e-07
 214    1.3903692564424e-05
 215    -1.3762322546745e-06
 216    5.2140156913025e-05
 217    -6.4800099219115e-08
 218    -5.7643640036694e-06
 219    5.1730413862526e-07
 220    -3.8849704638429e-07
 221    2.7368187910744e-06
 222    4.5557416593341e-05
 223    -0.00052983310741626
 224    2.0700009859225e-05
 225    1.5119454696738e-06
 226    -8.3699685078135e-06
 227    -0.00053892104030726
 228    -0.00020615216747252
 229    0.00048800348124649
 230    3.7482138254186e-06
 231    2.7410643557194e-05
 232     1.21483001759e-05
 233    -1.4495241766236e-05
 234    -1.6085330543048e-05
 235    2.1513232299669e-05
 236    6.085433224075e-05
 237    -0.00056786135126202
 238    1.3881880985907e-05
 239    -4.8277861075043e-06
 240    2.2724505829675e-05
 241    -6.2083048037494e-05
 242    -0.00025379805727936
 243    0.0014505240310871
 244    -2.8555377873536e-05
 245    -5.4583844256987e-05
 246    -6.4626243769931e-06
 247    -1.4897201428897e-05
 248    -1.4641972739734e-06
 249    1.8599373789289e-05
 250    -0.00031511644353529
 251    1.4084485797387e-05
 252    0.0003041237902286
 253    -0.00068624791965231
 254    -0.00010449524974059
 255    4.034515576513e-05
 256    -0.00024286600942845
 257    0.00073065313662171
 258    -0.00021365837039785
 259    0.0015474528150677
 260    8.7735633170618e-05
 261    -4.6645164317945e-07
 262    7.5502409857126e-06
 263    -0.00012862027107474
 264    -8.4216494502211e-05
 265    7.1265977251467e-05
 266    -0.00016592992498112
 267    0.00015873542735096
 268    0.0007074328385695
 269    4.1749289681632e-05
 270    0.00025894430365683
 271    -0.0033130425800089
 272    -3.7536534617859e-05
 273    6.1357305217473e-06
 274    -7.3794867819449e-05
 275     0.001536766976852
 276    0.0007769020372847
 277    -0.0015666938421614
 278    -4.0811817759468e-05
 279    9.7099708154703e-05
 280    2.4140813352129e-05