[Molden Format]
made by pyscf v[2.0.1]
[Atoms] (AU)
C   1   6     0.69100024066471     0.64692934207205    -3.48223131169301
H   2   1     2.68052439830868     1.13355088658700    -3.25784032593313
C   3   6    -0.36286361513219     0.85440132524594    -5.97030179418974
H   4   1    -2.35448549047279     0.36322488579172    -6.17995817793143
C   5   6     0.93697958957450     1.61209284601821    -8.05828437677121
H   6   1     0.93570604399073     3.60645829547735    -8.57155587183010
C   7   6     2.33064164489587    -0.08500019610028    -9.65009622470686
H   8   1     2.31545752956704    -2.07726916449957    -9.11124928966168
H   9   1     1.55630230933075    -1.92953025305990    12.99630010416247
C   10   6     0.75233899775814    -2.21270439606481    11.10705728102219
H   11   1    -0.43433408177274    -3.90944857546550    11.22216085340412
C   12   6     2.86362581178706    -2.63237380607947     9.17926416456045
H   13   1     4.39038949912609    -1.24955421540245     9.49899813497433
H   14   1     3.74629220191363    -4.48798724300892     9.47414880959024
C   15   6     2.02478325613682    -2.42177285709634     6.44560829588644
C   16   6     3.88048732735477    -3.58795445234514     4.61402886975252
C   17   6    -0.18412382258602    -1.30464291234259     5.76021113872346
C   18   6    -2.10044360464350    -0.26837831858460     7.71610340967100
C   19   6    -3.08956938670431     2.35282328359417     6.88693925039594
C   20   6    -4.37372924086464    -2.09766595989678     7.93610724222001
C   21   6    -0.83850430601230     0.06372213486173    10.33002307638377
H   22   1     0.38411922151109     1.74281358582432    10.27380136542181
H   23   1    -2.30980003007874     0.45460143924521    11.73986301809809
H   24   1     4.58527064644668    -5.38706904487420     5.36778158031719
H   25   1     5.54944938085014    -2.37631462192748     4.35398898413318
H   26   1     3.06633019150423    -3.94118377050688     2.75255466040884
H   27   1    -4.17727778763735     2.26573369139522     5.12914900961283
H   28   1    -1.52662344944051     3.68001877445626     6.59540397144508
H   29   1    -4.32916174397830     3.13643051467482     8.35225460090378
H   30   1    -5.32329548508442    -2.36691813602939     6.11583672749896
H   31   1    -5.77989366602257    -1.33896741843465     9.25748940450990
H   32   1    -3.79310905208926    -3.96389819310853     8.61386170102686
C   33   6    -1.01100794811226    -1.06331657314144     3.11929490449947
C   34   6     0.37686231036534    -0.33275864505552     1.09165013605873
H   35   1    -3.01671213906703    -1.40297922279997     2.77827895090944
C   36   6    -0.64382707979370    -0.11591880174385    -1.42063131251064
H   37   1     2.35569259782137     0.17174499283897     1.33641070251401
H   38   1    -2.63317482980319    -0.60229203511219    -1.66119700387645
C   39   6     3.64869579482306     0.58263290243353   -11.74621951745329
C   40   6     5.00865186237336    -1.29151691020822   -13.24458681490645
H   41   1     3.74083961582251     2.53414495508714   -12.38721761884598
O   42   8     6.22738846457655    -0.82464446464225   -15.14656876600025
H   43   1     4.86298794977594    -3.26455446446118   -12.51927050350916
[GTO]
1 0
 s    6 1.00
             3047.5249  0.0018347001629433
             457.36951    0.01403730124668
             103.94869   0.068842606114048
             29.210155    0.23218442062076
              9.286663    0.46794134155879
              3.163927    0.36231203217765
 s    3 1.00
             7.8682724   -0.11933240861517
             1.8812885   -0.16085421161283
             0.5442493     1.1434564825515
 s    1 1.00
             0.1687144                   1
 p    3 1.00
             7.8682724   0.068999095584993
             1.8812885    0.31642397975315
             0.5442493    0.74430825237435
 p    1 1.00
             0.1687144                   1
 d    1 1.00
                   0.8                   1

2 0
 s    3 1.00
             18.731137    0.03349459952309
             2.8253937    0.23472694665786
             0.6401217    0.81375731841339
 s    1 1.00
             0.1612778                   1

3 0
 s    6 1.00
             3047.5249  0.0018347001629433
             457.36951    0.01403730124668
             103.94869   0.068842606114048
             29.210155    0.23218442062076
              9.286663    0.46794134155879
              3.163927    0.36231203217765
 s    3 1.00
             7.8682724   -0.11933240861517
             1.8812885   -0.16085421161283
             0.5442493     1.1434564825515
 s    1 1.00
             0.1687144                   1
 p    3 1.00
             7.8682724   0.068999095584993
             1.8812885    0.31642397975315
             0.5442493    0.74430825237435
 p    1 1.00
             0.1687144                   1
 d    1 1.00
                   0.8                   1

4 0
 s    3 1.00
             18.731137    0.03349459952309
             2.8253937    0.23472694665786
             0.6401217    0.81375731841339
 s    1 1.00
             0.1612778                   1

5 0
 s    6 1.00
             3047.5249  0.0018347001629433
             457.36951    0.01403730124668
             103.94869   0.068842606114048
             29.210155    0.23218442062076
              9.286663    0.46794134155879
              3.163927    0.36231203217765
 s    3 1.00
             7.8682724   -0.11933240861517
             1.8812885   -0.16085421161283
             0.5442493     1.1434564825515
 s    1 1.00
             0.1687144                   1
 p    3 1.00
             7.8682724   0.068999095584993
             1.8812885    0.31642397975315
             0.5442493    0.74430825237435
 p    1 1.00
             0.1687144                   1
 d    1 1.00
                   0.8                   1

6 0
 s    3 1.00
             18.731137    0.03349459952309
             2.8253937    0.23472694665786
             0.6401217    0.81375731841339
 s    1 1.00
             0.1612778                   1

7 0
 s    6 1.00
             3047.5249  0.0018347001629433
             457.36951    0.01403730124668
             103.94869   0.068842606114048
             29.210155    0.23218442062076
              9.286663    0.46794134155879
              3.163927    0.36231203217765
 s    3 1.00
             7.8682724   -0.11933240861517
             1.8812885   -0.16085421161283
             0.5442493     1.1434564825515
 s    1 1.00
             0.1687144                   1
 p    3 1.00
             7.8682724   0.068999095584993
             1.8812885    0.31642397975315
             0.5442493    0.74430825237435
 p    1 1.00
             0.1687144                   1
 d    1 1.00
                   0.8                   1

8 0
 s    3 1.00
             18.731137    0.03349459952309
             2.8253937    0.23472694665786
             0.6401217    0.81375731841339
 s    1 1.00
             0.1612778                   1

9 0
 s    3 1.00
             18.731137    0.03349459952309
             2.8253937    0.23472694665786
             0.6401217    0.81375731841339
 s    1 1.00
             0.1612778                   1

10 0
 s    6 1.00
             3047.5249  0.0018347001629433
             457.36951    0.01403730124668
             103.94869   0.068842606114048
             29.210155    0.23218442062076
              9.286663    0.46794134155879
              3.163927    0.36231203217765
 s    3 1.00
             7.8682724   -0.11933240861517
             1.8812885   -0.16085421161283
             0.5442493     1.1434564825515
 s    1 1.00
             0.1687144                   1
 p    3 1.00
             7.8682724   0.068999095584993
             1.8812885    0.31642397975315
             0.5442493    0.74430825237435
 p    1 1.00
             0.1687144                   1
 d    1 1.00
                   0.8                   1

11 0
 s    3 1.00
             18.731137    0.03349459952309
             2.8253937    0.23472694665786
             0.6401217    0.81375731841339
 s    1 1.00
             0.1612778                   1

12 0
 s    6 1.00
             3047.5249  0.0018347001629433
             457.36951    0.01403730124668
             103.94869   0.068842606114048
             29.210155    0.23218442062076
              9.286663    0.46794134155879
              3.163927    0.36231203217765
 s    3 1.00
             7.8682724   -0.11933240861517
             1.8812885   -0.16085421161283
             0.5442493     1.1434564825515
 s    1 1.00
             0.1687144                   1
 p    3 1.00
             7.8682724   0.068999095584993
             1.8812885    0.31642397975315
             0.5442493    0.74430825237435
 p    1 1.00
             0.1687144                   1
 d    1 1.00
                   0.8                   1

13 0
 s    3 1.00
             18.731137    0.03349459952309
             2.8253937    0.23472694665786
             0.6401217    0.81375731841339
 s    1 1.00
             0.1612778                   1

14 0
 s    3 1.00
             18.731137    0.03349459952309
             2.8253937    0.23472694665786
             0.6401217    0.81375731841339
 s    1 1.00
             0.1612778                   1

15 0
 s    6 1.00
             3047.5249  0.0018347001629433
             457.36951    0.01403730124668
             103.94869   0.068842606114048
             29.210155    0.23218442062076
              9.286663    0.46794134155879
              3.163927    0.36231203217765
 s    3 1.00
             7.8682724   -0.11933240861517
             1.8812885   -0.16085421161283
             0.5442493     1.1434564825515
 s    1 1.00
             0.1687144                   1
 p    3 1.00
             7.8682724   0.068999095584993
             1.8812885    0.31642397975315
             0.5442493    0.74430825237435
 p    1 1.00
             0.1687144                   1
 d    1 1.00
                   0.8                   1

16 0
 s    6 1.00
             3047.5249  0.0018347001629433
             457.36951    0.01403730124668
             103.94869   0.068842606114048
             29.210155    0.23218442062076
              9.286663    0.46794134155879
              3.163927    0.36231203217765
 s    3 1.00
             7.8682724   -0.11933240861517
             1.8812885   -0.16085421161283
             0.5442493     1.1434564825515
 s    1 1.00
             0.1687144                   1
 p    3 1.00
             7.8682724   0.068999095584993
             1.8812885    0.31642397975315
             0.5442493    0.74430825237435
 p    1 1.00
             0.1687144                   1
 d    1 1.00
                   0.8                   1

17 0
 s    6 1.00
             3047.5249  0.0018347001629433
             457.36951    0.01403730124668
             103.94869   0.068842606114048
             29.210155    0.23218442062076
              9.286663    0.46794134155879
              3.163927    0.36231203217765
 s    3 1.00
             7.8682724   -0.11933240861517
             1.8812885   -0.16085421161283
             0.5442493     1.1434564825515
 s    1 1.00
             0.1687144                   1
 p    3 1.00
             7.8682724   0.068999095584993
             1.8812885    0.31642397975315
             0.5442493    0.74430825237435
 p    1 1.00
             0.1687144                   1
 d    1 1.00
                   0.8                   1

18 0
 s    6 1.00
             3047.5249  0.0018347001629433
             457.36951    0.01403730124668
             103.94869   0.068842606114048
             29.210155    0.23218442062076
              9.286663    0.46794134155879
              3.163927    0.36231203217765
 s    3 1.00
             7.8682724   -0.11933240861517
             1.8812885   -0.16085421161283
             0.5442493     1.1434564825515
 s    1 1.00
             0.1687144                   1
 p    3 1.00
             7.8682724   0.068999095584993
             1.8812885    0.31642397975315
             0.5442493    0.74430825237435
 p    1 1.00
             0.1687144                   1
 d    1 1.00
                   0.8                   1

19 0
 s    6 1.00
             3047.5249  0.0018347001629433
             457.36951    0.01403730124668
             103.94869   0.068842606114048
             29.210155    0.23218442062076
              9.286663    0.46794134155879
              3.163927    0.36231203217765
 s    3 1.00
             7.8682724   -0.11933240861517
             1.8812885   -0.16085421161283
             0.5442493     1.1434564825515
 s    1 1.00
             0.1687144                   1
 p    3 1.00
             7.8682724   0.068999095584993
             1.8812885    0.31642397975315
             0.5442493    0.74430825237435
 p    1 1.00
             0.1687144                   1
 d    1 1.00
                   0.8                   1

20 0
 s    6 1.00
             3047.5249  0.0018347001629433
             457.36951    0.01403730124668
             103.94869   0.068842606114048
             29.210155    0.23218442062076
              9.286663    0.46794134155879
              3.163927    0.36231203217765
 s    3 1.00
             7.8682724   -0.11933240861517
             1.8812885   -0.16085421161283
             0.5442493     1.1434564825515
 s    1 1.00
             0.1687144                   1
 p    3 1.00
             7.8682724   0.068999095584993
             1.8812885    0.31642397975315
             0.5442493    0.74430825237435
 p    1 1.00
             0.1687144                   1
 d    1 1.00
                   0.8                   1

21 0
 s    6 1.00
             3047.5249  0.0018347001629433
             457.36951    0.01403730124668
             103.94869   0.068842606114048
             29.210155    0.23218442062076
              9.286663    0.46794134155879
              3.163927    0.36231203217765
 s    3 1.00
             7.8682724   -0.11933240861517
             1.8812885   -0.16085421161283
             0.5442493     1.1434564825515
 s    1 1.00
             0.1687144                   1
 p    3 1.00
             7.8682724   0.068999095584993
             1.8812885    0.31642397975315
             0.5442493    0.74430825237435
 p    1 1.00
             0.1687144                   1
 d    1 1.00
                   0.8                   1

22 0
 s    3 1.00
             18.731137    0.03349459952309
             2.8253937    0.23472694665786
             0.6401217    0.81375731841339
 s    1 1.00
             0.1612778                   1

23 0
 s    3 1.00
             18.731137    0.03349459952309
             2.8253937    0.23472694665786
             0.6401217    0.81375731841339
 s    1 1.00
             0.1612778                   1

24 0
 s    3 1.00
             18.731137    0.03349459952309
             2.8253937    0.23472694665786
             0.6401217    0.81375731841339
 s    1 1.00
             0.1612778                   1

25 0
 s    3 1.00
             18.731137    0.03349459952309
             2.8253937    0.23472694665786
             0.6401217    0.81375731841339
 s    1 1.00
             0.1612778                   1

26 0
 s    3 1.00
             18.731137    0.03349459952309
             2.8253937    0.23472694665786
             0.6401217    0.81375731841339
 s    1 1.00
             0.1612778                   1

27 0
 s    3 1.00
             18.731137    0.03349459952309
             2.8253937    0.23472694665786
             0.6401217    0.81375731841339
 s    1 1.00
             0.1612778                   1

28 0
 s    3 1.00
             18.731137    0.03349459952309
             2.8253937    0.23472694665786
             0.6401217    0.81375731841339
 s    1 1.00
             0.1612778                   1

29 0
 s    3 1.00
             18.731137    0.03349459952309
             2.8253937    0.23472694665786
             0.6401217    0.81375731841339
 s    1 1.00
             0.1612778                   1

30 0
 s    3 1.00
             18.731137    0.03349459952309
             2.8253937    0.23472694665786
             0.6401217    0.81375731841339
 s    1 1.00
             0.1612778                   1

31 0
 s    3 1.00
             18.731137    0.03349459952309
             2.8253937    0.23472694665786
             0.6401217    0.81375731841339
 s    1 1.00
             0.1612778                   1

32 0
 s    3 1.00
             18.731137    0.03349459952309
             2.8253937    0.23472694665786
             0.6401217    0.81375731841339
 s    1 1.00
             0.1612778                   1

33 0
 s    6 1.00
             3047.5249  0.0018347001629433
             457.36951    0.01403730124668
             103.94869   0.068842606114048
             29.210155    0.23218442062076
              9.286663    0.46794134155879
              3.163927    0.36231203217765
 s    3 1.00
             7.8682724   -0.11933240861517
             1.8812885   -0.16085421161283
             0.5442493     1.1434564825515
 s    1 1.00
             0.1687144                   1
 p    3 1.00
             7.8682724   0.068999095584993
             1.8812885    0.31642397975315
             0.5442493    0.74430825237435
 p    1 1.00
             0.1687144                   1
 d    1 1.00
                   0.8                   1

34 0
 s    6 1.00
             3047.5249  0.0018347001629433
             457.36951    0.01403730124668
             103.94869   0.068842606114048
             29.210155    0.23218442062076
              9.286663    0.46794134155879
              3.163927    0.36231203217765
 s    3 1.00
             7.8682724   -0.11933240861517
             1.8812885   -0.16085421161283
             0.5442493     1.1434564825515
 s    1 1.00
             0.1687144                   1
 p    3 1.00
             7.8682724   0.068999095584993
             1.8812885    0.31642397975315
             0.5442493    0.74430825237435
 p    1 1.00
             0.1687144                   1
 d    1 1.00
                   0.8                   1

35 0
 s    3 1.00
             18.731137    0.03349459952309
             2.8253937    0.23472694665786
             0.6401217    0.81375731841339
 s    1 1.00
             0.1612778                   1

36 0
 s    6 1.00
             3047.5249  0.0018347001629433
             457.36951    0.01403730124668
             103.94869   0.068842606114048
             29.210155    0.23218442062076
              9.286663    0.46794134155879
              3.163927    0.36231203217765
 s    3 1.00
             7.8682724   -0.11933240861517
             1.8812885   -0.16085421161283
             0.5442493     1.1434564825515
 s    1 1.00
             0.1687144                   1
 p    3 1.00
             7.8682724   0.068999095584993
             1.8812885    0.31642397975315
             0.5442493    0.74430825237435
 p    1 1.00
             0.1687144                   1
 d    1 1.00
                   0.8                   1

37 0
 s    3 1.00
             18.731137    0.03349459952309
             2.8253937    0.23472694665786
             0.6401217    0.81375731841339
 s    1 1.00
             0.1612778                   1

38 0
 s    3 1.00
             18.731137    0.03349459952309
             2.8253937    0.23472694665786
             0.6401217    0.81375731841339
 s    1 1.00
             0.1612778                   1

39 0
 s    6 1.00
             3047.5249  0.0018347001629433
             457.36951    0.01403730124668
             103.94869   0.068842606114048
             29.210155    0.23218442062076
              9.286663    0.46794134155879
              3.163927    0.36231203217765
 s    3 1.00
             7.8682724   -0.11933240861517
             1.8812885   -0.16085421161283
             0.5442493     1.1434564825515
 s    1 1.00
             0.1687144                   1
 p    3 1.00
             7.8682724   0.068999095584993
             1.8812885    0.31642397975315
             0.5442493    0.74430825237435
 p    1 1.00
             0.1687144                   1
 d    1 1.00
                   0.8                   1

40 0
 s    6 1.00
             3047.5249  0.0018347001629433
             457.36951    0.01403730124668
             103.94869   0.068842606114048
             29.210155    0.23218442062076
              9.286663    0.46794134155879
              3.163927    0.36231203217765
 s    3 1.00
             7.8682724   -0.11933240861517
             1.8812885   -0.16085421161283
             0.5442493     1.1434564825515
 s    1 1.00
             0.1687144                   1
 p    3 1.00
             7.8682724   0.068999095584993
             1.8812885    0.31642397975315
             0.5442493    0.74430825237435
 p    1 1.00
             0.1687144                   1
 d    1 1.00
                   0.8                   1

41 0
 s    3 1.00
             18.731137    0.03349459952309
             2.8253937    0.23472694665786
             0.6401217    0.81375731841339
 s    1 1.00
             0.1612778                   1

42 0
 s    6 1.00
             5484.6717   0.001831099805527
             825.23495   0.013950098518422
             188.04696    0.06844509273075
               52.9645    0.23271427528445
              16.89757    0.47019295006289
             5.7996353    0.35852086192309
 s    3 1.00
             15.539616   -0.11077750382508
             3.5999336   -0.14802630511126
             1.0137618     1.1307670390447
 s    1 1.00
             0.2700058                   1
 p    3 1.00
             15.539616   0.070874299543311
             3.5999336    0.33975279781076
             1.0137618    0.72715859531445
 p    1 1.00
             0.2700058                   1
 d    1 1.00
                   0.8                   1

43 0
 s    3 1.00
             18.731137    0.03349459952309
             2.8253937    0.23472694665786
             0.6401217    0.81375731841339
 s    1 1.00
             0.1612778                   1

[5d]
[7f]
[9g]

[MO]
 Sym= A
 Ene=               0
 Spin= Alpha
 Occup=    1.00000
   1     0.016854067139737
   2    -0.0011416190110715
   3    0.0077451377092376
   4    0.00044011235260694
   5    -0.00016321358173527
   6    0.0013361695339868
   7    0.00088910489987126
   8    0.0014398479235191
   9    -0.0060978953459296
  10    -0.00099270309543518
  11    -0.00096151688115901
  12    0.00015516836901338
  13    -0.00021710273254735
  14    5.226075221678e-05
  15    -0.00054063463436598
  16    -0.001005813613702
  17      0.99471577198401
  18     0.039364793988236
  19    -0.031489111117611
  20    0.0010571648262089
  21    0.00020567090153797
  22    -0.00064462259103912
  23    -0.0040707148664524
  24    -0.0012268351001802
  25    -0.00085474405734442
  26    0.00080284867587276
  27    -0.0003273456377005
  28    -0.00034925647654565
  29    0.0002752148491343
  30    0.00020806071468534
  31    -0.0013065809010214
  32    0.0041864758718483
  33     0.012316079171211
  34    -0.00041394574869629
  35    0.0012649263385911
  36    0.00096260010251747
  37    0.00037864353636448
  38    -0.0012994500955095
  39    -0.0027793447350045
  40    0.0037714910062871
  41    0.0044130934510853
  42    -0.00067011153895606
  43    0.0013287557106502
  44    0.00053394411234654
  45    -0.00039222090737513
  46    -0.00041749267909798
  47    -0.00060877554549661
  48    -0.00063252854443342
  49    -0.00035083835828668
  50    -0.00059593953233802
  51    0.00020034747903325
  52    0.00029696478756143
  53    2.9885634696468e-05
  54    -0.00042908508177836
  55    -0.0055299753485075
  56    0.0011583892786764
  57    0.0075286685466065
  58    -0.00017707388996377
  59    -1.268289398812e-05
  60    0.00015452746364843
  61    -0.00025008431427854
  62    -0.00023396790343756
  63    -0.00052048674751275
  64    0.00027469142674376
  65    -2.84095092773e-06
  66    -4.3233414304053e-06
  67    -7.339799670433e-08
  68    -1.4702445954376e-06
  69    6.5231893619093e-06
  70    2.1165869824568e-06
  71    -4.8984740169561e-06
  72    -2.3502062493464e-08
  73    1.4449757100502e-05
  74    2.810895564962e-05
  75    1.0158816794137e-05
  76    -1.127152460185e-07
  77    -3.0700201760719e-07
  78    3.2853930779616e-07
  79    6.2545893274321e-07
  80    3.0170049630847e-09
  81    2.7787197323739e-06
  82    1.441584407946e-05
  83    2.5219595559303e-07
  84    1.4524272291592e-06
  85    -7.230566461091e-05
  86    4.3454985186989e-06
  87    3.6577253233893e-06
  88    5.5642606774524e-06
  89    2.5722009839273e-05
  90    -7.0036641281254e-05
  91    8.3792479512111e-06
  92    1.7269899229595e-06
  93    -2.8997029167159e-06
  94    4.1659105534325e-06
  95    -7.9036370776693e-07
  96    -1.1098508754662e-06
  97    8.0576138994584e-06
  98    1.4048944950754e-05
  99    -3.8735405387636e-06
 100    -2.1153487259826e-05
 101    -1.2697726372954e-06
 102    -1.2065837088316e-05
 103    0.00024844487082825
 104    -3.1786617528124e-06
 105    -1.000660691772e-05
 106    -3.6834190306745e-06
 107    -0.00020552582854705
 108    0.00019874241950985
 109    0.00014876711109914
 110    -6.525060914372e-06
 111    -7.6982828268278e-08
 112    5.0855140382932e-09
 113    1.3318679041528e-06
 114    -5.7878630925433e-06
 115    -3.5935134113536e-06
 116    -3.5287001490782e-05
 117    0.00025486952932718
 118    -2.4069177612252e-06
 119    3.175746677022e-06
 120    5.3555468105242e-06
 121    -5.3291205908659e-05
 122    1.3222885108702e-05
 123    3.1665979414962e-05
 124    1.6723560839267e-06
 125    -3.2548000461989e-06
 126    -2.6767425132112e-06
 127    8.4000539144007e-07
 128    -2.3390945653077e-06
 129    -5.807173442746e-06
 130    -5.6179533700104e-05
 131    0.00015753649220986
 132    5.9725487081435e-06
 133    -5.7954206700639e-06
 134    2.3506807620613e-05
 135    -0.00037676626696278
 136    3.8431605122662e-05
 137    -0.00043335869737431
 138    9.5161114183443e-06
 139    1.4601307342799e-05
 140    6.0893778024208e-06
 141    4.8890618917128e-06
 142    7.3900690915009e-06
 143    -2.1182112358874e-06
 144    -2.9868367856315e-05
 145    3.1137652191078e-05
 146    2.1482756326579e-06
 147    6.4882681400612e-06
 148    1.4701768778671e-05
 149    1.4463782548032e-05
 150    3.7524605084299e-06
 151    -7.2050227986283e-05
 152    -7.2575227533928e-06
 153    -4.2613544967876e-06
 154    -3.4167325869041e-06
 155    4.4436174677574e-06
 156    -4.3934321683814e-06
 157    1.8027382156363e-06
 158    1.4075448594876e-05
 159    -4.3632589944358e-05
 160    6.5310389818268e-06
 161    -3.1669431336658e-08
 162    -1.6010802663095e-06
 163    -5.3968242001208e-05
 164    2.7708880539301e-05
 165    1.2423147240117e-05
 166    4.821415089468e-06
 167    -8.4789729732543e-07
 168    -2.3925606805681e-07
 169    9.9536087252128e-07
 170    2.1062909587311e-06
 171    -5.129623879155e-07
 172    -1.3652239021729e-05
 173    2.5212755382753e-05
 174    -4.5646929880941e-06
 175    -3.0613821990578e-07
 176    1.2043968552358e-05
 177    7.6885430305344e-08
 178    -1.9547519921872e-06
 179    -2.8306463138065e-05
 180    1.6949886691336e-06
 181    5.2541588904888e-06
 182    9.6045122145551e-07
 183    -1.2288546347967e-06
 184    1.8038572282609e-06
 185    -3.6963121696363e-06
 186     -3.1329489102e-05
 187    9.3580421300883e-05
 188    -2.7119639336099e-06
 189    6.4562974629633e-07
 190    4.8765042939853e-06
 191    -4.1462855851422e-06
 192    -1.5443631485989e-05
 193    -7.8376940226306e-05
 194    3.4949790046111e-06
 195    1.9332081459822e-06
 196    3.0143000734617e-06
 197    -3.56911733368e-07
 198    4.9226450676806e-07
 199    -8.1651312573614e-06
 200    6.1043454955735e-07
 201    -2.8262906215293e-06
 202    2.0932391087246e-05
 203    -1.2396688278622e-05
 204    -6.0410181263624e-06
 205    -2.1528440775901e-07
 206    -2.9091544526058e-05
 207    1.034143596978e-05
 208    -6.6781926095959e-05
 209    1.198019737611e-05
 210    -2.7783868669165e-05
 211    6.8390826765545e-06
 212    1.8955687771928e-05
 213    -6.4496753402276e-07
 214    -2.2997989911431e-05
 215    -3.0983718347112e-06
 216    -2.9419484330959e-05
 217    1.6068043268579e-06
 218    9.8722848647453e-06
 219    5.0642288840466e-07
 220    -1.9296753185219e-06
 221    -9.3901071009747e-06
 222    -9.4371289542815e-05
 223    0.00095174381341421
 224    -1.4436955899085e-05
 225      2.4923899996e-07
 226    1.3261391003315e-05
 227    0.00068065784851574
 228    0.00033075496401561
 229    -0.0009835137938292
 230    3.1118708817932e-06
 231    -4.6884621150892e-05
 232    -2.3356880425714e-05
 233    2.3300997328937e-05
 234    2.4036394092889e-05
 235    -1.5950069137437e-05
 236    -3.8567805443995e-05
 237    -0.00026122454619573
 238    -2.2815369030286e-05
 239    -2.4236250801118e-06
 240    1.241597646115e-05
 241    0.00031232062473815
 242    0.00037265806287661
 243    -0.0016294010337099
 244    9.7564289685809e-06
 245    7.6246264815274e-05
 246    1.432291764139e-05
 247    2.0358906119437e-05
 248    -2.9068980494822e-06
 249    -3.6092676326641e-05
 250    0.00032594316125877
 251    -2.7267281277323e-05
 252    -0.00042329088594082
 253    0.0022526814199391
 254    8.2927590046288e-05
 255    -3.6861710900464e-05
 256    0.00023563998081969
 257    7.9099717741913e-06
 258    0.00039462928287803
 259    -0.0018720097951424
 260    -6.9812426968344e-05
 261    -2.0970136141307e-05
 262    -1.4307111280699e-05
 263    0.00015026491953455
 264    8.864560826407e-05
 265    -9.7065092688972e-05
 266    0.00021562312080495
 267    -0.00014517555367875
 268    -0.00054515755616635
 269    -8.3361685421835e-05
 270    -0.00055687946754525
 271    0.0073559449852432
 272    -9.1588401763969e-05
 273    0.00011972766237552
 274    0.00012571007242621
 275    -0.0015812797118193
 276    -0.0029897888061044
 277    0.0030311430466549
 278    9.3243433581506e-05
 279    -0.0001901509997749
 280    -0.0001099115610276
 281    -3.1499427671285e-05