[Molden Format]
made by pyscf v[2.0.1]
[Atoms] (AU)
C   1   6     0.69100024066471     0.64692934207205    -3.48223131169301
H   2   1     2.68052439830868     1.13355088658700    -3.25784032593313
C   3   6    -0.36286361513219     0.85440132524594    -5.97030179418974
H   4   1    -2.35448549047279     0.36322488579172    -6.17995817793143
C   5   6     0.93697958957450     1.61209284601821    -8.05828437677121
H   6   1    -0.06960811584452     2.58702669474359    -9.56733307637730
C   7   6     3.59571274713804     1.19684402678434    -8.39738626626495
H   8   1     4.57899779978681     0.21871567749258    -6.86894337963000
H   9   1     1.55630230933075    -1.92953025305990    12.99630010416247
C   10   6     0.75233899775814    -2.21270439606481    11.10705728102219
H   11   1    -0.43433408177274    -3.90944857546550    11.22216085340412
C   12   6     2.86362581178706    -2.63237380607947     9.17926416456045
H   13   1     4.39038949912609    -1.24955421540245     9.49899813497433
H   14   1     3.74629220191363    -4.48798724300892     9.47414880959024
C   15   6     2.02478325613682    -2.42177285709634     6.44560829588644
C   16   6     3.88048732735477    -3.58795445234514     4.61402886975252
C   17   6    -0.18412382258602    -1.30464291234259     5.76021113872346
C   18   6    -2.10044360464350    -0.26837831858460     7.71610340967100
C   19   6    -3.08956938670431     2.35282328359417     6.88693925039594
C   20   6    -4.37372924086464    -2.09766595989678     7.93610724222001
C   21   6    -0.83850430601230     0.06372213486173    10.33002307638377
H   22   1     0.38411922151109     1.74281358582432    10.27380136542181
H   23   1    -2.30980003007874     0.45460143924521    11.73986301809809
H   24   1     4.58527064644668    -5.38706904487420     5.36778158031719
H   25   1     5.54944938085014    -2.37631462192748     4.35398898413318
H   26   1     3.06633019150423    -3.94118377050688     2.75255466040884
H   27   1    -4.17727778763735     2.26573369139522     5.12914900961283
H   28   1    -1.52662344944051     3.68001877445626     6.59540397144508
H   29   1    -4.32916174397830     3.13643051467482     8.35225460090378
H   30   1    -5.32329548508442    -2.36691813602939     6.11583672749896
H   31   1    -5.77989366602257    -1.33896741843465     9.25748940450990
H   32   1    -3.79310905208926    -3.96389819310853     8.61386170102686
C   33   6    -1.01100794811226    -1.06331657314144     3.11929490449947
C   34   6     0.37686231036534    -0.33275864505552     1.09165013605873
H   35   1    -3.01671213906703    -1.40297922279997     2.77827895090944
C   36   6    -0.64382707979370    -0.11591880174385    -1.42063131251064
H   37   1     2.35569259782137     0.17174499283897     1.33641070251401
H   38   1    -2.63317482980319    -0.60229203511219    -1.66119700387645
C   39   6     4.96665860975130     1.91437223239220   -10.44247655051683
C   40   6     7.67160233174465     1.40206885234173   -10.60935163126053
H   41   1     4.10375913642339     2.89528826049847   -12.03023490303406
O   42   8     9.01623610133373     1.99111078946158   -12.38862500825095
H   43   1     8.47573431044455     0.39495244048141    -8.94223819440966
[GTO]
1 0
 s    6 1.00
             3047.5249  0.0018347001629433
             457.36951    0.01403730124668
             103.94869   0.068842606114048
             29.210155    0.23218442062076
              9.286663    0.46794134155879
              3.163927    0.36231203217765
 s    3 1.00
             7.8682724   -0.11933240861517
             1.8812885   -0.16085421161283
             0.5442493     1.1434564825515
 s    1 1.00
             0.1687144                   1
 p    3 1.00
             7.8682724   0.068999095584993
             1.8812885    0.31642397975315
             0.5442493    0.74430825237435
 p    1 1.00
             0.1687144                   1
 d    1 1.00
                   0.8                   1

2 0
 s    3 1.00
             18.731137    0.03349459952309
             2.8253937    0.23472694665786
             0.6401217    0.81375731841339
 s    1 1.00
             0.1612778                   1

3 0
 s    6 1.00
             3047.5249  0.0018347001629433
             457.36951    0.01403730124668
             103.94869   0.068842606114048
             29.210155    0.23218442062076
              9.286663    0.46794134155879
              3.163927    0.36231203217765
 s    3 1.00
             7.8682724   -0.11933240861517
             1.8812885   -0.16085421161283
             0.5442493     1.1434564825515
 s    1 1.00
             0.1687144                   1
 p    3 1.00
             7.8682724   0.068999095584993
             1.8812885    0.31642397975315
             0.5442493    0.74430825237435
 p    1 1.00
             0.1687144                   1
 d    1 1.00
                   0.8                   1

4 0
 s    3 1.00
             18.731137    0.03349459952309
             2.8253937    0.23472694665786
             0.6401217    0.81375731841339
 s    1 1.00
             0.1612778                   1

5 0
 s    6 1.00
             3047.5249  0.0018347001629433
             457.36951    0.01403730124668
             103.94869   0.068842606114048
             29.210155    0.23218442062076
              9.286663    0.46794134155879
              3.163927    0.36231203217765
 s    3 1.00
             7.8682724   -0.11933240861517
             1.8812885   -0.16085421161283
             0.5442493     1.1434564825515
 s    1 1.00
             0.1687144                   1
 p    3 1.00
             7.8682724   0.068999095584993
             1.8812885    0.31642397975315
             0.5442493    0.74430825237435
 p    1 1.00
             0.1687144                   1
 d    1 1.00
                   0.8                   1

6 0
 s    3 1.00
             18.731137    0.03349459952309
             2.8253937    0.23472694665786
             0.6401217    0.81375731841339
 s    1 1.00
             0.1612778                   1

7 0
 s    6 1.00
             3047.5249  0.0018347001629433
             457.36951    0.01403730124668
             103.94869   0.068842606114048
             29.210155    0.23218442062076
              9.286663    0.46794134155879
              3.163927    0.36231203217765
 s    3 1.00
             7.8682724   -0.11933240861517
             1.8812885   -0.16085421161283
             0.5442493     1.1434564825515
 s    1 1.00
             0.1687144                   1
 p    3 1.00
             7.8682724   0.068999095584993
             1.8812885    0.31642397975315
             0.5442493    0.74430825237435
 p    1 1.00
             0.1687144                   1
 d    1 1.00
                   0.8                   1

8 0
 s    3 1.00
             18.731137    0.03349459952309
             2.8253937    0.23472694665786
             0.6401217    0.81375731841339
 s    1 1.00
             0.1612778                   1

9 0
 s    3 1.00
             18.731137    0.03349459952309
             2.8253937    0.23472694665786
             0.6401217    0.81375731841339
 s    1 1.00
             0.1612778                   1

10 0
 s    6 1.00
             3047.5249  0.0018347001629433
             457.36951    0.01403730124668
             103.94869   0.068842606114048
             29.210155    0.23218442062076
              9.286663    0.46794134155879
              3.163927    0.36231203217765
 s    3 1.00
             7.8682724   -0.11933240861517
             1.8812885   -0.16085421161283
             0.5442493     1.1434564825515
 s    1 1.00
             0.1687144                   1
 p    3 1.00
             7.8682724   0.068999095584993
             1.8812885    0.31642397975315
             0.5442493    0.74430825237435
 p    1 1.00
             0.1687144                   1
 d    1 1.00
                   0.8                   1

11 0
 s    3 1.00
             18.731137    0.03349459952309
             2.8253937    0.23472694665786
             0.6401217    0.81375731841339
 s    1 1.00
             0.1612778                   1

12 0
 s    6 1.00
             3047.5249  0.0018347001629433
             457.36951    0.01403730124668
             103.94869   0.068842606114048
             29.210155    0.23218442062076
              9.286663    0.46794134155879
              3.163927    0.36231203217765
 s    3 1.00
             7.8682724   -0.11933240861517
             1.8812885   -0.16085421161283
             0.5442493     1.1434564825515
 s    1 1.00
             0.1687144                   1
 p    3 1.00
             7.8682724   0.068999095584993
             1.8812885    0.31642397975315
             0.5442493    0.74430825237435
 p    1 1.00
             0.1687144                   1
 d    1 1.00
                   0.8                   1

13 0
 s    3 1.00
             18.731137    0.03349459952309
             2.8253937    0.23472694665786
             0.6401217    0.81375731841339
 s    1 1.00
             0.1612778                   1

14 0
 s    3 1.00
             18.731137    0.03349459952309
             2.8253937    0.23472694665786
             0.6401217    0.81375731841339
 s    1 1.00
             0.1612778                   1

15 0
 s    6 1.00
             3047.5249  0.0018347001629433
             457.36951    0.01403730124668
             103.94869   0.068842606114048
             29.210155    0.23218442062076
              9.286663    0.46794134155879
              3.163927    0.36231203217765
 s    3 1.00
             7.8682724   -0.11933240861517
             1.8812885   -0.16085421161283
             0.5442493     1.1434564825515
 s    1 1.00
             0.1687144                   1
 p    3 1.00
             7.8682724   0.068999095584993
             1.8812885    0.31642397975315
             0.5442493    0.74430825237435
 p    1 1.00
             0.1687144                   1
 d    1 1.00
                   0.8                   1

16 0
 s    6 1.00
             3047.5249  0.0018347001629433
             457.36951    0.01403730124668
             103.94869   0.068842606114048
             29.210155    0.23218442062076
              9.286663    0.46794134155879
              3.163927    0.36231203217765
 s    3 1.00
             7.8682724   -0.11933240861517
             1.8812885   -0.16085421161283
             0.5442493     1.1434564825515
 s    1 1.00
             0.1687144                   1
 p    3 1.00
             7.8682724   0.068999095584993
             1.8812885    0.31642397975315
             0.5442493    0.74430825237435
 p    1 1.00
             0.1687144                   1
 d    1 1.00
                   0.8                   1

17 0
 s    6 1.00
             3047.5249  0.0018347001629433
             457.36951    0.01403730124668
             103.94869   0.068842606114048
             29.210155    0.23218442062076
              9.286663    0.46794134155879
              3.163927    0.36231203217765
 s    3 1.00
             7.8682724   -0.11933240861517
             1.8812885   -0.16085421161283
             0.5442493     1.1434564825515
 s    1 1.00
             0.1687144                   1
 p    3 1.00
             7.8682724   0.068999095584993
             1.8812885    0.31642397975315
             0.5442493    0.74430825237435
 p    1 1.00
             0.1687144                   1
 d    1 1.00
                   0.8                   1

18 0
 s    6 1.00
             3047.5249  0.0018347001629433
             457.36951    0.01403730124668
             103.94869   0.068842606114048
             29.210155    0.23218442062076
              9.286663    0.46794134155879
              3.163927    0.36231203217765
 s    3 1.00
             7.8682724   -0.11933240861517
             1.8812885   -0.16085421161283
             0.5442493     1.1434564825515
 s    1 1.00
             0.1687144                   1
 p    3 1.00
             7.8682724   0.068999095584993
             1.8812885    0.31642397975315
             0.5442493    0.74430825237435
 p    1 1.00
             0.1687144                   1
 d    1 1.00
                   0.8                   1

19 0
 s    6 1.00
             3047.5249  0.0018347001629433
             457.36951    0.01403730124668
             103.94869   0.068842606114048
             29.210155    0.23218442062076
              9.286663    0.46794134155879
              3.163927    0.36231203217765
 s    3 1.00
             7.8682724   -0.11933240861517
             1.8812885   -0.16085421161283
             0.5442493     1.1434564825515
 s    1 1.00
             0.1687144                   1
 p    3 1.00
             7.8682724   0.068999095584993
             1.8812885    0.31642397975315
             0.5442493    0.74430825237435
 p    1 1.00
             0.1687144                   1
 d    1 1.00
                   0.8                   1

20 0
 s    6 1.00
             3047.5249  0.0018347001629433
             457.36951    0.01403730124668
             103.94869   0.068842606114048
             29.210155    0.23218442062076
              9.286663    0.46794134155879
              3.163927    0.36231203217765
 s    3 1.00
             7.8682724   -0.11933240861517
             1.8812885   -0.16085421161283
             0.5442493     1.1434564825515
 s    1 1.00
             0.1687144                   1
 p    3 1.00
             7.8682724   0.068999095584993
             1.8812885    0.31642397975315
             0.5442493    0.74430825237435
 p    1 1.00
             0.1687144                   1
 d    1 1.00
                   0.8                   1

21 0
 s    6 1.00
             3047.5249  0.0018347001629433
             457.36951    0.01403730124668
             103.94869   0.068842606114048
             29.210155    0.23218442062076
              9.286663    0.46794134155879
              3.163927    0.36231203217765
 s    3 1.00
             7.8682724   -0.11933240861517
             1.8812885   -0.16085421161283
             0.5442493     1.1434564825515
 s    1 1.00
             0.1687144                   1
 p    3 1.00
             7.8682724   0.068999095584993
             1.8812885    0.31642397975315
             0.5442493    0.74430825237435
 p    1 1.00
             0.1687144                   1
 d    1 1.00
                   0.8                   1

22 0
 s    3 1.00
             18.731137    0.03349459952309
             2.8253937    0.23472694665786
             0.6401217    0.81375731841339
 s    1 1.00
             0.1612778                   1

23 0
 s    3 1.00
             18.731137    0.03349459952309
             2.8253937    0.23472694665786
             0.6401217    0.81375731841339
 s    1 1.00
             0.1612778                   1

24 0
 s    3 1.00
             18.731137    0.03349459952309
             2.8253937    0.23472694665786
             0.6401217    0.81375731841339
 s    1 1.00
             0.1612778                   1

25 0
 s    3 1.00
             18.731137    0.03349459952309
             2.8253937    0.23472694665786
             0.6401217    0.81375731841339
 s    1 1.00
             0.1612778                   1

26 0
 s    3 1.00
             18.731137    0.03349459952309
             2.8253937    0.23472694665786
             0.6401217    0.81375731841339
 s    1 1.00
             0.1612778                   1

27 0
 s    3 1.00
             18.731137    0.03349459952309
             2.8253937    0.23472694665786
             0.6401217    0.81375731841339
 s    1 1.00
             0.1612778                   1

28 0
 s    3 1.00
             18.731137    0.03349459952309
             2.8253937    0.23472694665786
             0.6401217    0.81375731841339
 s    1 1.00
             0.1612778                   1

29 0
 s    3 1.00
             18.731137    0.03349459952309
             2.8253937    0.23472694665786
             0.6401217    0.81375731841339
 s    1 1.00
             0.1612778                   1

30 0
 s    3 1.00
             18.731137    0.03349459952309
             2.8253937    0.23472694665786
             0.6401217    0.81375731841339
 s    1 1.00
             0.1612778                   1

31 0
 s    3 1.00
             18.731137    0.03349459952309
             2.8253937    0.23472694665786
             0.6401217    0.81375731841339
 s    1 1.00
             0.1612778                   1

32 0
 s    3 1.00
             18.731137    0.03349459952309
             2.8253937    0.23472694665786
             0.6401217    0.81375731841339
 s    1 1.00
             0.1612778                   1

33 0
 s    6 1.00
             3047.5249  0.0018347001629433
             457.36951    0.01403730124668
             103.94869   0.068842606114048
             29.210155    0.23218442062076
              9.286663    0.46794134155879
              3.163927    0.36231203217765
 s    3 1.00
             7.8682724   -0.11933240861517
             1.8812885   -0.16085421161283
             0.5442493     1.1434564825515
 s    1 1.00
             0.1687144                   1
 p    3 1.00
             7.8682724   0.068999095584993
             1.8812885    0.31642397975315
             0.5442493    0.74430825237435
 p    1 1.00
             0.1687144                   1
 d    1 1.00
                   0.8                   1

34 0
 s    6 1.00
             3047.5249  0.0018347001629433
             457.36951    0.01403730124668
             103.94869   0.068842606114048
             29.210155    0.23218442062076
              9.286663    0.46794134155879
              3.163927    0.36231203217765
 s    3 1.00
             7.8682724   -0.11933240861517
             1.8812885   -0.16085421161283
             0.5442493     1.1434564825515
 s    1 1.00
             0.1687144                   1
 p    3 1.00
             7.8682724   0.068999095584993
             1.8812885    0.31642397975315
             0.5442493    0.74430825237435
 p    1 1.00
             0.1687144                   1
 d    1 1.00
                   0.8                   1

35 0
 s    3 1.00
             18.731137    0.03349459952309
             2.8253937    0.23472694665786
             0.6401217    0.81375731841339
 s    1 1.00
             0.1612778                   1

36 0
 s    6 1.00
             3047.5249  0.0018347001629433
             457.36951    0.01403730124668
             103.94869   0.068842606114048
             29.210155    0.23218442062076
              9.286663    0.46794134155879
              3.163927    0.36231203217765
 s    3 1.00
             7.8682724   -0.11933240861517
             1.8812885   -0.16085421161283
             0.5442493     1.1434564825515
 s    1 1.00
             0.1687144                   1
 p    3 1.00
             7.8682724   0.068999095584993
             1.8812885    0.31642397975315
             0.5442493    0.74430825237435
 p    1 1.00
             0.1687144                   1
 d    1 1.00
                   0.8                   1

37 0
 s    3 1.00
             18.731137    0.03349459952309
             2.8253937    0.23472694665786
             0.6401217    0.81375731841339
 s    1 1.00
             0.1612778                   1

38 0
 s    3 1.00
             18.731137    0.03349459952309
             2.8253937    0.23472694665786
             0.6401217    0.81375731841339
 s    1 1.00
             0.1612778                   1

39 0
 s    6 1.00
             3047.5249  0.0018347001629433
             457.36951    0.01403730124668
             103.94869   0.068842606114048
             29.210155    0.23218442062076
              9.286663    0.46794134155879
              3.163927    0.36231203217765
 s    3 1.00
             7.8682724   -0.11933240861517
             1.8812885   -0.16085421161283
             0.5442493     1.1434564825515
 s    1 1.00
             0.1687144                   1
 p    3 1.00
             7.8682724   0.068999095584993
             1.8812885    0.31642397975315
             0.5442493    0.74430825237435
 p    1 1.00
             0.1687144                   1
 d    1 1.00
                   0.8                   1

40 0
 s    6 1.00
             3047.5249  0.0018347001629433
             457.36951    0.01403730124668
             103.94869   0.068842606114048
             29.210155    0.23218442062076
              9.286663    0.46794134155879
              3.163927    0.36231203217765
 s    3 1.00
             7.8682724   -0.11933240861517
             1.8812885   -0.16085421161283
             0.5442493     1.1434564825515
 s    1 1.00
             0.1687144                   1
 p    3 1.00
             7.8682724   0.068999095584993
             1.8812885    0.31642397975315
             0.5442493    0.74430825237435
 p    1 1.00
             0.1687144                   1
 d    1 1.00
                   0.8                   1

41 0
 s    3 1.00
             18.731137    0.03349459952309
             2.8253937    0.23472694665786
             0.6401217    0.81375731841339
 s    1 1.00
             0.1612778                   1

42 0
 s    6 1.00
             5484.6717   0.001831099805527
             825.23495   0.013950098518422
             188.04696    0.06844509273075
               52.9645    0.23271427528445
              16.89757    0.47019295006289
             5.7996353    0.35852086192309
 s    3 1.00
             15.539616   -0.11077750382508
             3.5999336   -0.14802630511126
             1.0137618     1.1307670390447
 s    1 1.00
             0.2700058                   1
 p    3 1.00
             15.539616   0.070874299543311
             3.5999336    0.33975279781076
             1.0137618    0.72715859531445
 p    1 1.00
             0.2700058                   1
 d    1 1.00
                   0.8                   1

43 0
 s    3 1.00
             18.731137    0.03349459952309
             2.8253937    0.23472694665786
             0.6401217    0.81375731841339
 s    1 1.00
             0.1612778                   1

[5d]
[7f]
[9g]

[MO]
 Sym= A
 Ene=               0
 Spin= Alpha
 Occup=    1.00000
   1    -0.012105555752523
   2    0.0012907269083906
   3    -0.0088265550470901
   4    -0.00053059371052069
   5    0.00015263643146031
   6    -0.0012475863442748
   7    -2.9627876982636e-06
   8    -0.00095427551580066
   9     0.004061735541359
  10    0.0010103578321426
  11    0.0010402507799271
  12    -0.00011635436876027
  13    0.00025671512825488
  14    -7.1235788248118e-05
  15    0.00042970137844148
  16    0.00094244789049313
  17     -0.99446798935566
  18    -0.038609061920136
  19     0.030520188154947
  20    -0.00089705899185212
  21    -0.00024240719034573
  22    0.00015709067523297
  23    0.0039680342082636
  24    0.00091272595646378
  25    0.00068280141617482
  26    -0.00077240769599221
  27    0.0002655486807445
  28    0.00038873168338387
  29    -0.00017998233194613
  30    -0.00021854220623592
  31    0.0013421322988254
  32    -0.0039825352911738
  33    -0.026241255173809
  34    0.0011408094299219
  35    -0.007905261191814
  36    -0.00092287198463488
  37    -0.00051584084039913
  38    0.0014775324783353
  39    0.0012164517042438
  40    0.00055717317716242
  41    -0.003262288328463
  42    0.00062595622543427
  43    -0.0011209026324401
  44    -0.00062370639733358
  45    0.00032331281527631
  46    0.00051572940252693
  47    0.00034449016952226
  48    -0.00029257352876745
  49    0.0010753577185865
  50    0.00027752372245687
  51    0.0029127178203966
  52    -0.00027899317121593
  53    -0.00017803820695314
  54    0.00019342720462537
  55    0.0017896540964674
  56    0.0014532958003683
  57    -0.002488451540488
  58    1.8298192748631e-05
  59    -0.000197137300499
  60    5.8917511467296e-05
  61    -4.4529302065102e-05
  62    9.8067950921909e-05
  63    0.00026681944333203
  64    0.00024697600967395
  65    2.1876482814131e-06
  66    6.225377791942e-06
  67    -1.9853888989256e-07
  68    -2.514172974392e-06
  69    5.2655159302528e-06
  70    -2.3266388912885e-07
  71    3.0071369013551e-06
  72    1.1979044135555e-06
  73    -1.240867079813e-05
  74    -2.5402954323236e-05
  75    -1.4240359437125e-05
  76    1.4232518054713e-07
  77    -1.9219387769145e-07
  78    2.2092000814411e-07
  79    -1.9786580962345e-07
  80    -2.5753020213924e-07
  81    -2.7845639548471e-06
  82    -1.4934155380084e-05
  83    2.3960317975064e-07
  84    4.1566946896958e-07
  85    1.4523369450931e-05
  86    -1.5430350469108e-06
  87    -3.7031469940938e-06
  88    -1.4016938671572e-06
  89    -3.5655290542451e-06
  90    4.7518084545469e-05
  91    1.8703514270026e-06
  92    -1.4379782847113e-06
  93    1.0784270022658e-06
  94    -1.9033896282796e-06
  95    4.6356959084819e-07
  96    7.8947346434691e-07
  97    -4.3135237983807e-06
  98    -1.1666846352386e-05
  99    3.6611030917228e-06
 100    1.6300128064198e-05
 101    -3.0683831279432e-07
 102    3.6602199193792e-06
 103    -5.1887220810599e-05
 104    1.7554892702745e-06
 105    6.9825140174187e-06
 106    -2.0953060808967e-06
 107    7.4834009932573e-05
 108     -9.5494665421e-05
 109    -6.0925499812294e-05
 110    6.1607699914608e-06
 111    2.6982525706931e-08
 112    7.9752570616541e-08
 113    8.2376397171556e-08
 114    1.6769076252626e-06
 115    2.7030094264162e-06
 116    2.9033227195363e-05
 117    -0.00015270661453307
 118    -7.5845924573942e-07
 119    3.1904105776618e-06
 120    -5.7137742496007e-06
 121    3.6861017548127e-05
 122    -2.7902578686023e-05
 123    3.979755962301e-06
 124    -1.0204024391934e-06
 125    2.0405342373515e-06
 126    1.7102235586339e-06
 127    -1.0907167648757e-06
 128    1.3080178646502e-06
 129    2.8270366511353e-06
 130    3.2972619145984e-05
 131    9.2156225049898e-05
 132    3.2377202238107e-06
 133    5.2734985075566e-06
 134    -2.0104124838541e-05
 135    0.00011574285836402
 136    1.1821482788304e-05
 137    9.5448004075557e-05
 138    2.2273029367226e-06
 139    -9.407871064029e-06
 140    -2.5124292581628e-06
 141    -4.9718195546665e-06
 142    -5.7312110137007e-06
 143    1.508608648142e-06
 144    1.9315003156453e-05
 145    -4.1106918318103e-05
 146    -3.0181139401916e-06
 147    -5.7372261149432e-06
 148    -7.3113184646152e-06
 149    9.5470092845476e-06
 150    1.9488728950258e-06
 151    7.3917949836986e-05
 152    1.7500170027567e-06
 153    4.4364472118361e-06
 154    9.9518827559348e-07
 155    -1.9283117197277e-06
 156    1.1643393261329e-06
 157    -1.148089942516e-06
 158    -9.7364263286121e-06
 159    3.490356587827e-05
 160    -4.2247591940553e-06
 161    2.8078771847656e-07
 162    2.0588007776231e-06
 163    2.9513729151996e-05
 164    -2.528132815169e-05
 165    -1.3246811902997e-05
 166    -2.8134411109807e-06
 167    8.152656082272e-07
 168    6.1336118305805e-07
 169    -1.6242267464313e-06
 170    -3.2566133163611e-07
 171    9.4487159015414e-07
 172    1.5524169573133e-05
 173    -3.096731208284e-05
 174    3.6760116992575e-06
 175    -3.4505748891066e-07
 176    -9.334041848909e-06
 177    2.2014462487092e-06
 178    1.3823525665933e-05
 179    2.8898311058902e-05
 180    -1.6483721524441e-06
 181    -3.520360821531e-06
 182    -1.0989084884393e-06
 183    3.3517645464245e-07
 184    -5.7095305595942e-07
 185    1.8949951866287e-06
 186    1.4578264707403e-05
 187    -6.092811815067e-05
 188    5.0181382032477e-07
 189    4.2886770346109e-08
 190    -1.2975927766403e-06
 191    1.8430759707727e-05
 192    9.3139826170922e-06
 193    4.475926903409e-05
 194    -1.493699701675e-06
 195    -1.4375462077028e-06
 196    -1.2575474192637e-06
 197    -7.7017106573369e-08
 198    -6.5025784072206e-07
 199    3.5030342775482e-06
 200    -4.7691889397989e-06
 201    2.9098658960653e-06
 202    -6.212173840479e-06
 203    5.7250051185271e-06
 204    -1.2826214785746e-05
 205    3.4942635034993e-06
 206    2.4100966139044e-05
 207    -7.3965403976975e-06
 208    5.446500393146e-05
 209    -8.4915534756268e-06
 210    1.4189264911934e-05
 211    -4.5571106035304e-06
 212    -8.5112602126779e-06
 213    6.1931424488823e-07
 214    1.5875822991623e-05
 215    3.6232884616098e-07
 216    4.5323675772741e-05
 217    -2.7601973403466e-07
 218    -1.1928168293613e-05
 219    1.7078220184797e-06
 220    6.6336740832183e-06
 221    5.1202247493077e-06
 222    5.8376904521137e-05
 223    -0.00089262454153839
 224    2.1075679958862e-05
 225    3.9102355427473e-06
 226    6.5612921896899e-06
 227    -0.00065937560008521
 228    -0.00021823043072393
 229    0.00036366123113318
 230    -3.6067461848743e-06
 231    2.6873744493953e-05
 232    1.1859614540109e-05
 233    -1.603151935851e-05
 234    -1.5288641335935e-05
 235    2.1906735747482e-05
 236    6.2681133012577e-05
 237    -0.00047067145502051
 238    1.9935401385923e-05
 239    2.7618012857424e-06
 240    1.2814981753124e-05
 241    -0.00016536953444476
 242    -0.00038304256879812
 243    0.0016274587649572
 244    -2.8346347918844e-05
 245    -6.0727946911695e-05
 246    1.5226039822837e-06
 247    -1.6467699482379e-05
 248    6.8927698592189e-06
 249    8.7972290201495e-06
 250    -0.00031593081314503
 251    4.4932948261121e-06
 252    0.00024861936936758
 253    0.00014311268781376
 254    -8.3556890699887e-05
 255    9.8020006415341e-06
 256    -0.00025905953226053
 257    0.00087387086701737
 258    0.00011028472503068
 259    0.0011299258756897
 260     0.000103401068475
 261    -1.4395283068253e-05
 262    -1.712781901159e-05
 263    -0.0001328408070156
 264    -6.2546251648229e-05
 265    8.3110864063342e-05
 266    -0.00013248735718646
 267    0.00014850970245171
 268    0.0006767382099128
 269    4.7540118181747e-05
 270    0.00027969557848927
 271    -0.0036967932737475
 272     6.94786457288e-05
 273    2.5084073115173e-05
 274    -3.5882103969534e-05
 275    0.0012309538831552
 276    0.00053167546077961
 277    -0.0020935697768823
 278    -9.2924257201684e-05
 279    8.963590604555e-05
 280    5.1568858238085e-05
 281    -4.9011105550899e-05