[Molden Format]
made by pyscf v[2.0.1]
[Atoms] (AU)
C   1   6     0.69100024066471     0.64692934207205    -3.48223131169301
H   2   1     2.68052439830868     1.13355088658700    -3.25784032593313
C   3   6    -0.36286361513219     0.85440132524594    -5.97030179418974
H   4   1    -2.35448549047279     0.36322488579172    -6.17995817793143
C   5   6     0.93697958957450     1.61209284601821    -8.05828437677121
H   6   1     2.04771873455416     3.34419409619576    -7.97445952172335
C   7   6     0.93181860145248     0.24539724069794   -10.40101785795171
H   8   1    -0.18866463604211    -1.48700602985521   -10.45595821195799
H   9   1     1.55630230933075    -1.92953025305990    12.99630010416247
C   10   6     0.75233899775814    -2.21270439606481    11.10705728102219
H   11   1    -0.43433408177274    -3.90944857546550    11.22216085340412
C   12   6     2.86362581178706    -2.63237380607947     9.17926416456045
H   13   1     4.39038949912609    -1.24955421540245     9.49899813497433
H   14   1     3.74629220191363    -4.48798724300892     9.47414880959024
C   15   6     2.02478325613682    -2.42177285709634     6.44560829588644
C   16   6     3.88048732735477    -3.58795445234514     4.61402886975252
C   17   6    -0.18412382258602    -1.30464291234259     5.76021113872346
C   18   6    -2.10044360464350    -0.26837831858460     7.71610340967100
C   19   6    -3.08956938670431     2.35282328359417     6.88693925039594
C   20   6    -4.37372924086464    -2.09766595989678     7.93610724222001
C   21   6    -0.83850430601230     0.06372213486173    10.33002307638377
H   22   1     0.38411922151109     1.74281358582432    10.27380136542181
H   23   1    -2.30980003007874     0.45460143924521    11.73986301809809
H   24   1     4.58527064644668    -5.38706904487420     5.36778158031719
H   25   1     5.54944938085014    -2.37631462192748     4.35398898413318
H   26   1     3.06633019150423    -3.94118377050688     2.75255466040884
H   27   1    -4.17727778763735     2.26573369139522     5.12914900961283
H   28   1    -1.52662344944051     3.68001877445626     6.59540397144508
H   29   1    -4.32916174397830     3.13643051467482     8.35225460090378
H   30   1    -5.32329548508442    -2.36691813602939     6.11583672749896
H   31   1    -5.77989366602257    -1.33896741843465     9.25748940450990
H   32   1    -3.79310905208926    -3.96389819310853     8.61386170102686
C   33   6    -1.01100794811226    -1.06331657314144     3.11929490449947
C   34   6     0.37686231036534    -0.33275864505552     1.09165013605873
H   35   1    -3.01671213906703    -1.40297922279997     2.77827895090944
C   36   6    -0.64382707979370    -0.11591880174385    -1.42063131251064
H   37   1     2.35569259782137     0.17174499283897     1.33641070251401
H   38   1    -2.63317482980319    -0.60229203511219    -1.66119700387645
C   39   6     2.19331151370285     0.92821726401642   -12.52684146370420
C   40   6     2.06658501336205    -0.59430170292716   -14.82312084011087
H   41   1     3.34297492540252     2.63137484242591   -12.59961951178576
O   42   8     3.14891962090165    -0.09254461622574   -16.79735885819125
H   43   1     0.86886987612456    -2.32059369084518   -14.66320417409860
[GTO]
1 0
 s    6 1.00
             3047.5249  0.0018347001629433
             457.36951    0.01403730124668
             103.94869   0.068842606114048
             29.210155    0.23218442062076
              9.286663    0.46794134155879
              3.163927    0.36231203217765
 s    3 1.00
             7.8682724   -0.11933240861517
             1.8812885   -0.16085421161283
             0.5442493     1.1434564825515
 s    1 1.00
             0.1687144                   1
 p    3 1.00
             7.8682724   0.068999095584993
             1.8812885    0.31642397975315
             0.5442493    0.74430825237435
 p    1 1.00
             0.1687144                   1
 d    1 1.00
                   0.8                   1

2 0
 s    3 1.00
             18.731137    0.03349459952309
             2.8253937    0.23472694665786
             0.6401217    0.81375731841339
 s    1 1.00
             0.1612778                   1

3 0
 s    6 1.00
             3047.5249  0.0018347001629433
             457.36951    0.01403730124668
             103.94869   0.068842606114048
             29.210155    0.23218442062076
              9.286663    0.46794134155879
              3.163927    0.36231203217765
 s    3 1.00
             7.8682724   -0.11933240861517
             1.8812885   -0.16085421161283
             0.5442493     1.1434564825515
 s    1 1.00
             0.1687144                   1
 p    3 1.00
             7.8682724   0.068999095584993
             1.8812885    0.31642397975315
             0.5442493    0.74430825237435
 p    1 1.00
             0.1687144                   1
 d    1 1.00
                   0.8                   1

4 0
 s    3 1.00
             18.731137    0.03349459952309
             2.8253937    0.23472694665786
             0.6401217    0.81375731841339
 s    1 1.00
             0.1612778                   1

5 0
 s    6 1.00
             3047.5249  0.0018347001629433
             457.36951    0.01403730124668
             103.94869   0.068842606114048
             29.210155    0.23218442062076
              9.286663    0.46794134155879
              3.163927    0.36231203217765
 s    3 1.00
             7.8682724   -0.11933240861517
             1.8812885   -0.16085421161283
             0.5442493     1.1434564825515
 s    1 1.00
             0.1687144                   1
 p    3 1.00
             7.8682724   0.068999095584993
             1.8812885    0.31642397975315
             0.5442493    0.74430825237435
 p    1 1.00
             0.1687144                   1
 d    1 1.00
                   0.8                   1

6 0
 s    3 1.00
             18.731137    0.03349459952309
             2.8253937    0.23472694665786
             0.6401217    0.81375731841339
 s    1 1.00
             0.1612778                   1

7 0
 s    6 1.00
             3047.5249  0.0018347001629433
             457.36951    0.01403730124668
             103.94869   0.068842606114048
             29.210155    0.23218442062076
              9.286663    0.46794134155879
              3.163927    0.36231203217765
 s    3 1.00
             7.8682724   -0.11933240861517
             1.8812885   -0.16085421161283
             0.5442493     1.1434564825515
 s    1 1.00
             0.1687144                   1
 p    3 1.00
             7.8682724   0.068999095584993
             1.8812885    0.31642397975315
             0.5442493    0.74430825237435
 p    1 1.00
             0.1687144                   1
 d    1 1.00
                   0.8                   1

8 0
 s    3 1.00
             18.731137    0.03349459952309
             2.8253937    0.23472694665786
             0.6401217    0.81375731841339
 s    1 1.00
             0.1612778                   1

9 0
 s    3 1.00
             18.731137    0.03349459952309
             2.8253937    0.23472694665786
             0.6401217    0.81375731841339
 s    1 1.00
             0.1612778                   1

10 0
 s    6 1.00
             3047.5249  0.0018347001629433
             457.36951    0.01403730124668
             103.94869   0.068842606114048
             29.210155    0.23218442062076
              9.286663    0.46794134155879
              3.163927    0.36231203217765
 s    3 1.00
             7.8682724   -0.11933240861517
             1.8812885   -0.16085421161283
             0.5442493     1.1434564825515
 s    1 1.00
             0.1687144                   1
 p    3 1.00
             7.8682724   0.068999095584993
             1.8812885    0.31642397975315
             0.5442493    0.74430825237435
 p    1 1.00
             0.1687144                   1
 d    1 1.00
                   0.8                   1

11 0
 s    3 1.00
             18.731137    0.03349459952309
             2.8253937    0.23472694665786
             0.6401217    0.81375731841339
 s    1 1.00
             0.1612778                   1

12 0
 s    6 1.00
             3047.5249  0.0018347001629433
             457.36951    0.01403730124668
             103.94869   0.068842606114048
             29.210155    0.23218442062076
              9.286663    0.46794134155879
              3.163927    0.36231203217765
 s    3 1.00
             7.8682724   -0.11933240861517
             1.8812885   -0.16085421161283
             0.5442493     1.1434564825515
 s    1 1.00
             0.1687144                   1
 p    3 1.00
             7.8682724   0.068999095584993
             1.8812885    0.31642397975315
             0.5442493    0.74430825237435
 p    1 1.00
             0.1687144                   1
 d    1 1.00
                   0.8                   1

13 0
 s    3 1.00
             18.731137    0.03349459952309
             2.8253937    0.23472694665786
             0.6401217    0.81375731841339
 s    1 1.00
             0.1612778                   1

14 0
 s    3 1.00
             18.731137    0.03349459952309
             2.8253937    0.23472694665786
             0.6401217    0.81375731841339
 s    1 1.00
             0.1612778                   1

15 0
 s    6 1.00
             3047.5249  0.0018347001629433
             457.36951    0.01403730124668
             103.94869   0.068842606114048
             29.210155    0.23218442062076
              9.286663    0.46794134155879
              3.163927    0.36231203217765
 s    3 1.00
             7.8682724   -0.11933240861517
             1.8812885   -0.16085421161283
             0.5442493     1.1434564825515
 s    1 1.00
             0.1687144                   1
 p    3 1.00
             7.8682724   0.068999095584993
             1.8812885    0.31642397975315
             0.5442493    0.74430825237435
 p    1 1.00
             0.1687144                   1
 d    1 1.00
                   0.8                   1

16 0
 s    6 1.00
             3047.5249  0.0018347001629433
             457.36951    0.01403730124668
             103.94869   0.068842606114048
             29.210155    0.23218442062076
              9.286663    0.46794134155879
              3.163927    0.36231203217765
 s    3 1.00
             7.8682724   -0.11933240861517
             1.8812885   -0.16085421161283
             0.5442493     1.1434564825515
 s    1 1.00
             0.1687144                   1
 p    3 1.00
             7.8682724   0.068999095584993
             1.8812885    0.31642397975315
             0.5442493    0.74430825237435
 p    1 1.00
             0.1687144                   1
 d    1 1.00
                   0.8                   1

17 0
 s    6 1.00
             3047.5249  0.0018347001629433
             457.36951    0.01403730124668
             103.94869   0.068842606114048
             29.210155    0.23218442062076
              9.286663    0.46794134155879
              3.163927    0.36231203217765
 s    3 1.00
             7.8682724   -0.11933240861517
             1.8812885   -0.16085421161283
             0.5442493     1.1434564825515
 s    1 1.00
             0.1687144                   1
 p    3 1.00
             7.8682724   0.068999095584993
             1.8812885    0.31642397975315
             0.5442493    0.74430825237435
 p    1 1.00
             0.1687144                   1
 d    1 1.00
                   0.8                   1

18 0
 s    6 1.00
             3047.5249  0.0018347001629433
             457.36951    0.01403730124668
             103.94869   0.068842606114048
             29.210155    0.23218442062076
              9.286663    0.46794134155879
              3.163927    0.36231203217765
 s    3 1.00
             7.8682724   -0.11933240861517
             1.8812885   -0.16085421161283
             0.5442493     1.1434564825515
 s    1 1.00
             0.1687144                   1
 p    3 1.00
             7.8682724   0.068999095584993
             1.8812885    0.31642397975315
             0.5442493    0.74430825237435
 p    1 1.00
             0.1687144                   1
 d    1 1.00
                   0.8                   1

19 0
 s    6 1.00
             3047.5249  0.0018347001629433
             457.36951    0.01403730124668
             103.94869   0.068842606114048
             29.210155    0.23218442062076
              9.286663    0.46794134155879
              3.163927    0.36231203217765
 s    3 1.00
             7.8682724   -0.11933240861517
             1.8812885   -0.16085421161283
             0.5442493     1.1434564825515
 s    1 1.00
             0.1687144                   1
 p    3 1.00
             7.8682724   0.068999095584993
             1.8812885    0.31642397975315
             0.5442493    0.74430825237435
 p    1 1.00
             0.1687144                   1
 d    1 1.00
                   0.8                   1

20 0
 s    6 1.00
             3047.5249  0.0018347001629433
             457.36951    0.01403730124668
             103.94869   0.068842606114048
             29.210155    0.23218442062076
              9.286663    0.46794134155879
              3.163927    0.36231203217765
 s    3 1.00
             7.8682724   -0.11933240861517
             1.8812885   -0.16085421161283
             0.5442493     1.1434564825515
 s    1 1.00
             0.1687144                   1
 p    3 1.00
             7.8682724   0.068999095584993
             1.8812885    0.31642397975315
             0.5442493    0.74430825237435
 p    1 1.00
             0.1687144                   1
 d    1 1.00
                   0.8                   1

21 0
 s    6 1.00
             3047.5249  0.0018347001629433
             457.36951    0.01403730124668
             103.94869   0.068842606114048
             29.210155    0.23218442062076
              9.286663    0.46794134155879
              3.163927    0.36231203217765
 s    3 1.00
             7.8682724   -0.11933240861517
             1.8812885   -0.16085421161283
             0.5442493     1.1434564825515
 s    1 1.00
             0.1687144                   1
 p    3 1.00
             7.8682724   0.068999095584993
             1.8812885    0.31642397975315
             0.5442493    0.74430825237435
 p    1 1.00
             0.1687144                   1
 d    1 1.00
                   0.8                   1

22 0
 s    3 1.00
             18.731137    0.03349459952309
             2.8253937    0.23472694665786
             0.6401217    0.81375731841339
 s    1 1.00
             0.1612778                   1

23 0
 s    3 1.00
             18.731137    0.03349459952309
             2.8253937    0.23472694665786
             0.6401217    0.81375731841339
 s    1 1.00
             0.1612778                   1

24 0
 s    3 1.00
             18.731137    0.03349459952309
             2.8253937    0.23472694665786
             0.6401217    0.81375731841339
 s    1 1.00
             0.1612778                   1

25 0
 s    3 1.00
             18.731137    0.03349459952309
             2.8253937    0.23472694665786
             0.6401217    0.81375731841339
 s    1 1.00
             0.1612778                   1

26 0
 s    3 1.00
             18.731137    0.03349459952309
             2.8253937    0.23472694665786
             0.6401217    0.81375731841339
 s    1 1.00
             0.1612778                   1

27 0
 s    3 1.00
             18.731137    0.03349459952309
             2.8253937    0.23472694665786
             0.6401217    0.81375731841339
 s    1 1.00
             0.1612778                   1

28 0
 s    3 1.00
             18.731137    0.03349459952309
             2.8253937    0.23472694665786
             0.6401217    0.81375731841339
 s    1 1.00
             0.1612778                   1

29 0
 s    3 1.00
             18.731137    0.03349459952309
             2.8253937    0.23472694665786
             0.6401217    0.81375731841339
 s    1 1.00
             0.1612778                   1

30 0
 s    3 1.00
             18.731137    0.03349459952309
             2.8253937    0.23472694665786
             0.6401217    0.81375731841339
 s    1 1.00
             0.1612778                   1

31 0
 s    3 1.00
             18.731137    0.03349459952309
             2.8253937    0.23472694665786
             0.6401217    0.81375731841339
 s    1 1.00
             0.1612778                   1

32 0
 s    3 1.00
             18.731137    0.03349459952309
             2.8253937    0.23472694665786
             0.6401217    0.81375731841339
 s    1 1.00
             0.1612778                   1

33 0
 s    6 1.00
             3047.5249  0.0018347001629433
             457.36951    0.01403730124668
             103.94869   0.068842606114048
             29.210155    0.23218442062076
              9.286663    0.46794134155879
              3.163927    0.36231203217765
 s    3 1.00
             7.8682724   -0.11933240861517
             1.8812885   -0.16085421161283
             0.5442493     1.1434564825515
 s    1 1.00
             0.1687144                   1
 p    3 1.00
             7.8682724   0.068999095584993
             1.8812885    0.31642397975315
             0.5442493    0.74430825237435
 p    1 1.00
             0.1687144                   1
 d    1 1.00
                   0.8                   1

34 0
 s    6 1.00
             3047.5249  0.0018347001629433
             457.36951    0.01403730124668
             103.94869   0.068842606114048
             29.210155    0.23218442062076
              9.286663    0.46794134155879
              3.163927    0.36231203217765
 s    3 1.00
             7.8682724   -0.11933240861517
             1.8812885   -0.16085421161283
             0.5442493     1.1434564825515
 s    1 1.00
             0.1687144                   1
 p    3 1.00
             7.8682724   0.068999095584993
             1.8812885    0.31642397975315
             0.5442493    0.74430825237435
 p    1 1.00
             0.1687144                   1
 d    1 1.00
                   0.8                   1

35 0
 s    3 1.00
             18.731137    0.03349459952309
             2.8253937    0.23472694665786
             0.6401217    0.81375731841339
 s    1 1.00
             0.1612778                   1

36 0
 s    6 1.00
             3047.5249  0.0018347001629433
             457.36951    0.01403730124668
             103.94869   0.068842606114048
             29.210155    0.23218442062076
              9.286663    0.46794134155879
              3.163927    0.36231203217765
 s    3 1.00
             7.8682724   -0.11933240861517
             1.8812885   -0.16085421161283
             0.5442493     1.1434564825515
 s    1 1.00
             0.1687144                   1
 p    3 1.00
             7.8682724   0.068999095584993
             1.8812885    0.31642397975315
             0.5442493    0.74430825237435
 p    1 1.00
             0.1687144                   1
 d    1 1.00
                   0.8                   1

37 0
 s    3 1.00
             18.731137    0.03349459952309
             2.8253937    0.23472694665786
             0.6401217    0.81375731841339
 s    1 1.00
             0.1612778                   1

38 0
 s    3 1.00
             18.731137    0.03349459952309
             2.8253937    0.23472694665786
             0.6401217    0.81375731841339
 s    1 1.00
             0.1612778                   1

39 0
 s    6 1.00
             3047.5249  0.0018347001629433
             457.36951    0.01403730124668
             103.94869   0.068842606114048
             29.210155    0.23218442062076
              9.286663    0.46794134155879
              3.163927    0.36231203217765
 s    3 1.00
             7.8682724   -0.11933240861517
             1.8812885   -0.16085421161283
             0.5442493     1.1434564825515
 s    1 1.00
             0.1687144                   1
 p    3 1.00
             7.8682724   0.068999095584993
             1.8812885    0.31642397975315
             0.5442493    0.74430825237435
 p    1 1.00
             0.1687144                   1
 d    1 1.00
                   0.8                   1

40 0
 s    6 1.00
             3047.5249  0.0018347001629433
             457.36951    0.01403730124668
             103.94869   0.068842606114048
             29.210155    0.23218442062076
              9.286663    0.46794134155879
              3.163927    0.36231203217765
 s    3 1.00
             7.8682724   -0.11933240861517
             1.8812885   -0.16085421161283
             0.5442493     1.1434564825515
 s    1 1.00
             0.1687144                   1
 p    3 1.00
             7.8682724   0.068999095584993
             1.8812885    0.31642397975315
             0.5442493    0.74430825237435
 p    1 1.00
             0.1687144                   1
 d    1 1.00
                   0.8                   1

41 0
 s    3 1.00
             18.731137    0.03349459952309
             2.8253937    0.23472694665786
             0.6401217    0.81375731841339
 s    1 1.00
             0.1612778                   1

42 0
 s    6 1.00
             5484.6717   0.001831099805527
             825.23495   0.013950098518422
             188.04696    0.06844509273075
               52.9645    0.23271427528445
              16.89757    0.47019295006289
             5.7996353    0.35852086192309
 s    3 1.00
             15.539616   -0.11077750382508
             3.5999336   -0.14802630511126
             1.0137618     1.1307670390447
 s    1 1.00
             0.2700058                   1
 p    3 1.00
             15.539616   0.070874299543311
             3.5999336    0.33975279781076
             1.0137618    0.72715859531445
 p    1 1.00
             0.2700058                   1
 d    1 1.00
                   0.8                   1

43 0
 s    3 1.00
             18.731137    0.03349459952309
             2.8253937    0.23472694665786
             0.6401217    0.81375731841339
 s    1 1.00
             0.1612778                   1

[5d]
[7f]
[9g]

[MO]
 Sym= A
 Ene=               0
 Spin= Alpha
 Occup=    1.00000
   1     0.013514351178226
   2    -0.001196151717881
   3    0.0072276808932542
   4    0.00045910108843257
   5    -7.4901445027996e-05
   6    0.0013419894258854
   7    0.00074609348646372
   8    0.00083336434922505
   9    -0.0043318782335757
  10    -0.0010631973565907
  11    -0.0010102118989912
  12    0.00015319883326115
  13    -0.00024900315554336
  14    5.6430746198696e-05
  15    -0.00047864665901774
  16    -0.00098223022002279
  17      0.99453718919746
  18     0.038731870418908
  19    -0.029841014136816
  20    0.00084121393145584
  21    0.00019230152410137
  22    -0.00038509451722089
  23    -0.0033837832959478
  24    -0.0010326359716164
  25    -0.00016315270463487
  26    0.00084855464759517
  27    -0.00026792144774675
  28    -0.00040429133753343
  29    0.00024950156043653
  30    0.00011542101806938
  31    -0.0012322607685094
  32    0.0041881213672202
  33     0.022661251886043
  34    -0.00065088830422054
  35    0.0041748827958175
  36    0.00095316375098397
  37     0.000412886318285
  38    -0.0014457789369345
  39    -0.00054075644109311
  40    0.0017713532363204
  41    0.0052086796723776
  42    -0.00074406501207824
  43    0.0011504093613584
  44    0.00055756680026375
  45    -0.00039286294643571
  46    -0.00047643434147343
  47    -0.00053792131848667
  48    -0.00062289575515227
  49    -0.00089900796754697
  50    -0.0005132625444813
  51    0.0004468092038708
  52    2.9973322348961e-05
  53    0.00010047491032785
  54    -0.00040040658066793
  55    -0.0015909055079688
  56    2.4135344570804e-05
  57    0.0056406308960729
  58    -4.9892906806305e-05
  59    8.4399505706971e-05
  60    0.00017531717169368
  61    -0.00012084923403027
  62    0.00011546343856946
  63    -0.00033957434826434
  64    -5.454326896498e-05
  65    -2.3130122506027e-06
  66    -5.3886154131173e-06
  67    -1.2035706123397e-08
  68    -2.0777398779785e-08
  69    6.6392948930942e-06
  70    1.5140709997486e-06
  71    -3.3762341494782e-06
  72    -6.2711603190603e-07
  73    9.964400431499e-06
  74    2.2073895838481e-05
  75    1.0746595192182e-05
  76    -3.2150325939477e-07
  77    -3.6648150412276e-07
  78    1.985337249837e-07
  79    4.3557230443576e-07
  80    -9.0692321190881e-08
  81    1.9298768431092e-06
  82    1.1072676716844e-05
  83    1.4566574376476e-09
  84    2.0684398942746e-07
  85    -4.76940905719e-05
  86    2.6346471732807e-06
  87    2.7325640889719e-06
  88    3.9071761134625e-06
  89    1.7961855511894e-05
  90    -5.0990903532983e-05
  91    4.7320483125579e-06
  92    1.4848446226505e-06
  93    -2.1827405694602e-06
  94    2.677523085605e-06
  95    -5.1967666718781e-07
  96    -9.4253324647637e-07
  97    4.9520066028614e-06
  98    9.774077913966e-06
  99    -2.7712196849405e-06
 100    -1.5594525188203e-05
 101    -7.7601900665105e-07
 102    -1.0037672398433e-05
 103    0.0001697967547138
 104    -9.3331978330608e-07
 105    -5.9671774768853e-06
 106    -1.2173899703617e-06
 107    -0.00014868933034913
 108    0.00013960982777127
 109    0.00011038544604387
 110    -5.6292330053566e-06
 111    -7.3117181118338e-07
 112    2.739473136133e-07
 113    2.0339405192777e-06
 114    -3.7556589714809e-06
 115    -3.0467422890668e-06
 116    -3.1059427710056e-05
 117    0.00020762329345728
 118    -1.7301361172618e-06
 119    1.8174097665554e-06
 120    5.0737242831746e-06
 121    -4.1207965816632e-05
 122    1.2226995325664e-05
 123    1.2310209048316e-05
 124    1.2105621048999e-06
 125    -1.8484634452114e-06
 126    -1.9830521399699e-06
 127    2.1794826472012e-07
 128    -1.6680887584835e-06
 129    -5.1683880759645e-06
 130    -4.8055490970026e-05
 131    7.2588788248841e-05
 132    1.5302362141147e-06
 133    -6.0248519823758e-06
 134    2.1368020713284e-05
 135    -0.00024556330973416
 136    4.3639918612282e-05
 137    -0.0003130708581054
 138    7.2551206029883e-06
 139    1.0772915533352e-05
 140    3.4144049742389e-06
 141    4.2009027153798e-06
 142    4.9756867638122e-06
 143    -1.2791694271944e-06
 144    -1.9116138391159e-05
 145    2.7758060972891e-05
 146    1.7335374617501e-06
 147    6.781469508891e-06
 148    7.3014007801176e-06
 149    1.3906278713846e-05
 150    -3.0367868099912e-05
 151    -2.8434041137553e-05
 152    -5.5463104747681e-06
 153    -3.0801728084287e-06
 154    -1.1805073766351e-06
 155    3.791517883931e-06
 156    -2.3334688089461e-06
 157    8.164942750472e-07
 158    6.1232931375553e-06
 159    -6.4509752383785e-08
 160    4.893442138247e-06
 161    -9.8705337939793e-07
 162    8.4802926448441e-08
 163    -3.2960246305452e-05
 164    9.0960776107693e-06
 165    4.8748052507658e-06
 166    2.7048136960824e-06
 167    1.0208330547544e-07
 168    -2.6687849692828e-07
 169    2.0463255268503e-07
 170    1.0243546582867e-06
 171    -5.4341556452964e-07
 172    -1.1690010220968e-05
 173    2.3373712520228e-05
 174    -2.3752013913033e-06
 175    2.8044786365051e-07
 176    8.5961393856787e-06
 177    -1.6182935663873e-05
 178    -6.090508182978e-06
 179    -3.1475482043929e-05
 180    1.8644564832994e-06
 181    3.1302497237863e-06
 182    5.2780179295306e-07
 183    -1.6790437923325e-06
 184    4.3599238972596e-07
 185    -2.4997695177537e-06
 186    -2.1257273257364e-05
 187    5.2801393088481e-05
 188    -1.3741879597235e-06
 189    7.4371634440362e-07
 190    4.3005359295828e-06
 191    -5.9775386426087e-07
 192    -4.1469940195736e-06
 193    -5.4330235014246e-05
 194    2.6382022448653e-06
 195    8.5941630860464e-07
 196    1.0569844789193e-06
 197    -8.8833304722682e-08
 198    1.3054160527755e-07
 199    -5.6257615395267e-06
 200    -9.8002542470498e-07
 201    -1.6869001858208e-06
 202    1.6886794152607e-05
 203    -9.3596507480504e-06
 204    -2.3697003891324e-06
 205    -2.4561508806834e-06
 206    -2.3754343566368e-05
 207    1.0315064315421e-05
 208    -7.2353670248124e-05
 209    7.3065307268917e-06
 210    -2.4808059722578e-05
 211    3.3891216171253e-06
 212    1.1800645565389e-05
 213    -8.5894507672615e-07
 214    -1.4876938926294e-05
 215    9.5139460250732e-07
 216    -5.0276224992737e-05
 217    3.2156709865841e-07
 218    5.7279707750981e-06
 219    -2.7885655177237e-07
 220    8.5922447970494e-07
 221    -3.4539092141555e-06
 222    -5.1412595473947e-05
 223    0.00055762821146677
 224    -2.0389613785683e-05
 225    -4.0770088881695e-07
 226    1.0391360680218e-05
 227    0.00055524393648695
 228    0.00021983034236236
 229    -0.00056592487467432
 230    -3.5797737103876e-06
 231    -3.0024140243361e-05
 232    -1.3947282421676e-05
 233    1.5575003491802e-05
 234    1.7368023030702e-05
 235    -2.0847560316724e-05
 236    -5.8475576537561e-05
 237    0.00047282633128966
 238    -1.4348319653512e-05
 239    3.992125492373e-06
 240    -1.9202784291233e-05
 241    8.4476610777682e-05
 242    0.00025417165743006
 243    -0.0014713205548576
 244    2.6781799845216e-05
 245    5.7292369358579e-05
 246    9.3839859563718e-06
 247    1.5293419403147e-05
 248    2.5223626122017e-06
 249    -2.1294609313137e-05
 250    0.00031967309087046
 251    -1.6632190359014e-05
 252    -0.00032523732135413
 253    0.00094313493977348
 254     0.000104669877856
 255    -4.5840661184749e-05
 256    0.00024085446666861
 257    -0.00063892598017738
 258    0.00029259889769516
 259    -0.0016280817623562
 260    -8.5001717447993e-05
 261    -3.1123592895616e-06
 262    -1.3024480356872e-05
 263    0.00012932735713041
 264    8.9781608930314e-05
 265    -7.4504361358067e-05
 266    0.00017935454356262
 267    -0.00015809928735759
 268    -0.00069255852333989
 269    -5.287723320674e-05
 270    -0.0003395084451643
 271    0.0043825085801622
 272    3.679163838052e-05
 273    2.2743445151202e-05
 274    0.00010669098596268
 275    -0.0018915687023385
 276    -0.0013276122500602
 277    0.0017288649415526
 278    5.0381927652852e-05
 279    -0.00012293240485003
 280    -3.1778779529826e-05