[Molden Format]
made by pyscf v[2.0.1]
[Atoms] (AU)
C   1   6     0.69100024069495     0.64692934212497    -3.48223131168734
H   2   1     2.68052439835215     1.13355088667581    -3.25784032595959
C   3   6    -0.36286361514353     0.85440132525350    -5.97030179416329
H   4   1    -2.35448549056350     0.36322488588432    -6.17995817799568
C   5   6     0.93697958950647     1.61209284601065    -8.05828437675987
H   6   1     2.92721069186250     2.10853558287052    -7.87534295441726
C   7   6    -0.17413039189613     1.80008207487984   -10.52534301739428
H   8   1    -2.16943049770440     1.29533627648343   -10.67939296478009
H   9   1     1.55630230933264    -1.92953025311848    12.99630010417381
C   10   6     0.75233899783373    -2.21270439606859    11.10705728099195
H   11   1    -0.43433408176896    -3.90944857543337    11.22216085348160
C   12   6     2.86362581169447    -2.63237380608325     9.17926416459635
H   13   1     4.39038949906562    -1.24955421532309     9.49899813488174
H   14   1     3.74629220184371    -4.48798724298246     9.47414880962803
C   15   6     2.02478325622942    -2.42177285713224     6.44560829586187
C   16   6     3.88048732732831    -3.58795445236593     4.61402886975252
C   17   6    -0.18412382264649    -1.30464291231236     5.76021113881606
C   18   6    -2.10044360460382    -0.26837831862807     7.71610340970501
C   19   6    -3.08956938678556     2.35282328352614     6.88693925042618
C   20   6    -4.37372924094212    -2.09766595985142     7.93610724215954
C   21   6    -0.83850430593104     0.06372213486551    10.33002307643668
H   22   1     0.38411922142983     1.74281358590180    10.27380136539346
H   23   1    -2.30980003011276     0.45460143923765    11.73986301804329
H   24   1     4.58527064636731    -5.38706904479673     5.36778158023404
H   25   1     5.54944938091628    -2.37631462201630     4.35398898404058
H   26   1     3.06633019144754    -3.94118377051822     2.75255466032570
H   27   1    -4.17727778763546     2.26573369145191     5.12914900957504
H   28   1    -1.52662344935358     3.68001877441469     6.59540397151878
H   29   1    -4.32916174393862     3.13643051473529     8.35225460094913
H   30   1    -5.32329548507875    -2.36691813603695     6.11583672741581
H   31   1    -5.77989366598289    -1.33896741838552     9.25748940451935
H   32   1    -3.79310905209871    -3.96389819308585     8.61386170106276
C   33   6    -1.01100794815762    -1.06331657313199     3.11929490450892
C   34   6     0.37686231029920    -0.33275864510088     1.09165013596992
H   35   1    -3.01671213911428    -1.40297922289257     2.77827895090755
C   36   6    -0.64382707979748    -0.11591880174763    -1.42063131255788
H   37   1     2.35569259790262     0.17174499287298     1.33641070253857
H   38   1    -2.63317482972383    -0.60229203504227    -1.66119700396716
C   39   6     1.04406642127022     2.54697835791677   -12.65486785204246
C   40   6    -0.25769856063703     2.67711278008941   -15.08293200861523
H   41   1     3.03094671002655     3.07573165426063   -12.63261900496242
O   42   8     0.71886931482866     3.33224024015006   -17.06735820381613
H   43   1    -2.28855418566595     2.11893682007881   -15.01778643592878
[GTO]
1 0
 s    6 1.00
             3047.5249  0.0018347001629433
             457.36951    0.01403730124668
             103.94869   0.068842606114048
             29.210155    0.23218442062076
              9.286663    0.46794134155879
              3.163927    0.36231203217765
 s    3 1.00
             7.8682724   -0.11933240861517
             1.8812885   -0.16085421161283
             0.5442493     1.1434564825515
 s    1 1.00
             0.1687144                   1
 p    3 1.00
             7.8682724   0.068999095584993
             1.8812885    0.31642397975315
             0.5442493    0.74430825237435
 p    1 1.00
             0.1687144                   1
 d    1 1.00
                   0.8                   1

2 0
 s    3 1.00
             18.731137    0.03349459952309
             2.8253937    0.23472694665786
             0.6401217    0.81375731841339
 s    1 1.00
             0.1612778                   1

3 0
 s    6 1.00
             3047.5249  0.0018347001629433
             457.36951    0.01403730124668
             103.94869   0.068842606114048
             29.210155    0.23218442062076
              9.286663    0.46794134155879
              3.163927    0.36231203217765
 s    3 1.00
             7.8682724   -0.11933240861517
             1.8812885   -0.16085421161283
             0.5442493     1.1434564825515
 s    1 1.00
             0.1687144                   1
 p    3 1.00
             7.8682724   0.068999095584993
             1.8812885    0.31642397975315
             0.5442493    0.74430825237435
 p    1 1.00
             0.1687144                   1
 d    1 1.00
                   0.8                   1

4 0
 s    3 1.00
             18.731137    0.03349459952309
             2.8253937    0.23472694665786
             0.6401217    0.81375731841339
 s    1 1.00
             0.1612778                   1

5 0
 s    6 1.00
             3047.5249  0.0018347001629433
             457.36951    0.01403730124668
             103.94869   0.068842606114048
             29.210155    0.23218442062076
              9.286663    0.46794134155879
              3.163927    0.36231203217765
 s    3 1.00
             7.8682724   -0.11933240861517
             1.8812885   -0.16085421161283
             0.5442493     1.1434564825515
 s    1 1.00
             0.1687144                   1
 p    3 1.00
             7.8682724   0.068999095584993
             1.8812885    0.31642397975315
             0.5442493    0.74430825237435
 p    1 1.00
             0.1687144                   1
 d    1 1.00
                   0.8                   1

6 0
 s    3 1.00
             18.731137    0.03349459952309
             2.8253937    0.23472694665786
             0.6401217    0.81375731841339
 s    1 1.00
             0.1612778                   1

7 0
 s    6 1.00
             3047.5249  0.0018347001629433
             457.36951    0.01403730124668
             103.94869   0.068842606114048
             29.210155    0.23218442062076
              9.286663    0.46794134155879
              3.163927    0.36231203217765
 s    3 1.00
             7.8682724   -0.11933240861517
             1.8812885   -0.16085421161283
             0.5442493     1.1434564825515
 s    1 1.00
             0.1687144                   1
 p    3 1.00
             7.8682724   0.068999095584993
             1.8812885    0.31642397975315
             0.5442493    0.74430825237435
 p    1 1.00
             0.1687144                   1
 d    1 1.00
                   0.8                   1

8 0
 s    3 1.00
             18.731137    0.03349459952309
             2.8253937    0.23472694665786
             0.6401217    0.81375731841339
 s    1 1.00
             0.1612778                   1

9 0
 s    3 1.00
             18.731137    0.03349459952309
             2.8253937    0.23472694665786
             0.6401217    0.81375731841339
 s    1 1.00
             0.1612778                   1

10 0
 s    6 1.00
             3047.5249  0.0018347001629433
             457.36951    0.01403730124668
             103.94869   0.068842606114048
             29.210155    0.23218442062076
              9.286663    0.46794134155879
              3.163927    0.36231203217765
 s    3 1.00
             7.8682724   -0.11933240861517
             1.8812885   -0.16085421161283
             0.5442493     1.1434564825515
 s    1 1.00
             0.1687144                   1
 p    3 1.00
             7.8682724   0.068999095584993
             1.8812885    0.31642397975315
             0.5442493    0.74430825237435
 p    1 1.00
             0.1687144                   1
 d    1 1.00
                   0.8                   1

11 0
 s    3 1.00
             18.731137    0.03349459952309
             2.8253937    0.23472694665786
             0.6401217    0.81375731841339
 s    1 1.00
             0.1612778                   1

12 0
 s    6 1.00
             3047.5249  0.0018347001629433
             457.36951    0.01403730124668
             103.94869   0.068842606114048
             29.210155    0.23218442062076
              9.286663    0.46794134155879
              3.163927    0.36231203217765
 s    3 1.00
             7.8682724   -0.11933240861517
             1.8812885   -0.16085421161283
             0.5442493     1.1434564825515
 s    1 1.00
             0.1687144                   1
 p    3 1.00
             7.8682724   0.068999095584993
             1.8812885    0.31642397975315
             0.5442493    0.74430825237435
 p    1 1.00
             0.1687144                   1
 d    1 1.00
                   0.8                   1

13 0
 s    3 1.00
             18.731137    0.03349459952309
             2.8253937    0.23472694665786
             0.6401217    0.81375731841339
 s    1 1.00
             0.1612778                   1

14 0
 s    3 1.00
             18.731137    0.03349459952309
             2.8253937    0.23472694665786
             0.6401217    0.81375731841339
 s    1 1.00
             0.1612778                   1

15 0
 s    6 1.00
             3047.5249  0.0018347001629433
             457.36951    0.01403730124668
             103.94869   0.068842606114048
             29.210155    0.23218442062076
              9.286663    0.46794134155879
              3.163927    0.36231203217765
 s    3 1.00
             7.8682724   -0.11933240861517
             1.8812885   -0.16085421161283
             0.5442493     1.1434564825515
 s    1 1.00
             0.1687144                   1
 p    3 1.00
             7.8682724   0.068999095584993
             1.8812885    0.31642397975315
             0.5442493    0.74430825237435
 p    1 1.00
             0.1687144                   1
 d    1 1.00
                   0.8                   1

16 0
 s    6 1.00
             3047.5249  0.0018347001629433
             457.36951    0.01403730124668
             103.94869   0.068842606114048
             29.210155    0.23218442062076
              9.286663    0.46794134155879
              3.163927    0.36231203217765
 s    3 1.00
             7.8682724   -0.11933240861517
             1.8812885   -0.16085421161283
             0.5442493     1.1434564825515
 s    1 1.00
             0.1687144                   1
 p    3 1.00
             7.8682724   0.068999095584993
             1.8812885    0.31642397975315
             0.5442493    0.74430825237435
 p    1 1.00
             0.1687144                   1
 d    1 1.00
                   0.8                   1

17 0
 s    6 1.00
             3047.5249  0.0018347001629433
             457.36951    0.01403730124668
             103.94869   0.068842606114048
             29.210155    0.23218442062076
              9.286663    0.46794134155879
              3.163927    0.36231203217765
 s    3 1.00
             7.8682724   -0.11933240861517
             1.8812885   -0.16085421161283
             0.5442493     1.1434564825515
 s    1 1.00
             0.1687144                   1
 p    3 1.00
             7.8682724   0.068999095584993
             1.8812885    0.31642397975315
             0.5442493    0.74430825237435
 p    1 1.00
             0.1687144                   1
 d    1 1.00
                   0.8                   1

18 0
 s    6 1.00
             3047.5249  0.0018347001629433
             457.36951    0.01403730124668
             103.94869   0.068842606114048
             29.210155    0.23218442062076
              9.286663    0.46794134155879
              3.163927    0.36231203217765
 s    3 1.00
             7.8682724   -0.11933240861517
             1.8812885   -0.16085421161283
             0.5442493     1.1434564825515
 s    1 1.00
             0.1687144                   1
 p    3 1.00
             7.8682724   0.068999095584993
             1.8812885    0.31642397975315
             0.5442493    0.74430825237435
 p    1 1.00
             0.1687144                   1
 d    1 1.00
                   0.8                   1

19 0
 s    6 1.00
             3047.5249  0.0018347001629433
             457.36951    0.01403730124668
             103.94869   0.068842606114048
             29.210155    0.23218442062076
              9.286663    0.46794134155879
              3.163927    0.36231203217765
 s    3 1.00
             7.8682724   -0.11933240861517
             1.8812885   -0.16085421161283
             0.5442493     1.1434564825515
 s    1 1.00
             0.1687144                   1
 p    3 1.00
             7.8682724   0.068999095584993
             1.8812885    0.31642397975315
             0.5442493    0.74430825237435
 p    1 1.00
             0.1687144                   1
 d    1 1.00
                   0.8                   1

20 0
 s    6 1.00
             3047.5249  0.0018347001629433
             457.36951    0.01403730124668
             103.94869   0.068842606114048
             29.210155    0.23218442062076
              9.286663    0.46794134155879
              3.163927    0.36231203217765
 s    3 1.00
             7.8682724   -0.11933240861517
             1.8812885   -0.16085421161283
             0.5442493     1.1434564825515
 s    1 1.00
             0.1687144                   1
 p    3 1.00
             7.8682724   0.068999095584993
             1.8812885    0.31642397975315
             0.5442493    0.74430825237435
 p    1 1.00
             0.1687144                   1
 d    1 1.00
                   0.8                   1

21 0
 s    6 1.00
             3047.5249  0.0018347001629433
             457.36951    0.01403730124668
             103.94869   0.068842606114048
             29.210155    0.23218442062076
              9.286663    0.46794134155879
              3.163927    0.36231203217765
 s    3 1.00
             7.8682724   -0.11933240861517
             1.8812885   -0.16085421161283
             0.5442493     1.1434564825515
 s    1 1.00
             0.1687144                   1
 p    3 1.00
             7.8682724   0.068999095584993
             1.8812885    0.31642397975315
             0.5442493    0.74430825237435
 p    1 1.00
             0.1687144                   1
 d    1 1.00
                   0.8                   1

22 0
 s    3 1.00
             18.731137    0.03349459952309
             2.8253937    0.23472694665786
             0.6401217    0.81375731841339
 s    1 1.00
             0.1612778                   1

23 0
 s    3 1.00
             18.731137    0.03349459952309
             2.8253937    0.23472694665786
             0.6401217    0.81375731841339
 s    1 1.00
             0.1612778                   1

24 0
 s    3 1.00
             18.731137    0.03349459952309
             2.8253937    0.23472694665786
             0.6401217    0.81375731841339
 s    1 1.00
             0.1612778                   1

25 0
 s    3 1.00
             18.731137    0.03349459952309
             2.8253937    0.23472694665786
             0.6401217    0.81375731841339
 s    1 1.00
             0.1612778                   1

26 0
 s    3 1.00
             18.731137    0.03349459952309
             2.8253937    0.23472694665786
             0.6401217    0.81375731841339
 s    1 1.00
             0.1612778                   1

27 0
 s    3 1.00
             18.731137    0.03349459952309
             2.8253937    0.23472694665786
             0.6401217    0.81375731841339
 s    1 1.00
             0.1612778                   1

28 0
 s    3 1.00
             18.731137    0.03349459952309
             2.8253937    0.23472694665786
             0.6401217    0.81375731841339
 s    1 1.00
             0.1612778                   1

29 0
 s    3 1.00
             18.731137    0.03349459952309
             2.8253937    0.23472694665786
             0.6401217    0.81375731841339
 s    1 1.00
             0.1612778                   1

30 0
 s    3 1.00
             18.731137    0.03349459952309
             2.8253937    0.23472694665786
             0.6401217    0.81375731841339
 s    1 1.00
             0.1612778                   1

31 0
 s    3 1.00
             18.731137    0.03349459952309
             2.8253937    0.23472694665786
             0.6401217    0.81375731841339
 s    1 1.00
             0.1612778                   1

32 0
 s    3 1.00
             18.731137    0.03349459952309
             2.8253937    0.23472694665786
             0.6401217    0.81375731841339
 s    1 1.00
             0.1612778                   1

33 0
 s    6 1.00
             3047.5249  0.0018347001629433
             457.36951    0.01403730124668
             103.94869   0.068842606114048
             29.210155    0.23218442062076
              9.286663    0.46794134155879
              3.163927    0.36231203217765
 s    3 1.00
             7.8682724   -0.11933240861517
             1.8812885   -0.16085421161283
             0.5442493     1.1434564825515
 s    1 1.00
             0.1687144                   1
 p    3 1.00
             7.8682724   0.068999095584993
             1.8812885    0.31642397975315
             0.5442493    0.74430825237435
 p    1 1.00
             0.1687144                   1
 d    1 1.00
                   0.8                   1

34 0
 s    6 1.00
             3047.5249  0.0018347001629433
             457.36951    0.01403730124668
             103.94869   0.068842606114048
             29.210155    0.23218442062076
              9.286663    0.46794134155879
              3.163927    0.36231203217765
 s    3 1.00
             7.8682724   -0.11933240861517
             1.8812885   -0.16085421161283
             0.5442493     1.1434564825515
 s    1 1.00
             0.1687144                   1
 p    3 1.00
             7.8682724   0.068999095584993
             1.8812885    0.31642397975315
             0.5442493    0.74430825237435
 p    1 1.00
             0.1687144                   1
 d    1 1.00
                   0.8                   1

35 0
 s    3 1.00
             18.731137    0.03349459952309
             2.8253937    0.23472694665786
             0.6401217    0.81375731841339
 s    1 1.00
             0.1612778                   1

36 0
 s    6 1.00
             3047.5249  0.0018347001629433
             457.36951    0.01403730124668
             103.94869   0.068842606114048
             29.210155    0.23218442062076
              9.286663    0.46794134155879
              3.163927    0.36231203217765
 s    3 1.00
             7.8682724   -0.11933240861517
             1.8812885   -0.16085421161283
             0.5442493     1.1434564825515
 s    1 1.00
             0.1687144                   1
 p    3 1.00
             7.8682724   0.068999095584993
             1.8812885    0.31642397975315
             0.5442493    0.74430825237435
 p    1 1.00
             0.1687144                   1
 d    1 1.00
                   0.8                   1

37 0
 s    3 1.00
             18.731137    0.03349459952309
             2.8253937    0.23472694665786
             0.6401217    0.81375731841339
 s    1 1.00
             0.1612778                   1

38 0
 s    3 1.00
             18.731137    0.03349459952309
             2.8253937    0.23472694665786
             0.6401217    0.81375731841339
 s    1 1.00
             0.1612778                   1

39 0
 s    6 1.00
             3047.5249  0.0018347001629433
             457.36951    0.01403730124668
             103.94869   0.068842606114048
             29.210155    0.23218442062076
              9.286663    0.46794134155879
              3.163927    0.36231203217765
 s    3 1.00
             7.8682724   -0.11933240861517
             1.8812885   -0.16085421161283
             0.5442493     1.1434564825515
 s    1 1.00
             0.1687144                   1
 p    3 1.00
             7.8682724   0.068999095584993
             1.8812885    0.31642397975315
             0.5442493    0.74430825237435
 p    1 1.00
             0.1687144                   1
 d    1 1.00
                   0.8                   1

40 0
 s    6 1.00
             3047.5249  0.0018347001629433
             457.36951    0.01403730124668
             103.94869   0.068842606114048
             29.210155    0.23218442062076
              9.286663    0.46794134155879
              3.163927    0.36231203217765
 s    3 1.00
             7.8682724   -0.11933240861517
             1.8812885   -0.16085421161283
             0.5442493     1.1434564825515
 s    1 1.00
             0.1687144                   1
 p    3 1.00
             7.8682724   0.068999095584993
             1.8812885    0.31642397975315
             0.5442493    0.74430825237435
 p    1 1.00
             0.1687144                   1
 d    1 1.00
                   0.8                   1

41 0
 s    3 1.00
             18.731137    0.03349459952309
             2.8253937    0.23472694665786
             0.6401217    0.81375731841339
 s    1 1.00
             0.1612778                   1

42 0
 s    6 1.00
             5484.6717   0.001831099805527
             825.23495   0.013950098518422
             188.04696    0.06844509273075
               52.9645    0.23271427528445
              16.89757    0.47019295006289
             5.7996353    0.35852086192309
 s    3 1.00
             15.539616   -0.11077750382508
             3.5999336   -0.14802630511126
             1.0137618     1.1307670390447
 s    1 1.00
             0.2700058                   1
 p    3 1.00
             15.539616   0.070874299543311
             3.5999336    0.33975279781076
             1.0137618    0.72715859531445
 p    1 1.00
             0.2700058                   1
 d    1 1.00
                   0.8                   1

43 0
 s    3 1.00
             18.731137    0.03349459952309
             2.8253937    0.23472694665786
             0.6401217    0.81375731841339
 s    1 1.00
             0.1612778                   1

[5d]
[7f]
[9g]

[MO]
 Sym= A
 Ene=               0
 Spin= Alpha
 Occup=    1.00000
   1    -8.6153950142122e-06
   2    -6.9051722481589e-05
   3    -4.8776161671331e-05
   4    -2.5996201750902e-05
   5    -1.6345730912297e-05
   6    4.7900795181904e-05
   7    0.00030103001027216
   8    0.00030821858064639
   9    -0.0011608894233252
  10    2.5760190322942e-05
  11    4.3039855605055e-05
  12    1.1043919389503e-06
  13    9.3251080173565e-06
  14    -3.7279027683061e-06
  15    -6.2056022416923e-05
  16    -3.136586172351e-05
  17    2.3661317395419e-05
  18    0.00011617928289438
  19    -0.0024961667396511
  20    -1.0957919300931e-05
  21    -1.5962895590445e-05
  22    6.6444458498344e-05
  23    -0.00048748078540444
  24    -0.00027764062831382
  25    0.00075072700061805
  26    -6.9419265805559e-05
  27    1.0254028601208e-05
  28    2.6309509000824e-05
  29    5.5851706275943e-06
  30    -4.0677195546442e-07
  31    4.4093796671202e-06
  32    0.00014592543471888
  33    -6.8564991526342e-05
  34    -0.00042773123689532
  35    0.0061151738552189
  36    4.035643891288e-05
  37    3.3062082170911e-05
  38    -0.00011317121419546
  39    -0.0023088582937382
  40    -0.00031917214331277
  41    -0.001517059790098
  42    0.00017081837729129
  43    7.6009703396465e-05
  44    -5.0191280223304e-05
  45    4.9292175702726e-05
  46    1.5066590023177e-05
  47    5.5908437278864e-05
  48    0.00035276054277302
  49    5.9871701401806e-06
  50    -5.9263953047612e-05
  51    -0.0045359212787248
  52    0.00015265528925086
  53    -3.0454873288926e-05
  54    0.00036292873487574
  55    -0.0020978263656891
  56    0.00025690931056739
  57    -0.0041597643296394
  58    -0.0001130559709231
  59    -0.0002164231221868
  60    -3.8940478309285e-05
  61    6.6763421590587e-05
  62    8.6775209771433e-05
  63    -0.00029461232489824
  64    -0.00015186042112746
  65    -1.8337154378747e-07
  66    2.2995328136524e-06
  67    -1.7596333316145e-07
  68    -1.8878927319041e-06
  69    1.0307124583533e-06
  70    1.0847549781779e-06
  71    -1.1442055160136e-06
  72    4.9687741196712e-07
  73    2.1520585970605e-06
  74    7.976830412707e-07
  75    -3.4088882021676e-06
  76    2.9334846066373e-07
  77    5.0759597769349e-08
  78    1.9608578293385e-07
  79    1.7265336007887e-07
  80    7.8406735490682e-08
  81    5.5663453909475e-08
  82    6.1687616330621e-07
  83    3.6555024251311e-07
  84    2.5724145596258e-06
  85    -1.3160127546628e-05
  86    4.4912571905578e-07
  87    1.7396787330465e-07
  88    9.7687272021693e-07
  89    7.0772897760968e-06
  90    -1.1040356390312e-05
  91    3.2652838901575e-07
  92    -1.6528112538153e-07
  93    -6.2062510179836e-07
  94    1.152047781825e-06
  95    -4.0848654080233e-07
  96    -2.7758708297614e-09
  97    1.7058897955357e-06
  98    9.4080736317365e-07
  99    -4.7307726302386e-07
 100    -1.9569792715861e-06
 101    -8.9059173254307e-07
 102    -4.0602479837072e-06
 103    0.00011115500290038
 104    -1.4226157400683e-06
 105    2.1620594723441e-07
 106    -2.8138089371013e-06
 107    -4.3716127019813e-05
 108    4.3302450139065e-05
 109    -8.1568117590606e-06
 110    9.2528438697432e-07
 111    1.3179640685661e-06
 112    -5.8360717185664e-07
 113    -2.632191128519e-07
 114    -2.0444073634328e-06
 115    3.7733697784114e-07
 116    4.2964582606217e-06
 117    -3.8634598924167e-06
 118    -7.0971527017711e-07
 119    2.7751460944668e-06
 120    -1.8663987429352e-06
 121    5.3902837737465e-06
 122    -1.7807805482556e-05
 123    1.773363421799e-05
 124    6.9262487014832e-07
 125    -5.159194897526e-07
 126    -1.0070069612872e-06
 127    -3.9353911758394e-07
 128    -1.7690790645047e-07
 129    2.4523568645118e-07
 130    1.9323416628758e-06
 131    5.6943799198127e-05
 132    6.7772450077734e-06
 133    9.6102411618867e-07
 134    -3.7706263468442e-06
 135    -0.00014385939887356
 136    1.835959752321e-05
 137    -4.2540025391706e-05
 138    1.6353330493161e-06
 139    1.0423583096829e-06
 140    3.2632509129244e-06
 141    -4.2070105468018e-07
 142    2.1493060210124e-06
 143    1.5738061602069e-07
 144    -1.0449627116583e-06
 145    -5.0570600799053e-05
 146    -3.7855963698687e-07
 147    -1.0792802697437e-06
 148    5.7655391372904e-06
 149    -1.5476615742033e-05
 150    3.9850367621487e-05
 151    -1.4624602961763e-05
 152    -1.4184933584798e-06
 153    4.0142696318623e-07
 154    -2.3844724009957e-06
 155    -6.1167425363935e-08
 156    -1.0900267941286e-06
 157    7.322734155131e-07
 158    5.9797925952803e-06
 159    -3.2671546781116e-05
 160    7.3135979204086e-07
 161    7.1235809030213e-07
 162    -9.1897798046325e-07
 163    -1.2284928410354e-05
 164    1.2460836304723e-05
 165    1.6425337948466e-06
 166    1.1226187474201e-06
 167    -1.8381107622532e-07
 168    2.686899797435e-07
 169    4.4051439322543e-07
 170    9.0642799703297e-07
 171    8.7066960875027e-08
 172    4.2440165528197e-07
 173    3.2974341391128e-06
 174    -2.4386311005799e-07
 175    -2.2865436418448e-07
 176    1.7738098030542e-06
 177    1.3443211701177e-05
 178    4.6291549456356e-06
 179    5.1965155990395e-06
 180    -3.0391448842256e-07
 181    1.598642331387e-06
 182    -1.3064264462423e-07
 183    7.7699712569387e-07
 184    1.2423829020744e-06
 185    -8.7000249956774e-07
 186    -7.3851174121212e-06
 187    3.3011384419347e-05
 188    -1.4467577540065e-06
 189    -7.0901705067832e-08
 190    -6.2971151480339e-08
 191    8.9588530701042e-07
 192    -1.0293421515555e-05
 193    -1.7183159643788e-05
 194    8.4906237606631e-07
 195    8.8520765531787e-07
 196    1.6596345539947e-06
 197    -6.0155478410415e-07
 198    4.1216566424458e-07
 199    -2.3034969965572e-06
 200    9.5150490240601e-07
 201    -3.7517774442376e-07
 202    2.5656793259038e-06
 203    -1.7663401560727e-06
 204    -1.0298871330042e-05
 205     3.58070054752e-06
 206    1.0457966763642e-06
 207    1.0856512322809e-06
 208    1.0733499714901e-05
 209    2.6875149209772e-06
 210    -9.1521679618968e-07
 211    1.9644910020514e-06
 212    4.6590721607161e-06
 213    6.239731661458e-07
 214    -4.1995215519699e-06
 215    -3.2862704033133e-06
 216    1.9647379757201e-05
 217    9.8924890022948e-07
 218    2.6101256978774e-07
 219    8.8792792984149e-07
 220    -2.2683582214303e-06
 221    -4.2997331499519e-06
 222    -2.7724367861754e-05
 223    0.00029297139995398
 224    6.5497182540339e-06
 225    1.3723506522257e-06
 226    8.8943285956635e-07
 227    5.7138776148891e-05
 228    6.4367366797275e-05
 229    -0.00032147561134698
 230    6.4188322536438e-06
 231    -1.052336769859e-05
 232    -8.0537266503983e-06
 233    3.6470666011343e-06
 234    3.5142237835915e-06
 235    8.1368873526782e-06
 236    4.5177935961887e-05
 237    -0.00083113314253251
 238    -5.8454532312817e-06
 239    -5.8553489272786e-06
 240    2.2041610329384e-05
 241    0.00026530330472973
 242    5.1339386973969e-05
 243    9.3675663647767e-05
 244    -2.1451833322787e-05
 245    4.7970367088186e-06
 246     8.99126439025e-06
 247    -1.6281094800954e-06
 248    -2.180774613216e-06
 249    -1.2300382195219e-05
 250    -1.9978508078565e-05
 251    -9.9918895550697e-06
 252    -6.3201945331227e-05
 253     0.001226209945316
 254    -1.2413805850954e-05
 255    3.8232255740917e-06
 256    -3.7942222129704e-05
 257    0.00053798335507225
 258    0.00012642159892703
 259    9.7311022861994e-05
 260    2.1007341510016e-05
 261    -6.58878301916e-06
 262    -1.0807736989173e-05
 263    6.1806321127199e-06
 264    5.7254588546652e-06
 265    -1.1757565752154e-05
 266    -2.5683197458979e-06
 267    2.9380792313249e-05
 268    8.247042172188e-05
 269    5.4326570384813e-05
 270    0.00013765948798583
 271    -0.003340743405903
 272    0.00017355754613932
 273    3.3449185488081e-05
 274    6.5901837602588e-05
 275    -0.0014236063730991
 276    -0.0011572434653678
 277    0.0039219891071018
 278    -0.00037369713216611
 279    3.5642690053622e-05
 280    0.00010640042191243