[Molden Format]
made by pyscf v[2.0.1]
[Atoms] (AU)
C   1   6     0.69100024066471     0.64692934207205    -3.48223131169301
H   2   1     2.68052439830868     1.13355088658700    -3.25784032593313
C   3   6    -0.36286361513219     0.85440132524594    -5.97030179418974
H   4   1    -2.35448549047279     0.36322488579172    -6.17995817793143
C   5   6     0.93697958957450     1.61209284601821    -8.05828437677121
H   6   1     0.85962833397368     3.59050820045091    -8.62470494839578
C   7   6     2.42635389771936    -0.06497183323565    -9.58324401854610
H   8   1     2.48676726707897    -2.04132781761705    -8.99156043119802
H   9   1     1.55630230933075    -1.92953025305990    12.99630010416247
C   10   6     0.75233899775814    -2.21270439606481    11.10705728102219
H   11   1    -0.43433408177274    -3.90944857546550    11.22216085340412
C   12   6     2.86362581178706    -2.63237380607947     9.17926416456045
H   13   1     4.39038949912609    -1.24955421540245     9.49899813497433
H   14   1     3.74629220191363    -4.48798724300892     9.47414880959024
C   15   6     2.02478325613682    -2.42177285709634     6.44560829588644
C   16   6     3.88048732735477    -3.58795445234514     4.61402886975252
C   17   6    -0.18412382258602    -1.30464291234259     5.76021113872346
C   18   6    -2.10044360464350    -0.26837831858460     7.71610340967100
C   19   6    -3.08956938670431     2.35282328359417     6.88693925039594
C   20   6    -4.37372924086464    -2.09766595989678     7.93610724222001
C   21   6    -0.83850430601230     0.06372213486173    10.33002307638377
H   22   1     0.38411922151109     1.74281358582432    10.27380136542181
H   23   1    -2.30980003007874     0.45460143924521    11.73986301809809
H   24   1     4.58527064644668    -5.38706904487420     5.36778158031719
H   25   1     5.54944938085014    -2.37631462192748     4.35398898413318
H   26   1     3.06633019150423    -3.94118377050688     2.75255466040884
H   27   1    -4.17727778763735     2.26573369139522     5.12914900961283
H   28   1    -1.52662344944051     3.68001877445626     6.59540397144508
H   29   1    -4.32916174397830     3.13643051467482     8.35225460090378
H   30   1    -5.32329548508442    -2.36691813602939     6.11583672749896
H   31   1    -5.77989366602257    -1.33896741843465     9.25748940450990
H   32   1    -3.79310905208926    -3.96389819310853     8.61386170102686
C   33   6    -1.01100794811226    -1.06331657314144     3.11929490449947
C   34   6     0.37686231036534    -0.33275864505552     1.09165013605873
H   35   1    -3.01671213906703    -1.40297922279997     2.77827895090944
C   36   6    -0.64382707979370    -0.11591880174385    -1.42063131251064
H   37   1     2.35569259782137     0.17174499283897     1.33641070251401
H   38   1    -2.63317482980319    -0.60229203511219    -1.66119700387645
C   39   6     3.74832505967432     0.60333842975764   -11.67668310140841
C   40   6     5.21001738076888    -1.24955999097241   -13.10400422335708
H   41   1     3.76814643119893     2.53960520723023   -12.36823673003836
O   42   8     6.43815552067501    -0.78092818090474   -14.99949494178040
H   43   1     5.13629360998863    -3.20740752771493   -12.32839043702936
[GTO]
1 0
 s    6 1.00
             3047.5249  0.0018347001629433
             457.36951    0.01403730124668
             103.94869   0.068842606114048
             29.210155    0.23218442062076
              9.286663    0.46794134155879
              3.163927    0.36231203217765
 s    3 1.00
             7.8682724   -0.11933240861517
             1.8812885   -0.16085421161283
             0.5442493     1.1434564825515
 s    1 1.00
             0.1687144                   1
 p    3 1.00
             7.8682724   0.068999095584993
             1.8812885    0.31642397975315
             0.5442493    0.74430825237435
 p    1 1.00
             0.1687144                   1
 d    1 1.00
                   0.8                   1

2 0
 s    3 1.00
             18.731137    0.03349459952309
             2.8253937    0.23472694665786
             0.6401217    0.81375731841339
 s    1 1.00
             0.1612778                   1

3 0
 s    6 1.00
             3047.5249  0.0018347001629433
             457.36951    0.01403730124668
             103.94869   0.068842606114048
             29.210155    0.23218442062076
              9.286663    0.46794134155879
              3.163927    0.36231203217765
 s    3 1.00
             7.8682724   -0.11933240861517
             1.8812885   -0.16085421161283
             0.5442493     1.1434564825515
 s    1 1.00
             0.1687144                   1
 p    3 1.00
             7.8682724   0.068999095584993
             1.8812885    0.31642397975315
             0.5442493    0.74430825237435
 p    1 1.00
             0.1687144                   1
 d    1 1.00
                   0.8                   1

4 0
 s    3 1.00
             18.731137    0.03349459952309
             2.8253937    0.23472694665786
             0.6401217    0.81375731841339
 s    1 1.00
             0.1612778                   1

5 0
 s    6 1.00
             3047.5249  0.0018347001629433
             457.36951    0.01403730124668
             103.94869   0.068842606114048
             29.210155    0.23218442062076
              9.286663    0.46794134155879
              3.163927    0.36231203217765
 s    3 1.00
             7.8682724   -0.11933240861517
             1.8812885   -0.16085421161283
             0.5442493     1.1434564825515
 s    1 1.00
             0.1687144                   1
 p    3 1.00
             7.8682724   0.068999095584993
             1.8812885    0.31642397975315
             0.5442493    0.74430825237435
 p    1 1.00
             0.1687144                   1
 d    1 1.00
                   0.8                   1

6 0
 s    3 1.00
             18.731137    0.03349459952309
             2.8253937    0.23472694665786
             0.6401217    0.81375731841339
 s    1 1.00
             0.1612778                   1

7 0
 s    6 1.00
             3047.5249  0.0018347001629433
             457.36951    0.01403730124668
             103.94869   0.068842606114048
             29.210155    0.23218442062076
              9.286663    0.46794134155879
              3.163927    0.36231203217765
 s    3 1.00
             7.8682724   -0.11933240861517
             1.8812885   -0.16085421161283
             0.5442493     1.1434564825515
 s    1 1.00
             0.1687144                   1
 p    3 1.00
             7.8682724   0.068999095584993
             1.8812885    0.31642397975315
             0.5442493    0.74430825237435
 p    1 1.00
             0.1687144                   1
 d    1 1.00
                   0.8                   1

8 0
 s    3 1.00
             18.731137    0.03349459952309
             2.8253937    0.23472694665786
             0.6401217    0.81375731841339
 s    1 1.00
             0.1612778                   1

9 0
 s    3 1.00
             18.731137    0.03349459952309
             2.8253937    0.23472694665786
             0.6401217    0.81375731841339
 s    1 1.00
             0.1612778                   1

10 0
 s    6 1.00
             3047.5249  0.0018347001629433
             457.36951    0.01403730124668
             103.94869   0.068842606114048
             29.210155    0.23218442062076
              9.286663    0.46794134155879
              3.163927    0.36231203217765
 s    3 1.00
             7.8682724   -0.11933240861517
             1.8812885   -0.16085421161283
             0.5442493     1.1434564825515
 s    1 1.00
             0.1687144                   1
 p    3 1.00
             7.8682724   0.068999095584993
             1.8812885    0.31642397975315
             0.5442493    0.74430825237435
 p    1 1.00
             0.1687144                   1
 d    1 1.00
                   0.8                   1

11 0
 s    3 1.00
             18.731137    0.03349459952309
             2.8253937    0.23472694665786
             0.6401217    0.81375731841339
 s    1 1.00
             0.1612778                   1

12 0
 s    6 1.00
             3047.5249  0.0018347001629433
             457.36951    0.01403730124668
             103.94869   0.068842606114048
             29.210155    0.23218442062076
              9.286663    0.46794134155879
              3.163927    0.36231203217765
 s    3 1.00
             7.8682724   -0.11933240861517
             1.8812885   -0.16085421161283
             0.5442493     1.1434564825515
 s    1 1.00
             0.1687144                   1
 p    3 1.00
             7.8682724   0.068999095584993
             1.8812885    0.31642397975315
             0.5442493    0.74430825237435
 p    1 1.00
             0.1687144                   1
 d    1 1.00
                   0.8                   1

13 0
 s    3 1.00
             18.731137    0.03349459952309
             2.8253937    0.23472694665786
             0.6401217    0.81375731841339
 s    1 1.00
             0.1612778                   1

14 0
 s    3 1.00
             18.731137    0.03349459952309
             2.8253937    0.23472694665786
             0.6401217    0.81375731841339
 s    1 1.00
             0.1612778                   1

15 0
 s    6 1.00
             3047.5249  0.0018347001629433
             457.36951    0.01403730124668
             103.94869   0.068842606114048
             29.210155    0.23218442062076
              9.286663    0.46794134155879
              3.163927    0.36231203217765
 s    3 1.00
             7.8682724   -0.11933240861517
             1.8812885   -0.16085421161283
             0.5442493     1.1434564825515
 s    1 1.00
             0.1687144                   1
 p    3 1.00
             7.8682724   0.068999095584993
             1.8812885    0.31642397975315
             0.5442493    0.74430825237435
 p    1 1.00
             0.1687144                   1
 d    1 1.00
                   0.8                   1

16 0
 s    6 1.00
             3047.5249  0.0018347001629433
             457.36951    0.01403730124668
             103.94869   0.068842606114048
             29.210155    0.23218442062076
              9.286663    0.46794134155879
              3.163927    0.36231203217765
 s    3 1.00
             7.8682724   -0.11933240861517
             1.8812885   -0.16085421161283
             0.5442493     1.1434564825515
 s    1 1.00
             0.1687144                   1
 p    3 1.00
             7.8682724   0.068999095584993
             1.8812885    0.31642397975315
             0.5442493    0.74430825237435
 p    1 1.00
             0.1687144                   1
 d    1 1.00
                   0.8                   1

17 0
 s    6 1.00
             3047.5249  0.0018347001629433
             457.36951    0.01403730124668
             103.94869   0.068842606114048
             29.210155    0.23218442062076
              9.286663    0.46794134155879
              3.163927    0.36231203217765
 s    3 1.00
             7.8682724   -0.11933240861517
             1.8812885   -0.16085421161283
             0.5442493     1.1434564825515
 s    1 1.00
             0.1687144                   1
 p    3 1.00
             7.8682724   0.068999095584993
             1.8812885    0.31642397975315
             0.5442493    0.74430825237435
 p    1 1.00
             0.1687144                   1
 d    1 1.00
                   0.8                   1

18 0
 s    6 1.00
             3047.5249  0.0018347001629433
             457.36951    0.01403730124668
             103.94869   0.068842606114048
             29.210155    0.23218442062076
              9.286663    0.46794134155879
              3.163927    0.36231203217765
 s    3 1.00
             7.8682724   -0.11933240861517
             1.8812885   -0.16085421161283
             0.5442493     1.1434564825515
 s    1 1.00
             0.1687144                   1
 p    3 1.00
             7.8682724   0.068999095584993
             1.8812885    0.31642397975315
             0.5442493    0.74430825237435
 p    1 1.00
             0.1687144                   1
 d    1 1.00
                   0.8                   1

19 0
 s    6 1.00
             3047.5249  0.0018347001629433
             457.36951    0.01403730124668
             103.94869   0.068842606114048
             29.210155    0.23218442062076
              9.286663    0.46794134155879
              3.163927    0.36231203217765
 s    3 1.00
             7.8682724   -0.11933240861517
             1.8812885   -0.16085421161283
             0.5442493     1.1434564825515
 s    1 1.00
             0.1687144                   1
 p    3 1.00
             7.8682724   0.068999095584993
             1.8812885    0.31642397975315
             0.5442493    0.74430825237435
 p    1 1.00
             0.1687144                   1
 d    1 1.00
                   0.8                   1

20 0
 s    6 1.00
             3047.5249  0.0018347001629433
             457.36951    0.01403730124668
             103.94869   0.068842606114048
             29.210155    0.23218442062076
              9.286663    0.46794134155879
              3.163927    0.36231203217765
 s    3 1.00
             7.8682724   -0.11933240861517
             1.8812885   -0.16085421161283
             0.5442493     1.1434564825515
 s    1 1.00
             0.1687144                   1
 p    3 1.00
             7.8682724   0.068999095584993
             1.8812885    0.31642397975315
             0.5442493    0.74430825237435
 p    1 1.00
             0.1687144                   1
 d    1 1.00
                   0.8                   1

21 0
 s    6 1.00
             3047.5249  0.0018347001629433
             457.36951    0.01403730124668
             103.94869   0.068842606114048
             29.210155    0.23218442062076
              9.286663    0.46794134155879
              3.163927    0.36231203217765
 s    3 1.00
             7.8682724   -0.11933240861517
             1.8812885   -0.16085421161283
             0.5442493     1.1434564825515
 s    1 1.00
             0.1687144                   1
 p    3 1.00
             7.8682724   0.068999095584993
             1.8812885    0.31642397975315
             0.5442493    0.74430825237435
 p    1 1.00
             0.1687144                   1
 d    1 1.00
                   0.8                   1

22 0
 s    3 1.00
             18.731137    0.03349459952309
             2.8253937    0.23472694665786
             0.6401217    0.81375731841339
 s    1 1.00
             0.1612778                   1

23 0
 s    3 1.00
             18.731137    0.03349459952309
             2.8253937    0.23472694665786
             0.6401217    0.81375731841339
 s    1 1.00
             0.1612778                   1

24 0
 s    3 1.00
             18.731137    0.03349459952309
             2.8253937    0.23472694665786
             0.6401217    0.81375731841339
 s    1 1.00
             0.1612778                   1

25 0
 s    3 1.00
             18.731137    0.03349459952309
             2.8253937    0.23472694665786
             0.6401217    0.81375731841339
 s    1 1.00
             0.1612778                   1

26 0
 s    3 1.00
             18.731137    0.03349459952309
             2.8253937    0.23472694665786
             0.6401217    0.81375731841339
 s    1 1.00
             0.1612778                   1

27 0
 s    3 1.00
             18.731137    0.03349459952309
             2.8253937    0.23472694665786
             0.6401217    0.81375731841339
 s    1 1.00
             0.1612778                   1

28 0
 s    3 1.00
             18.731137    0.03349459952309
             2.8253937    0.23472694665786
             0.6401217    0.81375731841339
 s    1 1.00
             0.1612778                   1

29 0
 s    3 1.00
             18.731137    0.03349459952309
             2.8253937    0.23472694665786
             0.6401217    0.81375731841339
 s    1 1.00
             0.1612778                   1

30 0
 s    3 1.00
             18.731137    0.03349459952309
             2.8253937    0.23472694665786
             0.6401217    0.81375731841339
 s    1 1.00
             0.1612778                   1

31 0
 s    3 1.00
             18.731137    0.03349459952309
             2.8253937    0.23472694665786
             0.6401217    0.81375731841339
 s    1 1.00
             0.1612778                   1

32 0
 s    3 1.00
             18.731137    0.03349459952309
             2.8253937    0.23472694665786
             0.6401217    0.81375731841339
 s    1 1.00
             0.1612778                   1

33 0
 s    6 1.00
             3047.5249  0.0018347001629433
             457.36951    0.01403730124668
             103.94869   0.068842606114048
             29.210155    0.23218442062076
              9.286663    0.46794134155879
              3.163927    0.36231203217765
 s    3 1.00
             7.8682724   -0.11933240861517
             1.8812885   -0.16085421161283
             0.5442493     1.1434564825515
 s    1 1.00
             0.1687144                   1
 p    3 1.00
             7.8682724   0.068999095584993
             1.8812885    0.31642397975315
             0.5442493    0.74430825237435
 p    1 1.00
             0.1687144                   1
 d    1 1.00
                   0.8                   1

34 0
 s    6 1.00
             3047.5249  0.0018347001629433
             457.36951    0.01403730124668
             103.94869   0.068842606114048
             29.210155    0.23218442062076
              9.286663    0.46794134155879
              3.163927    0.36231203217765
 s    3 1.00
             7.8682724   -0.11933240861517
             1.8812885   -0.16085421161283
             0.5442493     1.1434564825515
 s    1 1.00
             0.1687144                   1
 p    3 1.00
             7.8682724   0.068999095584993
             1.8812885    0.31642397975315
             0.5442493    0.74430825237435
 p    1 1.00
             0.1687144                   1
 d    1 1.00
                   0.8                   1

35 0
 s    3 1.00
             18.731137    0.03349459952309
             2.8253937    0.23472694665786
             0.6401217    0.81375731841339
 s    1 1.00
             0.1612778                   1

36 0
 s    6 1.00
             3047.5249  0.0018347001629433
             457.36951    0.01403730124668
             103.94869   0.068842606114048
             29.210155    0.23218442062076
              9.286663    0.46794134155879
              3.163927    0.36231203217765
 s    3 1.00
             7.8682724   -0.11933240861517
             1.8812885   -0.16085421161283
             0.5442493     1.1434564825515
 s    1 1.00
             0.1687144                   1
 p    3 1.00
             7.8682724   0.068999095584993
             1.8812885    0.31642397975315
             0.5442493    0.74430825237435
 p    1 1.00
             0.1687144                   1
 d    1 1.00
                   0.8                   1

37 0
 s    3 1.00
             18.731137    0.03349459952309
             2.8253937    0.23472694665786
             0.6401217    0.81375731841339
 s    1 1.00
             0.1612778                   1

38 0
 s    3 1.00
             18.731137    0.03349459952309
             2.8253937    0.23472694665786
             0.6401217    0.81375731841339
 s    1 1.00
             0.1612778                   1

39 0
 s    6 1.00
             3047.5249  0.0018347001629433
             457.36951    0.01403730124668
             103.94869   0.068842606114048
             29.210155    0.23218442062076
              9.286663    0.46794134155879
              3.163927    0.36231203217765
 s    3 1.00
             7.8682724   -0.11933240861517
             1.8812885   -0.16085421161283
             0.5442493     1.1434564825515
 s    1 1.00
             0.1687144                   1
 p    3 1.00
             7.8682724   0.068999095584993
             1.8812885    0.31642397975315
             0.5442493    0.74430825237435
 p    1 1.00
             0.1687144                   1
 d    1 1.00
                   0.8                   1

40 0
 s    6 1.00
             3047.5249  0.0018347001629433
             457.36951    0.01403730124668
             103.94869   0.068842606114048
             29.210155    0.23218442062076
              9.286663    0.46794134155879
              3.163927    0.36231203217765
 s    3 1.00
             7.8682724   -0.11933240861517
             1.8812885   -0.16085421161283
             0.5442493     1.1434564825515
 s    1 1.00
             0.1687144                   1
 p    3 1.00
             7.8682724   0.068999095584993
             1.8812885    0.31642397975315
             0.5442493    0.74430825237435
 p    1 1.00
             0.1687144                   1
 d    1 1.00
                   0.8                   1

41 0
 s    3 1.00
             18.731137    0.03349459952309
             2.8253937    0.23472694665786
             0.6401217    0.81375731841339
 s    1 1.00
             0.1612778                   1

42 0
 s    6 1.00
             5484.6717   0.001831099805527
             825.23495   0.013950098518422
             188.04696    0.06844509273075
               52.9645    0.23271427528445
              16.89757    0.47019295006289
             5.7996353    0.35852086192309
 s    3 1.00
             15.539616   -0.11077750382508
             3.5999336   -0.14802630511126
             1.0137618     1.1307670390447
 s    1 1.00
             0.2700058                   1
 p    3 1.00
             15.539616   0.070874299543311
             3.5999336    0.33975279781076
             1.0137618    0.72715859531445
 p    1 1.00
             0.2700058                   1
 d    1 1.00
                   0.8                   1

43 0
 s    3 1.00
             18.731137    0.03349459952309
             2.8253937    0.23472694665786
             0.6401217    0.81375731841339
 s    1 1.00
             0.1612778                   1

[5d]
[7f]
[9g]

[MO]
 Sym= A
 Ene=               0
 Spin= Alpha
 Occup=    1.00000
   1    1.4483926532746e-06
   2    1.4816940426005e-05
   3    6.3108097732631e-05
   4    4.0259226446278e-06
   5    8.8373952530433e-06
   6    -1.299461617329e-05
   7    -5.1877123377561e-05
   8    -0.00013980532093733
   9    0.00038381113515031
  10    4.0894947675425e-07
  11    -1.0829156137435e-05
  12    -8.0034156970939e-07
  13    -1.4718795322807e-05
  14    8.3901578969783e-06
  15    1.4723185415957e-05
  16    -1.1124058449896e-05
  17    -7.237266618749e-06
  18    -0.00016892617270597
  19    -0.00047550975025933
  20    -6.0358318628536e-05
  21    5.7871107909772e-06
  22    7.4133554820348e-05
  23    -0.00022147505584313
  24    0.00012302826148084
  25    0.00059383333019367
  26    -2.3023376924905e-05
  27    2.5917633843082e-05
  28    -1.5441348056145e-05
  29    -4.3863888093812e-05
  30    -3.9517077496713e-06
  31    1.1448016741447e-05
  32    -4.1721804465719e-05
  33    -5.5286937379225e-05
  34    -0.00037134130127259
  35    0.0046481326347741
  36    0.00010348136835448
  37    -1.8692271903325e-05
  38    -0.00015170058863839
  39    0.00075593058876697
  40    -0.0020056155659378
  41    -0.00040111644754544
  42    1.2520162836035e-05
  43    -0.00011930071381343
  44    5.7609482229459e-05
  45    -1.67565521639e-05
  46    -7.4269429854443e-05
  47    1.9857613103885e-05
  48    0.00029680317709187
  49    -4.9099924738548e-06
  50    -0.00012657018741434
  51    -0.0037518589255029
  52    -0.00022123806426632
  53    0.00023436962004746
  54    0.00023056271471335
  55    0.0021721953520453
  56    -0.0026769551250897
  57    -0.0021447199627954
  58    4.444767177851e-05
  59    -2.9817888105221e-05
  60    -0.00020055786049659
  61    -4.1080785943759e-05
  62    0.00012483185372958
  63    -0.00030803529646115
  64    -8.6740348511035e-05
  65    2.1483935794962e-07
  66    3.194847295997e-07
  67    4.2823117639943e-08
  68    6.0616793521738e-07
  69    -2.9252693239272e-06
  70    -2.3261861299519e-07
  71    3.4873926755648e-07
  72    -1.6104806826162e-07
  73    -2.7227247041954e-07
  74    -1.7636871347634e-06
  75    4.2267094144504e-09
  76    6.607625706102e-08
  77    1.327247419636e-07
  78    -4.7240862076703e-08
  79    -6.8829700072335e-08
  80    1.1826830932776e-07
  81    -1.0394703330262e-07
  82    -2.097045323456e-07
  83    -1.5541450129974e-08
  84    3.0484568922466e-07
  85    1.5303751538098e-05
  86    -7.3936846603273e-07
  87    -1.1025358981653e-08
  88    -9.9299723547793e-07
  89    -3.5396499187809e-06
  90     4.91963273513e-06
  91    -3.9374034220084e-06
  92    -1.9205646613777e-07
  93    2.9798675977669e-07
  94    -3.8200867980787e-07
  95    -6.5640193893657e-08
  96    1.8132081085332e-07
  97    -7.1187371462184e-07
  98    -8.5259127890521e-07
  99    -2.3028010665665e-08
 100    1.0873505364147e-06
 101    3.6666894837729e-08
 102    7.3157076435939e-07
 103    -1.1792623854304e-05
 104    -3.3805626367537e-07
 105    1.0435002327526e-06
 106    7.1538846333419e-07
 107    2.0585786826802e-05
 108    -1.9297400333375e-05
 109    -3.5847865475263e-05
 110    6.5782930461621e-07
 111    6.3801265381967e-07
 112    -2.6681091585645e-07
 113    -2.9078631280688e-07
 114    5.4590950968185e-07
 115    5.256360706487e-07
 116    4.7798609886576e-06
 117    -3.9871070965986e-05
 118    7.3997274209485e-07
 119    -1.0340656613712e-06
 120    -9.6566096660252e-07
 121    9.7210736322735e-06
 122    -1.9990091903943e-06
 123    -3.6306107644093e-06
 124    1.1435532648952e-07
 125    2.9703689086303e-07
 126    9.4332152246721e-08
 127    -1.6824518748676e-07
 128    4.2815304655139e-07
 129    1.0672543938462e-06
 130    9.4926906382822e-06
 131    -5.9474686446464e-05
 132    -1.329996141675e-07
 133    1.5277209208878e-08
 134    -3.7111772706928e-06
 135    2.4139161004719e-05
 136    1.3891091017346e-06
 137    9.2813420712903e-05
 138    -2.7759198461371e-06
 139    -1.8029591584811e-06
 140    -2.1405134791598e-07
 141    -4.7225989879979e-07
 142    -6.9880615166106e-09
 143    5.2078807599128e-07
 144    4.7772858557566e-06
 145    -2.5456960408967e-05
 146    -1.9795113437636e-07
 147    -4.2116325038449e-07
 148    -3.8874640589149e-07
 149    -1.4803407290941e-05
 150    6.7623372469878e-06
 151    4.0899548297487e-06
 152    1.0565852602502e-06
 153    4.4880544770537e-07
 154    1.1926265783932e-07
 155    -7.9944318073606e-07
 156    8.7546747566948e-07
 157    -1.1494653593822e-07
 158    -9.0694197048119e-07
 159    -1.3837085499207e-07
 160    -7.2543542968557e-07
 161    5.5262537759451e-08
 162    1.5031813389939e-07
 163    7.1510518039487e-06
 164    -4.3451016219508e-07
 165    -8.9192487979005e-07
 166    -5.3160422027927e-07
 167    2.4332937289195e-07
 168    -2.9330758189681e-08
 169    1.2585252789295e-07
 170    -3.5115797600143e-07
 171    -2.310725069805e-08
 172    4.6205304926765e-07
 173    1.2408005716562e-06
 174    6.489338672633e-07
 175    1.8465984208792e-07
 176    -7.8746192517221e-07
 177    5.175926056511e-07
 178    -2.0419985669962e-06
 179    1.7293520470318e-06
 180    -1.433351624315e-07
 181    -2.181562155655e-07
 182    -6.4325552712215e-08
 183    4.2642784451839e-07
 184    -1.884699067783e-07
 185    3.1023827997148e-07
 186    3.2188781661507e-06
 187    -1.4315424554763e-06
 188    2.1045800175924e-07
 189    -1.5227344789742e-07
 190    -1.3205769865821e-06
 191    -2.3554416032479e-06
 192    -7.736508880963e-07
 193    5.5424616762058e-06
 194    -2.9077669528907e-07
 195    5.4452021787543e-08
 196    -2.2367806281001e-07
 197    -1.1902283506112e-07
 198    1.0950724840717e-07
 199    7.4687820185658e-07
 200    1.202886142271e-06
 201    -5.7592338394729e-08
 202    -3.6015547890705e-06
 203    1.7430686656726e-06
 204    1.6869811402627e-06
 205    3.6214507561899e-07
 206    2.5872185200968e-06
 207    -9.7368741839062e-07
 208    1.1164309616675e-05
 209    -1.2298204237925e-06
 210    4.8082725137926e-06
 211    -5.793405860647e-07
 212    -3.0986136552434e-06
 213    2.6498185299451e-07
 214    2.2959181580507e-06
 215    4.717862743273e-07
 216    -5.7758140030616e-07
 217    -2.5513347651858e-07
 218    -7.3894434256355e-07
 219    -3.202338176439e-07
 220    -1.2577947086734e-06
 221    7.3493493779963e-07
 222    8.234749267041e-06
 223    1.6948686074558e-05
 224    -6.3649134890228e-07
 225    1.2972034536102e-06
 226    -4.2122149605349e-06
 227    -8.0009022850621e-06
 228    -2.9633378565122e-05
 229    0.00010468719763945
 230     1.31387878225e-06
 231    4.514826713946e-06
 232    1.9532440943816e-06
 233    -1.9896625081987e-06
 234    -2.9431081272091e-06
 235    1.0634838317567e-06
 236    1.120444621422e-05
 237    -2.5431699492585e-05
 238    7.3023424104427e-07
 239    -3.2698027371963e-06
 240    -4.4618302595128e-06
 241    2.6280506756501e-05
 242    8.2445211669405e-06
 243    8.8572380234588e-05
 244    -1.2727017189653e-06
 245    -7.1226437328153e-06
 246    -1.6180835872786e-06
 247    -2.8715511924675e-06
 248    -1.1405163853116e-06
 249    4.8750934120248e-06
 250    -1.122446973874e-05
 251    4.4034495228783e-06
 252    3.5931708824958e-05
 253    -0.00029857445482364
 254    -2.2665280027567e-06
 255    9.0447475622031e-06
 256    -8.287019891968e-06
 257    -0.00012526051099498
 258    -9.8969124538379e-05
 259    0.00027257831019752
 260    -3.1419582928808e-06
 261    1.3476932535196e-05
 262    5.2381041728824e-06
 263    -8.9457594991895e-06
 264    -4.9003611268499e-06
 265    4.1377517258287e-06
 266    -3.0365987117977e-05
 267    9.3099795836508e-06
 268    -3.901706173754e-05
 269    5.5084302863045e-05
 270    0.00013992496926968
 271    -0.0032841110818509
 272    -4.2629731412331e-05
 273    0.00019598208812775
 274    -7.5743739971457e-06
 275    -0.0023069142926351
 276    -0.00062963752999338
 277    0.0034734914488403
 278    -0.00019331971453142
 279    0.00024260580241924