[Molden Format]
made by pyscf v[2.0.1]
[Atoms] (AU)
C   1   6     0.69100024066471     0.64692934207205    -3.48223131169301
H   2   1     2.68052439830868     1.13355088658700    -3.25784032593313
C   3   6    -0.36286361513219     0.85440132524594    -5.97030179418974
H   4   1    -2.35448549047279     0.36322488579172    -6.17995817793143
C   5   6     0.93697958957450     1.61209284601821    -8.05828437677121
H   6   1     1.25179717896080     3.62344259528190    -8.36861463213972
C   7   6     1.93299030663405    -0.10622024085708    -9.90534865945394
H   8   1     1.60367989661651    -2.11561190296467    -9.56827000221191
H   9   1     1.55630230933075    -1.92953025305990    12.99630010416247
C   10   6     0.75233899775814    -2.21270439606481    11.10705728102219
H   11   1    -0.43433408177274    -3.90944857546550    11.22216085340412
C   12   6     2.86362581178706    -2.63237380607947     9.17926416456045
H   13   1     4.39038949912609    -1.24955421540245     9.49899813497433
H   14   1     3.74629220191363    -4.48798724300892     9.47414880959024
C   15   6     2.02478325613682    -2.42177285709634     6.44560829588644
C   16   6     3.88048732735477    -3.58795445234514     4.61402886975252
C   17   6    -0.18412382258602    -1.30464291234259     5.76021113872346
C   18   6    -2.10044360464350    -0.26837831858460     7.71610340967100
C   19   6    -3.08956938670431     2.35282328359417     6.88693925039594
C   20   6    -4.37372924086464    -2.09766595989678     7.93610724222001
C   21   6    -0.83850430601230     0.06372213486173    10.33002307638377
H   22   1     0.38411922151109     1.74281358582432    10.27380136542181
H   23   1    -2.30980003007874     0.45460143924521    11.73986301809809
H   24   1     4.58527064644668    -5.38706904487420     5.36778158031719
H   25   1     5.54944938085014    -2.37631462192748     4.35398898413318
H   26   1     3.06633019150423    -3.94118377050688     2.75255466040884
H   27   1    -4.17727778763735     2.26573369139522     5.12914900961283
H   28   1    -1.52662344944051     3.68001877445626     6.59540397144508
H   29   1    -4.32916174397830     3.13643051467482     8.35225460090378
H   30   1    -5.32329548508442    -2.36691813602939     6.11583672749896
H   31   1    -5.77989366602257    -1.33896741843465     9.25748940450990
H   32   1    -3.79310905208926    -3.96389819310853     8.61386170102686
C   33   6    -1.01100794811226    -1.06331657314144     3.11929490449947
C   34   6     0.37686231036534    -0.33275864505552     1.09165013605873
H   35   1    -3.01671213906703    -1.40297922279997     2.77827895090944
C   36   6    -0.64382707979370    -0.11591880174385    -1.42063131251064
H   37   1     2.35569259782137     0.17174499283897     1.33641070251401
H   38   1    -2.63317482980319    -0.60229203511219    -1.66119700387645
C   39   6     3.23483881481583     0.56109494848388   -12.01167590238676
C   40   6     4.17213386166354    -1.33546547775814   -13.78129708499957
H   41   1     3.62751071831436     2.52907164005278   -12.45960989181140
O   42   8     5.35190984410731    -0.86987395658954   -15.70799822813352
H   43   1     3.72751838268070    -3.32497850208065   -13.24806737881206
[GTO]
1 0
 s    6 1.00
             3047.5249  0.0018347001629433
             457.36951    0.01403730124668
             103.94869   0.068842606114048
             29.210155    0.23218442062076
              9.286663    0.46794134155879
              3.163927    0.36231203217765
 s    3 1.00
             7.8682724   -0.11933240861517
             1.8812885   -0.16085421161283
             0.5442493     1.1434564825515
 s    1 1.00
             0.1687144                   1
 p    3 1.00
             7.8682724   0.068999095584993
             1.8812885    0.31642397975315
             0.5442493    0.74430825237435
 p    1 1.00
             0.1687144                   1
 d    1 1.00
                   0.8                   1

2 0
 s    3 1.00
             18.731137    0.03349459952309
             2.8253937    0.23472694665786
             0.6401217    0.81375731841339
 s    1 1.00
             0.1612778                   1

3 0
 s    6 1.00
             3047.5249  0.0018347001629433
             457.36951    0.01403730124668
             103.94869   0.068842606114048
             29.210155    0.23218442062076
              9.286663    0.46794134155879
              3.163927    0.36231203217765
 s    3 1.00
             7.8682724   -0.11933240861517
             1.8812885   -0.16085421161283
             0.5442493     1.1434564825515
 s    1 1.00
             0.1687144                   1
 p    3 1.00
             7.8682724   0.068999095584993
             1.8812885    0.31642397975315
             0.5442493    0.74430825237435
 p    1 1.00
             0.1687144                   1
 d    1 1.00
                   0.8                   1

4 0
 s    3 1.00
             18.731137    0.03349459952309
             2.8253937    0.23472694665786
             0.6401217    0.81375731841339
 s    1 1.00
             0.1612778                   1

5 0
 s    6 1.00
             3047.5249  0.0018347001629433
             457.36951    0.01403730124668
             103.94869   0.068842606114048
             29.210155    0.23218442062076
              9.286663    0.46794134155879
              3.163927    0.36231203217765
 s    3 1.00
             7.8682724   -0.11933240861517
             1.8812885   -0.16085421161283
             0.5442493     1.1434564825515
 s    1 1.00
             0.1687144                   1
 p    3 1.00
             7.8682724   0.068999095584993
             1.8812885    0.31642397975315
             0.5442493    0.74430825237435
 p    1 1.00
             0.1687144                   1
 d    1 1.00
                   0.8                   1

6 0
 s    3 1.00
             18.731137    0.03349459952309
             2.8253937    0.23472694665786
             0.6401217    0.81375731841339
 s    1 1.00
             0.1612778                   1

7 0
 s    6 1.00
             3047.5249  0.0018347001629433
             457.36951    0.01403730124668
             103.94869   0.068842606114048
             29.210155    0.23218442062076
              9.286663    0.46794134155879
              3.163927    0.36231203217765
 s    3 1.00
             7.8682724   -0.11933240861517
             1.8812885   -0.16085421161283
             0.5442493     1.1434564825515
 s    1 1.00
             0.1687144                   1
 p    3 1.00
             7.8682724   0.068999095584993
             1.8812885    0.31642397975315
             0.5442493    0.74430825237435
 p    1 1.00
             0.1687144                   1
 d    1 1.00
                   0.8                   1

8 0
 s    3 1.00
             18.731137    0.03349459952309
             2.8253937    0.23472694665786
             0.6401217    0.81375731841339
 s    1 1.00
             0.1612778                   1

9 0
 s    3 1.00
             18.731137    0.03349459952309
             2.8253937    0.23472694665786
             0.6401217    0.81375731841339
 s    1 1.00
             0.1612778                   1

10 0
 s    6 1.00
             3047.5249  0.0018347001629433
             457.36951    0.01403730124668
             103.94869   0.068842606114048
             29.210155    0.23218442062076
              9.286663    0.46794134155879
              3.163927    0.36231203217765
 s    3 1.00
             7.8682724   -0.11933240861517
             1.8812885   -0.16085421161283
             0.5442493     1.1434564825515
 s    1 1.00
             0.1687144                   1
 p    3 1.00
             7.8682724   0.068999095584993
             1.8812885    0.31642397975315
             0.5442493    0.74430825237435
 p    1 1.00
             0.1687144                   1
 d    1 1.00
                   0.8                   1

11 0
 s    3 1.00
             18.731137    0.03349459952309
             2.8253937    0.23472694665786
             0.6401217    0.81375731841339
 s    1 1.00
             0.1612778                   1

12 0
 s    6 1.00
             3047.5249  0.0018347001629433
             457.36951    0.01403730124668
             103.94869   0.068842606114048
             29.210155    0.23218442062076
              9.286663    0.46794134155879
              3.163927    0.36231203217765
 s    3 1.00
             7.8682724   -0.11933240861517
             1.8812885   -0.16085421161283
             0.5442493     1.1434564825515
 s    1 1.00
             0.1687144                   1
 p    3 1.00
             7.8682724   0.068999095584993
             1.8812885    0.31642397975315
             0.5442493    0.74430825237435
 p    1 1.00
             0.1687144                   1
 d    1 1.00
                   0.8                   1

13 0
 s    3 1.00
             18.731137    0.03349459952309
             2.8253937    0.23472694665786
             0.6401217    0.81375731841339
 s    1 1.00
             0.1612778                   1

14 0
 s    3 1.00
             18.731137    0.03349459952309
             2.8253937    0.23472694665786
             0.6401217    0.81375731841339
 s    1 1.00
             0.1612778                   1

15 0
 s    6 1.00
             3047.5249  0.0018347001629433
             457.36951    0.01403730124668
             103.94869   0.068842606114048
             29.210155    0.23218442062076
              9.286663    0.46794134155879
              3.163927    0.36231203217765
 s    3 1.00
             7.8682724   -0.11933240861517
             1.8812885   -0.16085421161283
             0.5442493     1.1434564825515
 s    1 1.00
             0.1687144                   1
 p    3 1.00
             7.8682724   0.068999095584993
             1.8812885    0.31642397975315
             0.5442493    0.74430825237435
 p    1 1.00
             0.1687144                   1
 d    1 1.00
                   0.8                   1

16 0
 s    6 1.00
             3047.5249  0.0018347001629433
             457.36951    0.01403730124668
             103.94869   0.068842606114048
             29.210155    0.23218442062076
              9.286663    0.46794134155879
              3.163927    0.36231203217765
 s    3 1.00
             7.8682724   -0.11933240861517
             1.8812885   -0.16085421161283
             0.5442493     1.1434564825515
 s    1 1.00
             0.1687144                   1
 p    3 1.00
             7.8682724   0.068999095584993
             1.8812885    0.31642397975315
             0.5442493    0.74430825237435
 p    1 1.00
             0.1687144                   1
 d    1 1.00
                   0.8                   1

17 0
 s    6 1.00
             3047.5249  0.0018347001629433
             457.36951    0.01403730124668
             103.94869   0.068842606114048
             29.210155    0.23218442062076
              9.286663    0.46794134155879
              3.163927    0.36231203217765
 s    3 1.00
             7.8682724   -0.11933240861517
             1.8812885   -0.16085421161283
             0.5442493     1.1434564825515
 s    1 1.00
             0.1687144                   1
 p    3 1.00
             7.8682724   0.068999095584993
             1.8812885    0.31642397975315
             0.5442493    0.74430825237435
 p    1 1.00
             0.1687144                   1
 d    1 1.00
                   0.8                   1

18 0
 s    6 1.00
             3047.5249  0.0018347001629433
             457.36951    0.01403730124668
             103.94869   0.068842606114048
             29.210155    0.23218442062076
              9.286663    0.46794134155879
              3.163927    0.36231203217765
 s    3 1.00
             7.8682724   -0.11933240861517
             1.8812885   -0.16085421161283
             0.5442493     1.1434564825515
 s    1 1.00
             0.1687144                   1
 p    3 1.00
             7.8682724   0.068999095584993
             1.8812885    0.31642397975315
             0.5442493    0.74430825237435
 p    1 1.00
             0.1687144                   1
 d    1 1.00
                   0.8                   1

19 0
 s    6 1.00
             3047.5249  0.0018347001629433
             457.36951    0.01403730124668
             103.94869   0.068842606114048
             29.210155    0.23218442062076
              9.286663    0.46794134155879
              3.163927    0.36231203217765
 s    3 1.00
             7.8682724   -0.11933240861517
             1.8812885   -0.16085421161283
             0.5442493     1.1434564825515
 s    1 1.00
             0.1687144                   1
 p    3 1.00
             7.8682724   0.068999095584993
             1.8812885    0.31642397975315
             0.5442493    0.74430825237435
 p    1 1.00
             0.1687144                   1
 d    1 1.00
                   0.8                   1

20 0
 s    6 1.00
             3047.5249  0.0018347001629433
             457.36951    0.01403730124668
             103.94869   0.068842606114048
             29.210155    0.23218442062076
              9.286663    0.46794134155879
              3.163927    0.36231203217765
 s    3 1.00
             7.8682724   -0.11933240861517
             1.8812885   -0.16085421161283
             0.5442493     1.1434564825515
 s    1 1.00
             0.1687144                   1
 p    3 1.00
             7.8682724   0.068999095584993
             1.8812885    0.31642397975315
             0.5442493    0.74430825237435
 p    1 1.00
             0.1687144                   1
 d    1 1.00
                   0.8                   1

21 0
 s    6 1.00
             3047.5249  0.0018347001629433
             457.36951    0.01403730124668
             103.94869   0.068842606114048
             29.210155    0.23218442062076
              9.286663    0.46794134155879
              3.163927    0.36231203217765
 s    3 1.00
             7.8682724   -0.11933240861517
             1.8812885   -0.16085421161283
             0.5442493     1.1434564825515
 s    1 1.00
             0.1687144                   1
 p    3 1.00
             7.8682724   0.068999095584993
             1.8812885    0.31642397975315
             0.5442493    0.74430825237435
 p    1 1.00
             0.1687144                   1
 d    1 1.00
                   0.8                   1

22 0
 s    3 1.00
             18.731137    0.03349459952309
             2.8253937    0.23472694665786
             0.6401217    0.81375731841339
 s    1 1.00
             0.1612778                   1

23 0
 s    3 1.00
             18.731137    0.03349459952309
             2.8253937    0.23472694665786
             0.6401217    0.81375731841339
 s    1 1.00
             0.1612778                   1

24 0
 s    3 1.00
             18.731137    0.03349459952309
             2.8253937    0.23472694665786
             0.6401217    0.81375731841339
 s    1 1.00
             0.1612778                   1

25 0
 s    3 1.00
             18.731137    0.03349459952309
             2.8253937    0.23472694665786
             0.6401217    0.81375731841339
 s    1 1.00
             0.1612778                   1

26 0
 s    3 1.00
             18.731137    0.03349459952309
             2.8253937    0.23472694665786
             0.6401217    0.81375731841339
 s    1 1.00
             0.1612778                   1

27 0
 s    3 1.00
             18.731137    0.03349459952309
             2.8253937    0.23472694665786
             0.6401217    0.81375731841339
 s    1 1.00
             0.1612778                   1

28 0
 s    3 1.00
             18.731137    0.03349459952309
             2.8253937    0.23472694665786
             0.6401217    0.81375731841339
 s    1 1.00
             0.1612778                   1

29 0
 s    3 1.00
             18.731137    0.03349459952309
             2.8253937    0.23472694665786
             0.6401217    0.81375731841339
 s    1 1.00
             0.1612778                   1

30 0
 s    3 1.00
             18.731137    0.03349459952309
             2.8253937    0.23472694665786
             0.6401217    0.81375731841339
 s    1 1.00
             0.1612778                   1

31 0
 s    3 1.00
             18.731137    0.03349459952309
             2.8253937    0.23472694665786
             0.6401217    0.81375731841339
 s    1 1.00
             0.1612778                   1

32 0
 s    3 1.00
             18.731137    0.03349459952309
             2.8253937    0.23472694665786
             0.6401217    0.81375731841339
 s    1 1.00
             0.1612778                   1

33 0
 s    6 1.00
             3047.5249  0.0018347001629433
             457.36951    0.01403730124668
             103.94869   0.068842606114048
             29.210155    0.23218442062076
              9.286663    0.46794134155879
              3.163927    0.36231203217765
 s    3 1.00
             7.8682724   -0.11933240861517
             1.8812885   -0.16085421161283
             0.5442493     1.1434564825515
 s    1 1.00
             0.1687144                   1
 p    3 1.00
             7.8682724   0.068999095584993
             1.8812885    0.31642397975315
             0.5442493    0.74430825237435
 p    1 1.00
             0.1687144                   1
 d    1 1.00
                   0.8                   1

34 0
 s    6 1.00
             3047.5249  0.0018347001629433
             457.36951    0.01403730124668
             103.94869   0.068842606114048
             29.210155    0.23218442062076
              9.286663    0.46794134155879
              3.163927    0.36231203217765
 s    3 1.00
             7.8682724   -0.11933240861517
             1.8812885   -0.16085421161283
             0.5442493     1.1434564825515
 s    1 1.00
             0.1687144                   1
 p    3 1.00
             7.8682724   0.068999095584993
             1.8812885    0.31642397975315
             0.5442493    0.74430825237435
 p    1 1.00
             0.1687144                   1
 d    1 1.00
                   0.8                   1

35 0
 s    3 1.00
             18.731137    0.03349459952309
             2.8253937    0.23472694665786
             0.6401217    0.81375731841339
 s    1 1.00
             0.1612778                   1

36 0
 s    6 1.00
             3047.5249  0.0018347001629433
             457.36951    0.01403730124668
             103.94869   0.068842606114048
             29.210155    0.23218442062076
              9.286663    0.46794134155879
              3.163927    0.36231203217765
 s    3 1.00
             7.8682724   -0.11933240861517
             1.8812885   -0.16085421161283
             0.5442493     1.1434564825515
 s    1 1.00
             0.1687144                   1
 p    3 1.00
             7.8682724   0.068999095584993
             1.8812885    0.31642397975315
             0.5442493    0.74430825237435
 p    1 1.00
             0.1687144                   1
 d    1 1.00
                   0.8                   1

37 0
 s    3 1.00
             18.731137    0.03349459952309
             2.8253937    0.23472694665786
             0.6401217    0.81375731841339
 s    1 1.00
             0.1612778                   1

38 0
 s    3 1.00
             18.731137    0.03349459952309
             2.8253937    0.23472694665786
             0.6401217    0.81375731841339
 s    1 1.00
             0.1612778                   1

39 0
 s    6 1.00
             3047.5249  0.0018347001629433
             457.36951    0.01403730124668
             103.94869   0.068842606114048
             29.210155    0.23218442062076
              9.286663    0.46794134155879
              3.163927    0.36231203217765
 s    3 1.00
             7.8682724   -0.11933240861517
             1.8812885   -0.16085421161283
             0.5442493     1.1434564825515
 s    1 1.00
             0.1687144                   1
 p    3 1.00
             7.8682724   0.068999095584993
             1.8812885    0.31642397975315
             0.5442493    0.74430825237435
 p    1 1.00
             0.1687144                   1
 d    1 1.00
                   0.8                   1

40 0
 s    6 1.00
             3047.5249  0.0018347001629433
             457.36951    0.01403730124668
             103.94869   0.068842606114048
             29.210155    0.23218442062076
              9.286663    0.46794134155879
              3.163927    0.36231203217765
 s    3 1.00
             7.8682724   -0.11933240861517
             1.8812885   -0.16085421161283
             0.5442493     1.1434564825515
 s    1 1.00
             0.1687144                   1
 p    3 1.00
             7.8682724   0.068999095584993
             1.8812885    0.31642397975315
             0.5442493    0.74430825237435
 p    1 1.00
             0.1687144                   1
 d    1 1.00
                   0.8                   1

41 0
 s    3 1.00
             18.731137    0.03349459952309
             2.8253937    0.23472694665786
             0.6401217    0.81375731841339
 s    1 1.00
             0.1612778                   1

42 0
 s    6 1.00
             5484.6717   0.001831099805527
             825.23495   0.013950098518422
             188.04696    0.06844509273075
               52.9645    0.23271427528445
              16.89757    0.47019295006289
             5.7996353    0.35852086192309
 s    3 1.00
             15.539616   -0.11077750382508
             3.5999336   -0.14802630511126
             1.0137618     1.1307670390447
 s    1 1.00
             0.2700058                   1
 p    3 1.00
             15.539616   0.070874299543311
             3.5999336    0.33975279781076
             1.0137618    0.72715859531445
 p    1 1.00
             0.2700058                   1
 d    1 1.00
                   0.8                   1

43 0
 s    3 1.00
             18.731137    0.03349459952309
             2.8253937    0.23472694665786
             0.6401217    0.81375731841339
 s    1 1.00
             0.1612778                   1

[5d]
[7f]
[9g]

[MO]
 Sym= A
 Ene=               0
 Spin= Alpha
 Occup=    1.00000
   1    -2.0391958486414e-06
   2    -2.3444365895532e-05
   3    7.1395504419732e-05
   4    -6.3460049511017e-06
   5    7.2353131331162e-06
   6    1.4654150938165e-05
   7    -2.0402477199271e-06
   8    5.8337981476545e-05
   9    -0.00036438855676599
  10    -4.1626668909877e-07
  11    1.1907825250044e-05
  12    3.3903962803896e-06
  13    1.4315113836258e-05
  14    -7.8066152742293e-06
  15    -1.3670661856203e-05
  16    2.4771847067927e-05
  17    7.106006897368e-06
  18    0.00016600524977232
  19    0.00048445465429926
  20    5.4436316322573e-05
  21    -1.2121159373628e-05
  22    -7.5715241055155e-05
  23    0.00015908528710492
  24    -7.773000401571e-05
  25    -0.00069698353294313
  26    2.4435845850077e-05
  27    -2.4351641226932e-05
  28    6.4005694575248e-06
  29    4.5602574141731e-05
  30    -1.0357854526532e-05
  31    -1.0593122760702e-05
  32    2.2898256657117e-05
  33    5.4919636937771e-05
  34    0.0003657524685043
  35    -0.0046709202885621
  36    -8.825904910906e-05
  37    2.115761101275e-05
  38    0.00015908942855535
  39    -0.00025261071788213
  40    0.0020275637746638
  41    0.00069298497696043
  42    -4.2951443006855e-05
  43    0.00010632393193513
  44    -8.4946452468568e-05
  45    4.0133060580163e-05
  46    3.7949171744157e-05
  47    -1.7475575568251e-05
  48    -0.00029290304112612
  49    5.1544694725983e-06
  50    0.00012723444433751
  51    0.0037347219835437
  52    0.00014939096715052
  53    -0.00024021908769392
  54    -0.00027802651422944
  55    -0.0013985588139323
  56    0.0027325363435168
  57     0.002632073103481
  58    -4.0090934135004e-06
  59    5.1378809457253e-05
  60    0.0002028208579806
  61    1.7442243808206e-05
  62    -0.00012744690988344
  63    0.00030807428661418
  64    8.5884822924352e-05
  65    -2.4542294304775e-07
  66    -3.7666701039642e-07
  67    -4.2547796325124e-08
  68    -5.5829301733578e-07
  69    3.1159397604142e-06
  70    2.423027228449e-07
  71    -3.3136975174048e-07
  72    8.6057016281824e-08
  73    1.9791170490575e-07
  74    1.7211375972002e-06
  75    2.1515641440872e-07
  76    -5.608386084427e-08
  77    -1.270313988736e-07
  78    5.2181622360357e-08
  79    8.1234270782683e-08
  80    -1.029181377923e-07
  81    7.790633122634e-08
  82    1.8611897369814e-07
  83    2.3426439062709e-08
  84    -1.3341462791062e-07
  85    -1.2577204911402e-05
  86    5.7037730846652e-07
  87    1.1523810286081e-07
  88    8.5984008827613e-07
  89    3.3932588199168e-06
  90    -4.8957794998471e-06
  91    2.8611289354505e-06
  92    1.7158604520265e-07
  93    -2.7554641739934e-07
  94    3.3197668133388e-07
  95    2.8669871308073e-08
  96    -1.51851277138e-07
  97    6.3407783440465e-07
  98    9.1128009203214e-07
  99    -7.025376760561e-08
 100    -1.1657371393376e-06
 101    -9.2688117177454e-08
 102    -1.1564695778884e-06
 103    1.6029191004221e-05
 104    1.3656845531877e-07
 105    -9.1225034087968e-07
 106    -5.1269939790816e-07
 107    -1.9229325998798e-05
 108    1.7094306476105e-05
 109    2.7918016587523e-05
 110    -5.8932048403222e-07
 111    -5.1923022996258e-07
 112    2.3183642510666e-07
 113    4.7743608397901e-07
 114    -4.840199562384e-07
 115    -5.0073932208354e-07
 116    -4.7047346439902e-06
 117    3.6455917918571e-05
 118     -6.4645511534e-07
 119    1.0719525768908e-06
 120    8.5852615776067e-07
 121    -7.7059544188209e-06
 122    1.8895222884385e-07
 123    1.3887346316221e-06
 124    -5.4322047554315e-08
 125    -1.5192597336252e-07
 126    -1.7262297367451e-07
 127    3.1148604760005e-08
 128    -3.148819037832e-07
 129    -9.393976589504e-07
 130    -8.8335628494234e-06
 131    4.554873915443e-05
 132    1.1176939218188e-07
 133    -6.3698243851998e-07
 134    3.6572595258201e-06
 135    -2.4670714207358e-05
 136    3.4761580518245e-06
 137    -7.5554968740025e-05
 138    2.3686342979326e-06
 139    1.4101814924719e-06
 140    2.3510073394369e-07
 141    4.0279943294791e-07
 142    1.0891372014885e-07
 143    -3.290509894086e-07
 144    -3.1075194157423e-06
 145    1.5522510561338e-05
 146    3.2343630971629e-07
 147    7.095849945723e-07
 148    2.7222803491655e-07
 149    9.9882526179263e-06
 150    -8.1505953525428e-06
 151    -1.1957223887063e-06
 152    -1.0290709505747e-06
 153    -3.3116270288474e-07
 154    -6.0965959042072e-08
 155    7.0625668865571e-07
 156    -6.29559153859e-07
 157    7.6989198439017e-08
 158    6.9074882182004e-07
 159    2.3899727869375e-06
 160    7.5634463053179e-07
 161    -1.9281005711667e-07
 162     2.15853989564e-08
 163    -5.5378814131109e-06
 164    -5.3476649100516e-07
 165    7.3240051246779e-07
 166    3.6331267404132e-07
 167    -8.0019764295418e-08
 168    -4.7030041549195e-09
 169    -1.2588010137495e-07
 170    2.2448781429735e-07
 171    3.0140611196225e-08
 172    -3.8368493783011e-07
 173    -2.2766348725952e-06
 174    -6.8247404785188e-07
 175    -1.3390577277811e-07
 176    7.5460248655494e-07
 177    -6.3102856577254e-07
 178    1.2299907869534e-06
 179    -2.1672719602703e-06
 180    1.6939389554357e-07
 181    1.845226324864e-07
 182    -1.7501666086941e-08
 183    -3.9377353261607e-07
 184    1.5427118713834e-07
 185    -2.8798131891531e-07
 186    -2.9115538110763e-06
 187    2.2308297311194e-06
 188    -2.3448573444492e-07
 189    1.283350657436e-07
 190    1.0826442186665e-06
 191    2.4269735884472e-06
 192    1.3366673308607e-06
 193    -5.7852668241077e-06
 194    3.6586417271928e-07
 195    -5.0103336551269e-08
 196    9.7083631000092e-08
 197    6.4818643741656e-08
 198    -8.8521313202352e-08
 199    -7.5786370191461e-07
 200    -1.4475666947856e-06
 201    8.7864249721382e-08
 202    3.2692218819777e-06
 203    -1.7379346572304e-06
 204    -2.0952299607958e-06
 205    -3.811009818699e-07
 206    -2.3693727274991e-06
 207    1.6391436112997e-06
 208    -1.4280229945589e-05
 209    9.7400759775192e-07
 210    -4.1172856431736e-06
 211    3.4621886247251e-07
 212    2.719757133625e-06
 213    -2.1016655000832e-07
 214    -2.0669003854345e-06
 215    -4.7334590202346e-07
 216    2.5375528504008e-07
 217    3.2183954224823e-07
 218    9.4398591008841e-07
 219    2.2072295715893e-07
 220    1.1635491293538e-06
 221    -7.3465076111392e-07
 222    -8.2249453503731e-06
 223    -3.3832961531248e-06
 224    -1.0337800738517e-07
 225    -1.9381629963536e-07
 226    3.3590282854833e-06
 227    1.6665514133304e-05
 228    2.5237177909669e-05
 229    -8.5922824488443e-05
 230    -1.1784410543883e-06
 231    -3.7308419487058e-06
 232    -1.9989363449916e-06
 233    1.7194436454201e-06
 234    2.8609442776996e-06
 235    -1.4425858759521e-06
 236    -1.3608628597428e-05
 237    4.6051713158514e-05
 238    -1.0976235647458e-06
 239    3.0302266933463e-06
 240    4.0461374491286e-06
 241    -2.4072294220788e-05
 242    -1.1065538474173e-05
 243    -0.00010333586552328
 244    2.7601428773008e-06
 245    6.9511355559085e-06
 246    2.4807531261388e-06
 247    2.5921637291781e-06
 248    2.2111525536493e-06
 249    -3.2999598702192e-06
 250    1.2077715017965e-05
 251    -3.4700950060023e-06
 252    -2.9276232650906e-05
 253    0.00019214089806306
 254    3.5800951466006e-06
 255    -1.2859309288035e-05
 256    8.811960649052e-06
 257    8.6705622281288e-05
 258    0.00011167210357782
 259    -0.00023223620493332
 260    6.6011661516658e-07
 261    -1.1615376590737e-05
 262    -6.3566817997116e-06
 263    6.5855903400071e-06
 264    7.3744911497861e-06
 265    -5.0158951499569e-06
 266    2.8116524627321e-05
 267    -9.169836766405e-06
 268    3.900099753452e-05
 269    -5.5041239964275e-05
 270    -0.00013925666673876
 271    0.0032811285435149
 272    4.2670120685661e-07
 273    -0.00019977281016546
 274    -1.9622360193997e-05
 275     0.002166026350788
 276    0.00062185956402196
 277    -0.0035697248654581
 278    0.00026088783194265
 279    -0.00020538400116403
 280    0.0001501924873305