[Molden Format]
made by pyscf v[2.0.1]
[Atoms] (AU)
C   1   6     0.69100024066471     0.64692934207205    -3.48223131169301
H   2   1     2.68052439830868     1.13355088658700    -3.25784032593313
C   3   6    -0.36286361513219     0.85440132524594    -5.97030179418974
H   4   1    -2.35448549047279     0.36322488579172    -6.17995817793143
C   5   6     0.93697958957450     1.61209284601821    -8.05828437677121
H   6   1     0.91018176739439     3.60165715372829    -8.58918788754706
C   7   6     2.36275315943078    -0.07897264779665    -9.62791837868890
H   8   1     2.37293254336653    -2.06644965927173    -9.07154285055885
H   9   1     1.55630230933075    -1.92953025305990    12.99630010416247
C   10   6     0.75233899775814    -2.21270439606481    11.10705728102219
H   11   1    -0.43433408177274    -3.90944857546550    11.22216085340412
C   12   6     2.86362581178706    -2.63237380607947     9.17926416456045
H   13   1     4.39038949912609    -1.24955421540245     9.49899813497433
H   14   1     3.74629220191363    -4.48798724300892     9.47414880959024
C   15   6     2.02478325613682    -2.42177285709634     6.44560829588644
C   16   6     3.88048732735477    -3.58795445234514     4.61402886975252
C   17   6    -0.18412382258602    -1.30464291234259     5.76021113872346
C   18   6    -2.10044360464350    -0.26837831858460     7.71610340967100
C   19   6    -3.08956938670431     2.35282328359417     6.88693925039594
C   20   6    -4.37372924086464    -2.09766595989678     7.93610724222001
C   21   6    -0.83850430601230     0.06372213486173    10.33002307638377
H   22   1     0.38411922151109     1.74281358582432    10.27380136542181
H   23   1    -2.30980003007874     0.45460143924521    11.73986301809809
H   24   1     4.58527064644668    -5.38706904487420     5.36778158031719
H   25   1     5.54944938085014    -2.37631462192748     4.35398898413318
H   26   1     3.06633019150423    -3.94118377050688     2.75255466040884
H   27   1    -4.17727778763735     2.26573369139522     5.12914900961283
H   28   1    -1.52662344944051     3.68001877445626     6.59540397144508
H   29   1    -4.32916174397830     3.13643051467482     8.35225460090378
H   30   1    -5.32329548508442    -2.36691813602939     6.11583672749896
H   31   1    -5.77989366602257    -1.33896741843465     9.25748940450990
H   32   1    -3.79310905208926    -3.96389819310853     8.61386170102686
C   33   6    -1.01100794811226    -1.06331657314144     3.11929490449947
C   34   6     0.37686231036534    -0.33275864505552     1.09165013605873
H   35   1    -3.01671213906703    -1.40297922279997     2.77827895090944
C   36   6    -0.64382707979370    -0.11591880174385    -1.42063131251064
H   37   1     2.35569259782137     0.17174499283897     1.33641070251401
H   38   1    -2.63317482980319    -0.60229203511219    -1.66119700387645
C   39   6     3.68212070775393     0.58885978377309   -11.72315169981470
C   40   6     5.07620914500435    -1.27889558400184   -13.19794995736473
H   41   1     3.74999971153331     2.53578027550937   -12.38092170581109
O   42   8     6.29809885748056    -0.81150016580158   -15.09777920785750
H   43   1     4.95468191731404    -3.24735743289555   -12.45594726186437
[GTO]
1 0
 s    6 1.00
             3047.5249  0.0018347001629433
             457.36951    0.01403730124668
             103.94869   0.068842606114048
             29.210155    0.23218442062076
              9.286663    0.46794134155879
              3.163927    0.36231203217765
 s    3 1.00
             7.8682724   -0.11933240861517
             1.8812885   -0.16085421161283
             0.5442493     1.1434564825515
 s    1 1.00
             0.1687144                   1
 p    3 1.00
             7.8682724   0.068999095584993
             1.8812885    0.31642397975315
             0.5442493    0.74430825237435
 p    1 1.00
             0.1687144                   1
 d    1 1.00
                   0.8                   1

2 0
 s    3 1.00
             18.731137    0.03349459952309
             2.8253937    0.23472694665786
             0.6401217    0.81375731841339
 s    1 1.00
             0.1612778                   1

3 0
 s    6 1.00
             3047.5249  0.0018347001629433
             457.36951    0.01403730124668
             103.94869   0.068842606114048
             29.210155    0.23218442062076
              9.286663    0.46794134155879
              3.163927    0.36231203217765
 s    3 1.00
             7.8682724   -0.11933240861517
             1.8812885   -0.16085421161283
             0.5442493     1.1434564825515
 s    1 1.00
             0.1687144                   1
 p    3 1.00
             7.8682724   0.068999095584993
             1.8812885    0.31642397975315
             0.5442493    0.74430825237435
 p    1 1.00
             0.1687144                   1
 d    1 1.00
                   0.8                   1

4 0
 s    3 1.00
             18.731137    0.03349459952309
             2.8253937    0.23472694665786
             0.6401217    0.81375731841339
 s    1 1.00
             0.1612778                   1

5 0
 s    6 1.00
             3047.5249  0.0018347001629433
             457.36951    0.01403730124668
             103.94869   0.068842606114048
             29.210155    0.23218442062076
              9.286663    0.46794134155879
              3.163927    0.36231203217765
 s    3 1.00
             7.8682724   -0.11933240861517
             1.8812885   -0.16085421161283
             0.5442493     1.1434564825515
 s    1 1.00
             0.1687144                   1
 p    3 1.00
             7.8682724   0.068999095584993
             1.8812885    0.31642397975315
             0.5442493    0.74430825237435
 p    1 1.00
             0.1687144                   1
 d    1 1.00
                   0.8                   1

6 0
 s    3 1.00
             18.731137    0.03349459952309
             2.8253937    0.23472694665786
             0.6401217    0.81375731841339
 s    1 1.00
             0.1612778                   1

7 0
 s    6 1.00
             3047.5249  0.0018347001629433
             457.36951    0.01403730124668
             103.94869   0.068842606114048
             29.210155    0.23218442062076
              9.286663    0.46794134155879
              3.163927    0.36231203217765
 s    3 1.00
             7.8682724   -0.11933240861517
             1.8812885   -0.16085421161283
             0.5442493     1.1434564825515
 s    1 1.00
             0.1687144                   1
 p    3 1.00
             7.8682724   0.068999095584993
             1.8812885    0.31642397975315
             0.5442493    0.74430825237435
 p    1 1.00
             0.1687144                   1
 d    1 1.00
                   0.8                   1

8 0
 s    3 1.00
             18.731137    0.03349459952309
             2.8253937    0.23472694665786
             0.6401217    0.81375731841339
 s    1 1.00
             0.1612778                   1

9 0
 s    3 1.00
             18.731137    0.03349459952309
             2.8253937    0.23472694665786
             0.6401217    0.81375731841339
 s    1 1.00
             0.1612778                   1

10 0
 s    6 1.00
             3047.5249  0.0018347001629433
             457.36951    0.01403730124668
             103.94869   0.068842606114048
             29.210155    0.23218442062076
              9.286663    0.46794134155879
              3.163927    0.36231203217765
 s    3 1.00
             7.8682724   -0.11933240861517
             1.8812885   -0.16085421161283
             0.5442493     1.1434564825515
 s    1 1.00
             0.1687144                   1
 p    3 1.00
             7.8682724   0.068999095584993
             1.8812885    0.31642397975315
             0.5442493    0.74430825237435
 p    1 1.00
             0.1687144                   1
 d    1 1.00
                   0.8                   1

11 0
 s    3 1.00
             18.731137    0.03349459952309
             2.8253937    0.23472694665786
             0.6401217    0.81375731841339
 s    1 1.00
             0.1612778                   1

12 0
 s    6 1.00
             3047.5249  0.0018347001629433
             457.36951    0.01403730124668
             103.94869   0.068842606114048
             29.210155    0.23218442062076
              9.286663    0.46794134155879
              3.163927    0.36231203217765
 s    3 1.00
             7.8682724   -0.11933240861517
             1.8812885   -0.16085421161283
             0.5442493     1.1434564825515
 s    1 1.00
             0.1687144                   1
 p    3 1.00
             7.8682724   0.068999095584993
             1.8812885    0.31642397975315
             0.5442493    0.74430825237435
 p    1 1.00
             0.1687144                   1
 d    1 1.00
                   0.8                   1

13 0
 s    3 1.00
             18.731137    0.03349459952309
             2.8253937    0.23472694665786
             0.6401217    0.81375731841339
 s    1 1.00
             0.1612778                   1

14 0
 s    3 1.00
             18.731137    0.03349459952309
             2.8253937    0.23472694665786
             0.6401217    0.81375731841339
 s    1 1.00
             0.1612778                   1

15 0
 s    6 1.00
             3047.5249  0.0018347001629433
             457.36951    0.01403730124668
             103.94869   0.068842606114048
             29.210155    0.23218442062076
              9.286663    0.46794134155879
              3.163927    0.36231203217765
 s    3 1.00
             7.8682724   -0.11933240861517
             1.8812885   -0.16085421161283
             0.5442493     1.1434564825515
 s    1 1.00
             0.1687144                   1
 p    3 1.00
             7.8682724   0.068999095584993
             1.8812885    0.31642397975315
             0.5442493    0.74430825237435
 p    1 1.00
             0.1687144                   1
 d    1 1.00
                   0.8                   1

16 0
 s    6 1.00
             3047.5249  0.0018347001629433
             457.36951    0.01403730124668
             103.94869   0.068842606114048
             29.210155    0.23218442062076
              9.286663    0.46794134155879
              3.163927    0.36231203217765
 s    3 1.00
             7.8682724   -0.11933240861517
             1.8812885   -0.16085421161283
             0.5442493     1.1434564825515
 s    1 1.00
             0.1687144                   1
 p    3 1.00
             7.8682724   0.068999095584993
             1.8812885    0.31642397975315
             0.5442493    0.74430825237435
 p    1 1.00
             0.1687144                   1
 d    1 1.00
                   0.8                   1

17 0
 s    6 1.00
             3047.5249  0.0018347001629433
             457.36951    0.01403730124668
             103.94869   0.068842606114048
             29.210155    0.23218442062076
              9.286663    0.46794134155879
              3.163927    0.36231203217765
 s    3 1.00
             7.8682724   -0.11933240861517
             1.8812885   -0.16085421161283
             0.5442493     1.1434564825515
 s    1 1.00
             0.1687144                   1
 p    3 1.00
             7.8682724   0.068999095584993
             1.8812885    0.31642397975315
             0.5442493    0.74430825237435
 p    1 1.00
             0.1687144                   1
 d    1 1.00
                   0.8                   1

18 0
 s    6 1.00
             3047.5249  0.0018347001629433
             457.36951    0.01403730124668
             103.94869   0.068842606114048
             29.210155    0.23218442062076
              9.286663    0.46794134155879
              3.163927    0.36231203217765
 s    3 1.00
             7.8682724   -0.11933240861517
             1.8812885   -0.16085421161283
             0.5442493     1.1434564825515
 s    1 1.00
             0.1687144                   1
 p    3 1.00
             7.8682724   0.068999095584993
             1.8812885    0.31642397975315
             0.5442493    0.74430825237435
 p    1 1.00
             0.1687144                   1
 d    1 1.00
                   0.8                   1

19 0
 s    6 1.00
             3047.5249  0.0018347001629433
             457.36951    0.01403730124668
             103.94869   0.068842606114048
             29.210155    0.23218442062076
              9.286663    0.46794134155879
              3.163927    0.36231203217765
 s    3 1.00
             7.8682724   -0.11933240861517
             1.8812885   -0.16085421161283
             0.5442493     1.1434564825515
 s    1 1.00
             0.1687144                   1
 p    3 1.00
             7.8682724   0.068999095584993
             1.8812885    0.31642397975315
             0.5442493    0.74430825237435
 p    1 1.00
             0.1687144                   1
 d    1 1.00
                   0.8                   1

20 0
 s    6 1.00
             3047.5249  0.0018347001629433
             457.36951    0.01403730124668
             103.94869   0.068842606114048
             29.210155    0.23218442062076
              9.286663    0.46794134155879
              3.163927    0.36231203217765
 s    3 1.00
             7.8682724   -0.11933240861517
             1.8812885   -0.16085421161283
             0.5442493     1.1434564825515
 s    1 1.00
             0.1687144                   1
 p    3 1.00
             7.8682724   0.068999095584993
             1.8812885    0.31642397975315
             0.5442493    0.74430825237435
 p    1 1.00
             0.1687144                   1
 d    1 1.00
                   0.8                   1

21 0
 s    6 1.00
             3047.5249  0.0018347001629433
             457.36951    0.01403730124668
             103.94869   0.068842606114048
             29.210155    0.23218442062076
              9.286663    0.46794134155879
              3.163927    0.36231203217765
 s    3 1.00
             7.8682724   -0.11933240861517
             1.8812885   -0.16085421161283
             0.5442493     1.1434564825515
 s    1 1.00
             0.1687144                   1
 p    3 1.00
             7.8682724   0.068999095584993
             1.8812885    0.31642397975315
             0.5442493    0.74430825237435
 p    1 1.00
             0.1687144                   1
 d    1 1.00
                   0.8                   1

22 0
 s    3 1.00
             18.731137    0.03349459952309
             2.8253937    0.23472694665786
             0.6401217    0.81375731841339
 s    1 1.00
             0.1612778                   1

23 0
 s    3 1.00
             18.731137    0.03349459952309
             2.8253937    0.23472694665786
             0.6401217    0.81375731841339
 s    1 1.00
             0.1612778                   1

24 0
 s    3 1.00
             18.731137    0.03349459952309
             2.8253937    0.23472694665786
             0.6401217    0.81375731841339
 s    1 1.00
             0.1612778                   1

25 0
 s    3 1.00
             18.731137    0.03349459952309
             2.8253937    0.23472694665786
             0.6401217    0.81375731841339
 s    1 1.00
             0.1612778                   1

26 0
 s    3 1.00
             18.731137    0.03349459952309
             2.8253937    0.23472694665786
             0.6401217    0.81375731841339
 s    1 1.00
             0.1612778                   1

27 0
 s    3 1.00
             18.731137    0.03349459952309
             2.8253937    0.23472694665786
             0.6401217    0.81375731841339
 s    1 1.00
             0.1612778                   1

28 0
 s    3 1.00
             18.731137    0.03349459952309
             2.8253937    0.23472694665786
             0.6401217    0.81375731841339
 s    1 1.00
             0.1612778                   1

29 0
 s    3 1.00
             18.731137    0.03349459952309
             2.8253937    0.23472694665786
             0.6401217    0.81375731841339
 s    1 1.00
             0.1612778                   1

30 0
 s    3 1.00
             18.731137    0.03349459952309
             2.8253937    0.23472694665786
             0.6401217    0.81375731841339
 s    1 1.00
             0.1612778                   1

31 0
 s    3 1.00
             18.731137    0.03349459952309
             2.8253937    0.23472694665786
             0.6401217    0.81375731841339
 s    1 1.00
             0.1612778                   1

32 0
 s    3 1.00
             18.731137    0.03349459952309
             2.8253937    0.23472694665786
             0.6401217    0.81375731841339
 s    1 1.00
             0.1612778                   1

33 0
 s    6 1.00
             3047.5249  0.0018347001629433
             457.36951    0.01403730124668
             103.94869   0.068842606114048
             29.210155    0.23218442062076
              9.286663    0.46794134155879
              3.163927    0.36231203217765
 s    3 1.00
             7.8682724   -0.11933240861517
             1.8812885   -0.16085421161283
             0.5442493     1.1434564825515
 s    1 1.00
             0.1687144                   1
 p    3 1.00
             7.8682724   0.068999095584993
             1.8812885    0.31642397975315
             0.5442493    0.74430825237435
 p    1 1.00
             0.1687144                   1
 d    1 1.00
                   0.8                   1

34 0
 s    6 1.00
             3047.5249  0.0018347001629433
             457.36951    0.01403730124668
             103.94869   0.068842606114048
             29.210155    0.23218442062076
              9.286663    0.46794134155879
              3.163927    0.36231203217765
 s    3 1.00
             7.8682724   -0.11933240861517
             1.8812885   -0.16085421161283
             0.5442493     1.1434564825515
 s    1 1.00
             0.1687144                   1
 p    3 1.00
             7.8682724   0.068999095584993
             1.8812885    0.31642397975315
             0.5442493    0.74430825237435
 p    1 1.00
             0.1687144                   1
 d    1 1.00
                   0.8                   1

35 0
 s    3 1.00
             18.731137    0.03349459952309
             2.8253937    0.23472694665786
             0.6401217    0.81375731841339
 s    1 1.00
             0.1612778                   1

36 0
 s    6 1.00
             3047.5249  0.0018347001629433
             457.36951    0.01403730124668
             103.94869   0.068842606114048
             29.210155    0.23218442062076
              9.286663    0.46794134155879
              3.163927    0.36231203217765
 s    3 1.00
             7.8682724   -0.11933240861517
             1.8812885   -0.16085421161283
             0.5442493     1.1434564825515
 s    1 1.00
             0.1687144                   1
 p    3 1.00
             7.8682724   0.068999095584993
             1.8812885    0.31642397975315
             0.5442493    0.74430825237435
 p    1 1.00
             0.1687144                   1
 d    1 1.00
                   0.8                   1

37 0
 s    3 1.00
             18.731137    0.03349459952309
             2.8253937    0.23472694665786
             0.6401217    0.81375731841339
 s    1 1.00
             0.1612778                   1

38 0
 s    3 1.00
             18.731137    0.03349459952309
             2.8253937    0.23472694665786
             0.6401217    0.81375731841339
 s    1 1.00
             0.1612778                   1

39 0
 s    6 1.00
             3047.5249  0.0018347001629433
             457.36951    0.01403730124668
             103.94869   0.068842606114048
             29.210155    0.23218442062076
              9.286663    0.46794134155879
              3.163927    0.36231203217765
 s    3 1.00
             7.8682724   -0.11933240861517
             1.8812885   -0.16085421161283
             0.5442493     1.1434564825515
 s    1 1.00
             0.1687144                   1
 p    3 1.00
             7.8682724   0.068999095584993
             1.8812885    0.31642397975315
             0.5442493    0.74430825237435
 p    1 1.00
             0.1687144                   1
 d    1 1.00
                   0.8                   1

40 0
 s    6 1.00
             3047.5249  0.0018347001629433
             457.36951    0.01403730124668
             103.94869   0.068842606114048
             29.210155    0.23218442062076
              9.286663    0.46794134155879
              3.163927    0.36231203217765
 s    3 1.00
             7.8682724   -0.11933240861517
             1.8812885   -0.16085421161283
             0.5442493     1.1434564825515
 s    1 1.00
             0.1687144                   1
 p    3 1.00
             7.8682724   0.068999095584993
             1.8812885    0.31642397975315
             0.5442493    0.74430825237435
 p    1 1.00
             0.1687144                   1
 d    1 1.00
                   0.8                   1

41 0
 s    3 1.00
             18.731137    0.03349459952309
             2.8253937    0.23472694665786
             0.6401217    0.81375731841339
 s    1 1.00
             0.1612778                   1

42 0
 s    6 1.00
             5484.6717   0.001831099805527
             825.23495   0.013950098518422
             188.04696    0.06844509273075
               52.9645    0.23271427528445
              16.89757    0.47019295006289
             5.7996353    0.35852086192309
 s    3 1.00
             15.539616   -0.11077750382508
             3.5999336   -0.14802630511126
             1.0137618     1.1307670390447
 s    1 1.00
             0.2700058                   1
 p    3 1.00
             15.539616   0.070874299543311
             3.5999336    0.33975279781076
             1.0137618    0.72715859531445
 p    1 1.00
             0.2700058                   1
 d    1 1.00
                   0.8                   1

43 0
 s    3 1.00
             18.731137    0.03349459952309
             2.8253937    0.23472694665786
             0.6401217    0.81375731841339
 s    1 1.00
             0.1612778                   1

[5d]
[7f]
[9g]

[MO]
 Sym= A
 Ene=               0
 Spin= Alpha
 Occup=    1.00000
   1    1.617444963863e-06
   2    1.6661434463047e-05
   3    4.0852414197813e-05
   4    4.5457908766848e-06
   5    6.8062755587256e-06
   6    -1.3483754806404e-05
   7    -4.5563666679606e-05
   8    -0.00013110726563336
   9    0.00039254746858218
  10    1.7251714139506e-07
  11    -1.1306022955098e-05
  12    -1.2441815926943e-06
  13    -1.4837960704324e-05
  14    8.3885126671486e-06
  15    1.5051630737998e-05
  16    -1.3103340914273e-05
  17    -7.4659790737567e-06
  18    -0.00017103825800216
  19    -0.00046308574160801
  20    -5.9962751288938e-05
  21    6.7466749598169e-06
  22    7.4533704808577e-05
  23    -0.0002071027765882
  24    0.00011835901766241
  25    0.00061178212152847
  26    -2.3004764622921e-05
  27    2.5706970465526e-05
  28    -1.4408634471722e-05
  29    -4.4330957738354e-05
  30    -2.0910589525436e-06
  31    1.1639107993036e-05
  32    -3.8769038094984e-05
  33    -5.5292698155836e-05
  34    -0.00037159088084379
  35    0.0046506681539863
  36    0.00010157212471557
  37    -1.9237007983293e-05
  38    -0.00015322611739493
  39    0.00069036795545963
  40    -0.0020166538171339
  41    -0.00044307031398074
  42    1.6168521929851e-05
  43    -0.00011853244567852
  44    6.1755509928329e-05
  45    -2.0934720304331e-05
  46    -7.0037456319604e-05
  47    1.9478222741083e-05
  48     0.000295725730757
  49    -4.9391540389045e-06
  50    -0.00012657246068423
  51    -0.0037481700262491
  52    -0.00021208186354746
  53    0.00023637224382111
  54    0.0002373026476681
  55    0.0020734525470044
  56    -0.0026971078280038
  57    -0.0022147953449364
  58    3.8939627408858e-05
  59    -3.2313396581801e-05
  60    -0.00020146727280957
  61    -3.7828951804749e-05
  62    0.00012565760739162
  63    -0.00030791824712103
  64    -8.6361615620095e-05
  65    2.2276987258438e-07
  66    3.1792216904163e-07
  67    4.3870152405143e-08
  68    6.1312586875287e-07
  69    -2.9716917801561e-06
  70    -2.4123794677372e-07
  71    3.5634358584607e-07
  72    -1.5385004322341e-07
  73    -2.8318090901928e-07
  74    -1.7839042310298e-06
  75    -1.353903890416e-08
  76    6.3157200114767e-08
  77    1.3206010033192e-07
  78    -4.9350029327483e-08
  79    -7.22039862186e-08
  80    1.1605870679197e-07
  81    -1.0301443868061e-07
  82    -2.1785660057471e-07
  83    -1.8938521309094e-08
  84    2.6752451821378e-07
  85    1.5084949180097e-05
  86    -7.2356477262384e-07
  87    -2.93215266434e-08
  88    -9.8653731441183e-07
  89    -3.5828112444987e-06
  90    5.0315141665724e-06
  91    -3.8057885812936e-06
  92    -1.9004538375443e-07
  93    3.0044365264678e-07
  94    -3.8472588272809e-07
  95    -5.8062373043193e-08
  96    1.7833204953585e-07
  97    -7.1809634179095e-07
  98    -8.79594499322e-07
  99    -4.8094439695257e-09
 100    1.1260630943095e-06
 101    5.0037071234188e-08
 102    8.1908967815521e-07
 103    -1.311796763301e-05
 104    -2.9871426416124e-07
 105    1.0370912638917e-06
 106    7.0649133515697e-07
 107    2.080201670752e-05
 108    -1.9381257355459e-05
 109    -3.4902437300574e-05
 110    6.4962992541539e-07
 111    6.1621841682068e-07
 112    -2.5982930046929e-07
 113    -3.1703862246483e-07
 114    5.5279038139122e-07
 115    5.2428067422467e-07
 116    4.7852761136378e-06
 117    -3.9653926989788e-05
 118    7.3404894631686e-07
 119    -1.0577307462953e-06
 120    -9.4893275035583e-07
 121    9.4769417857171e-06
 122    -1.6765844874549e-06
 123    -3.4343813414562e-06
 124    1.0202237795101e-07
 125    2.8269896406698e-07
 126    1.120791637475e-07
 127    -1.4877002663099e-07
 128    4.1586842163136e-07
 129    1.0537220675716e-06
 130    9.4509219804698e-06
 131    -5.8120426388958e-05
 132    -1.6989803616967e-07
 133    1.0094445791235e-07
 134    -3.7113232177496e-06
 135    2.5231376493864e-05
 136    6.0566917498919e-07
 137    9.1155584994397e-05
 138    -2.7408446008615e-06
 139    -1.766639786057e-06
 140    -2.3764933745253e-07
 141    -4.6401445449644e-07
 142    -3.718206911283e-08
 143    4.9631680238446e-07
 144    4.5841514861784e-06
 145    -2.3907925955936e-05
 146    -2.1748336729603e-07
 147    -4.6062422603924e-07
 148    -4.1541517882737e-07
 149    -1.4092589046277e-05
 150    6.7578360877513e-06
 151    3.8548049673894e-06
 152    1.0676129704442e-06
 153    4.3526679794157e-07
 154    1.2645133543928e-07
 155    -7.9074883133201e-07
 156    8.528407960545e-07
 157    -1.1550936362343e-07
 158    -9.2327802056909e-07
 159    -2.2890293800783e-07
 160    -7.4006601521839e-07
 161    6.9871743380058e-08
 162    1.3338425308042e-07
 163    7.0451887718292e-06
 164    -3.9021401116496e-07
 165    -8.995149114634e-07
 166    -5.1925220489337e-07
 167    2.2351844063801e-07
 168    -2.5375613027255e-08
 169    1.2246469471621e-07
 170    -3.4030286495284e-07
 171    -2.4586313154344e-08
 172    4.5541518162931e-07
 173    1.3879816957846e-06
 174    6.636135205182e-07
 175    1.803449072079e-07
 176    -8.0237075849468e-07
 177    4.3963266061023e-07
 178    -1.9593961606282e-06
 179    1.7721563699981e-06
 180    -1.4621449620935e-07
 181    -2.2629518953091e-07
 182    -5.3126669533518e-08
 183    4.1923502245352e-07
 184    -1.9297570557803e-07
 185    3.1497560618575e-07
 186    3.2439347263212e-06
 187    -1.7980037663442e-06
 188    2.2436146834465e-07
 189    -1.4885665915691e-07
 190    -1.2927478466584e-06
 191    -2.370557154517e-06
 192    -7.9167790698465e-07
 193    5.7353120356826e-06
 194    -3.0906353989946e-07
 195    4.7644614483493e-08
 196    -2.1768710060926e-07
 197    -1.0844045283496e-07
 198    1.0430228399264e-07
 199    7.6788244223993e-07
 200    1.2373789544676e-06
 201    -5.8062092375695e-08
 202    -3.5889924026245e-06
 203    1.764295564428e-06
 204    1.8023362145475e-06
 205    3.4766876960475e-07
 206    2.5773466456787e-06
 207    -1.0805544757089e-06
 208    1.1619152111772e-05
 209    -1.2201620470982e-06
 210    4.7362047781204e-06
 211    -5.6442203806384e-07
 212    -3.092690869861e-06
 213    2.5460866691557e-07
 214    2.3087655453365e-06
 215    4.9838662023376e-07
 216    -6.6833535489759e-07
 217    -2.7381505916749e-07
 218    -7.8510834364796e-07
 219    -3.1264487687953e-07
 220    -1.2334208182287e-06
 221    7.7094670870778e-07
 222    8.4918123985696e-06
 223    1.2822646210441e-05
 224    -5.7207596344931e-07
 225    1.1284741863987e-06
 226    -4.1143286235557e-06
 227    -9.8582760778552e-06
 228    -2.9647152735501e-05
 229    0.00010473462925211
 230    1.2561959566936e-06
 231    4.5053784281791e-06
 232    2.0251337095909e-06
 233    -1.9944400946382e-06
 234    -2.9752696298574e-06
 235    1.080047919866e-06
 236    1.1389143894232e-05
 237    -2.3405096835646e-05
 238    8.3028596528605e-07
 239    -3.1968006865759e-06
 240    -4.5895558576485e-06
 241    2.4417091268279e-05
 242    8.1811387148986e-06
 243    9.1191352970482e-05
 244    -1.3715580552101e-06
 245    -7.19891901922e-06
 246    -1.8021369279935e-06
 247    -2.8512691087055e-06
 248    -1.282921397759e-06
 249    4.7491624097768e-06
 250    -1.1320925157741e-05
 251    4.3559649009005e-06
 252    3.5596313010386e-05
 253    -0.00029238587062103
 254    -2.3765686220779e-06
 255    9.6214167230076e-06
 256    -8.2227756179279e-06
 257    -0.0001240157804816
 258    -0.00010208922816977
 259    0.00026802098393569
 260    -2.9131734986593e-06
 261    1.3351493003128e-05
 262    5.4781364694197e-06
 263    -8.7270559758705e-06
 264    -5.3219641961677e-06
 265    4.3908690722678e-06
 266    -3.0240380290953e-05
 267    9.182539201389e-06
 268    -3.9982032708667e-05
 269    5.5110127681115e-05
 270    0.00014007167487948
 271    -0.0032863654673432
 272    -3.7191243002635e-05
 273    0.00019719310978018
 274    -3.8668731308525e-06
 275    -0.0022879688044533
 276    -0.0006256007937037
 277    0.0034856477098635
 278    -0.00020299924840706
 279    0.00023763721550346