[Molden Format]
made by pyscf v[2.0.1]
[Atoms] (AU)
C   1   6     0.69100024066471     0.64692934207205    -3.48223131169301
H   2   1     2.68052439830868     1.13355088658700    -3.25784032593313
C   3   6    -0.36286361513219     0.85440132524594    -5.97030179418974
H   4   1    -2.35448549047279     0.36322488579172    -6.17995817793143
C   5   6     0.93697958957450     1.61209284601821    -8.05828437677121
H   6   1     1.03927160684768     3.62047501567417    -8.50199621914587
C   7   6     2.20035018302409    -0.10258413888539    -9.73758817852609
H   8   1     2.08224949102462    -2.10886499715255    -9.26789512642378
H   9   1     1.55630230933075    -1.92953025305990    12.99630010416247
C   10   6     0.75233899775814    -2.21270439606481    11.10705728102219
H   11   1    -0.43433408177274    -3.90944857546550    11.22216085340412
C   12   6     2.86362581178706    -2.63237380607947     9.17926416456045
H   13   1     4.39038949912609    -1.24955421540245     9.49899813497433
H   14   1     3.74629220191363    -4.48798724300892     9.47414880959024
C   15   6     2.02478325613682    -2.42177285709634     6.44560829588644
C   16   6     3.88048732735477    -3.58795445234514     4.61402886975252
C   17   6    -0.18412382258602    -1.30464291234259     5.76021113872346
C   18   6    -2.10044360464350    -0.26837831858460     7.71610340967100
C   19   6    -3.08956938670431     2.35282328359417     6.88693925039594
C   20   6    -4.37372924086464    -2.09766595989678     7.93610724222001
C   21   6    -0.83850430601230     0.06372213486173    10.33002307638377
H   22   1     0.38411922151109     1.74281358582432    10.27380136542181
H   23   1    -2.30980003007874     0.45460143924521    11.73986301809809
H   24   1     4.58527064644668    -5.38706904487420     5.36778158031719
H   25   1     5.54944938085014    -2.37631462192748     4.35398898413318
H   26   1     3.06633019150423    -3.94118377050688     2.75255466040884
H   27   1    -4.17727778763735     2.26573369139522     5.12914900961283
H   28   1    -1.52662344944051     3.68001877445626     6.59540397144508
H   29   1    -4.32916174397830     3.13643051467482     8.35225460090378
H   30   1    -5.32329548508442    -2.36691813602939     6.11583672749896
H   31   1    -5.77989366602257    -1.33896741843465     9.25748940450990
H   32   1    -3.79310905208926    -3.96389819310853     8.61386170102686
C   33   6    -1.01100794811226    -1.06331657314144     3.11929490449947
C   34   6     0.37686231036534    -0.33275864505552     1.09165013605873
H   35   1    -3.01671213906703    -1.40297922279997     2.77827895090944
C   36   6    -0.64382707979370    -0.11591880174385    -1.42063131251064
H   37   1     2.35569259782137     0.17174499283897     1.33641070251401
H   38   1    -2.63317482980319    -0.60229203511219    -1.66119700387645
C   39   6     3.51308281939799     0.56451683374771   -11.83721740116087
C   40   6     4.73454985947753    -1.32827425009098   -13.42856361339847
H   41   1     3.70368628307445     2.52946227119814   -12.41204614817202
O   42   8     5.94050384923934    -0.86285538356078   -15.33903067176323
H   43   1     4.49094488416901    -3.31470750932465   -12.76908014850535
[GTO]
1 0
 s    6 1.00
             3047.5249  0.0018347001629433
             457.36951    0.01403730124668
             103.94869   0.068842606114048
             29.210155    0.23218442062076
              9.286663    0.46794134155879
              3.163927    0.36231203217765
 s    3 1.00
             7.8682724   -0.11933240861517
             1.8812885   -0.16085421161283
             0.5442493     1.1434564825515
 s    1 1.00
             0.1687144                   1
 p    3 1.00
             7.8682724   0.068999095584993
             1.8812885    0.31642397975315
             0.5442493    0.74430825237435
 p    1 1.00
             0.1687144                   1
 d    1 1.00
                   0.8                   1

2 0
 s    3 1.00
             18.731137    0.03349459952309
             2.8253937    0.23472694665786
             0.6401217    0.81375731841339
 s    1 1.00
             0.1612778                   1

3 0
 s    6 1.00
             3047.5249  0.0018347001629433
             457.36951    0.01403730124668
             103.94869   0.068842606114048
             29.210155    0.23218442062076
              9.286663    0.46794134155879
              3.163927    0.36231203217765
 s    3 1.00
             7.8682724   -0.11933240861517
             1.8812885   -0.16085421161283
             0.5442493     1.1434564825515
 s    1 1.00
             0.1687144                   1
 p    3 1.00
             7.8682724   0.068999095584993
             1.8812885    0.31642397975315
             0.5442493    0.74430825237435
 p    1 1.00
             0.1687144                   1
 d    1 1.00
                   0.8                   1

4 0
 s    3 1.00
             18.731137    0.03349459952309
             2.8253937    0.23472694665786
             0.6401217    0.81375731841339
 s    1 1.00
             0.1612778                   1

5 0
 s    6 1.00
             3047.5249  0.0018347001629433
             457.36951    0.01403730124668
             103.94869   0.068842606114048
             29.210155    0.23218442062076
              9.286663    0.46794134155879
              3.163927    0.36231203217765
 s    3 1.00
             7.8682724   -0.11933240861517
             1.8812885   -0.16085421161283
             0.5442493     1.1434564825515
 s    1 1.00
             0.1687144                   1
 p    3 1.00
             7.8682724   0.068999095584993
             1.8812885    0.31642397975315
             0.5442493    0.74430825237435
 p    1 1.00
             0.1687144                   1
 d    1 1.00
                   0.8                   1

6 0
 s    3 1.00
             18.731137    0.03349459952309
             2.8253937    0.23472694665786
             0.6401217    0.81375731841339
 s    1 1.00
             0.1612778                   1

7 0
 s    6 1.00
             3047.5249  0.0018347001629433
             457.36951    0.01403730124668
             103.94869   0.068842606114048
             29.210155    0.23218442062076
              9.286663    0.46794134155879
              3.163927    0.36231203217765
 s    3 1.00
             7.8682724   -0.11933240861517
             1.8812885   -0.16085421161283
             0.5442493     1.1434564825515
 s    1 1.00
             0.1687144                   1
 p    3 1.00
             7.8682724   0.068999095584993
             1.8812885    0.31642397975315
             0.5442493    0.74430825237435
 p    1 1.00
             0.1687144                   1
 d    1 1.00
                   0.8                   1

8 0
 s    3 1.00
             18.731137    0.03349459952309
             2.8253937    0.23472694665786
             0.6401217    0.81375731841339
 s    1 1.00
             0.1612778                   1

9 0
 s    3 1.00
             18.731137    0.03349459952309
             2.8253937    0.23472694665786
             0.6401217    0.81375731841339
 s    1 1.00
             0.1612778                   1

10 0
 s    6 1.00
             3047.5249  0.0018347001629433
             457.36951    0.01403730124668
             103.94869   0.068842606114048
             29.210155    0.23218442062076
              9.286663    0.46794134155879
              3.163927    0.36231203217765
 s    3 1.00
             7.8682724   -0.11933240861517
             1.8812885   -0.16085421161283
             0.5442493     1.1434564825515
 s    1 1.00
             0.1687144                   1
 p    3 1.00
             7.8682724   0.068999095584993
             1.8812885    0.31642397975315
             0.5442493    0.74430825237435
 p    1 1.00
             0.1687144                   1
 d    1 1.00
                   0.8                   1

11 0
 s    3 1.00
             18.731137    0.03349459952309
             2.8253937    0.23472694665786
             0.6401217    0.81375731841339
 s    1 1.00
             0.1612778                   1

12 0
 s    6 1.00
             3047.5249  0.0018347001629433
             457.36951    0.01403730124668
             103.94869   0.068842606114048
             29.210155    0.23218442062076
              9.286663    0.46794134155879
              3.163927    0.36231203217765
 s    3 1.00
             7.8682724   -0.11933240861517
             1.8812885   -0.16085421161283
             0.5442493     1.1434564825515
 s    1 1.00
             0.1687144                   1
 p    3 1.00
             7.8682724   0.068999095584993
             1.8812885    0.31642397975315
             0.5442493    0.74430825237435
 p    1 1.00
             0.1687144                   1
 d    1 1.00
                   0.8                   1

13 0
 s    3 1.00
             18.731137    0.03349459952309
             2.8253937    0.23472694665786
             0.6401217    0.81375731841339
 s    1 1.00
             0.1612778                   1

14 0
 s    3 1.00
             18.731137    0.03349459952309
             2.8253937    0.23472694665786
             0.6401217    0.81375731841339
 s    1 1.00
             0.1612778                   1

15 0
 s    6 1.00
             3047.5249  0.0018347001629433
             457.36951    0.01403730124668
             103.94869   0.068842606114048
             29.210155    0.23218442062076
              9.286663    0.46794134155879
              3.163927    0.36231203217765
 s    3 1.00
             7.8682724   -0.11933240861517
             1.8812885   -0.16085421161283
             0.5442493     1.1434564825515
 s    1 1.00
             0.1687144                   1
 p    3 1.00
             7.8682724   0.068999095584993
             1.8812885    0.31642397975315
             0.5442493    0.74430825237435
 p    1 1.00
             0.1687144                   1
 d    1 1.00
                   0.8                   1

16 0
 s    6 1.00
             3047.5249  0.0018347001629433
             457.36951    0.01403730124668
             103.94869   0.068842606114048
             29.210155    0.23218442062076
              9.286663    0.46794134155879
              3.163927    0.36231203217765
 s    3 1.00
             7.8682724   -0.11933240861517
             1.8812885   -0.16085421161283
             0.5442493     1.1434564825515
 s    1 1.00
             0.1687144                   1
 p    3 1.00
             7.8682724   0.068999095584993
             1.8812885    0.31642397975315
             0.5442493    0.74430825237435
 p    1 1.00
             0.1687144                   1
 d    1 1.00
                   0.8                   1

17 0
 s    6 1.00
             3047.5249  0.0018347001629433
             457.36951    0.01403730124668
             103.94869   0.068842606114048
             29.210155    0.23218442062076
              9.286663    0.46794134155879
              3.163927    0.36231203217765
 s    3 1.00
             7.8682724   -0.11933240861517
             1.8812885   -0.16085421161283
             0.5442493     1.1434564825515
 s    1 1.00
             0.1687144                   1
 p    3 1.00
             7.8682724   0.068999095584993
             1.8812885    0.31642397975315
             0.5442493    0.74430825237435
 p    1 1.00
             0.1687144                   1
 d    1 1.00
                   0.8                   1

18 0
 s    6 1.00
             3047.5249  0.0018347001629433
             457.36951    0.01403730124668
             103.94869   0.068842606114048
             29.210155    0.23218442062076
              9.286663    0.46794134155879
              3.163927    0.36231203217765
 s    3 1.00
             7.8682724   -0.11933240861517
             1.8812885   -0.16085421161283
             0.5442493     1.1434564825515
 s    1 1.00
             0.1687144                   1
 p    3 1.00
             7.8682724   0.068999095584993
             1.8812885    0.31642397975315
             0.5442493    0.74430825237435
 p    1 1.00
             0.1687144                   1
 d    1 1.00
                   0.8                   1

19 0
 s    6 1.00
             3047.5249  0.0018347001629433
             457.36951    0.01403730124668
             103.94869   0.068842606114048
             29.210155    0.23218442062076
              9.286663    0.46794134155879
              3.163927    0.36231203217765
 s    3 1.00
             7.8682724   -0.11933240861517
             1.8812885   -0.16085421161283
             0.5442493     1.1434564825515
 s    1 1.00
             0.1687144                   1
 p    3 1.00
             7.8682724   0.068999095584993
             1.8812885    0.31642397975315
             0.5442493    0.74430825237435
 p    1 1.00
             0.1687144                   1
 d    1 1.00
                   0.8                   1

20 0
 s    6 1.00
             3047.5249  0.0018347001629433
             457.36951    0.01403730124668
             103.94869   0.068842606114048
             29.210155    0.23218442062076
              9.286663    0.46794134155879
              3.163927    0.36231203217765
 s    3 1.00
             7.8682724   -0.11933240861517
             1.8812885   -0.16085421161283
             0.5442493     1.1434564825515
 s    1 1.00
             0.1687144                   1
 p    3 1.00
             7.8682724   0.068999095584993
             1.8812885    0.31642397975315
             0.5442493    0.74430825237435
 p    1 1.00
             0.1687144                   1
 d    1 1.00
                   0.8                   1

21 0
 s    6 1.00
             3047.5249  0.0018347001629433
             457.36951    0.01403730124668
             103.94869   0.068842606114048
             29.210155    0.23218442062076
              9.286663    0.46794134155879
              3.163927    0.36231203217765
 s    3 1.00
             7.8682724   -0.11933240861517
             1.8812885   -0.16085421161283
             0.5442493     1.1434564825515
 s    1 1.00
             0.1687144                   1
 p    3 1.00
             7.8682724   0.068999095584993
             1.8812885    0.31642397975315
             0.5442493    0.74430825237435
 p    1 1.00
             0.1687144                   1
 d    1 1.00
                   0.8                   1

22 0
 s    3 1.00
             18.731137    0.03349459952309
             2.8253937    0.23472694665786
             0.6401217    0.81375731841339
 s    1 1.00
             0.1612778                   1

23 0
 s    3 1.00
             18.731137    0.03349459952309
             2.8253937    0.23472694665786
             0.6401217    0.81375731841339
 s    1 1.00
             0.1612778                   1

24 0
 s    3 1.00
             18.731137    0.03349459952309
             2.8253937    0.23472694665786
             0.6401217    0.81375731841339
 s    1 1.00
             0.1612778                   1

25 0
 s    3 1.00
             18.731137    0.03349459952309
             2.8253937    0.23472694665786
             0.6401217    0.81375731841339
 s    1 1.00
             0.1612778                   1

26 0
 s    3 1.00
             18.731137    0.03349459952309
             2.8253937    0.23472694665786
             0.6401217    0.81375731841339
 s    1 1.00
             0.1612778                   1

27 0
 s    3 1.00
             18.731137    0.03349459952309
             2.8253937    0.23472694665786
             0.6401217    0.81375731841339
 s    1 1.00
             0.1612778                   1

28 0
 s    3 1.00
             18.731137    0.03349459952309
             2.8253937    0.23472694665786
             0.6401217    0.81375731841339
 s    1 1.00
             0.1612778                   1

29 0
 s    3 1.00
             18.731137    0.03349459952309
             2.8253937    0.23472694665786
             0.6401217    0.81375731841339
 s    1 1.00
             0.1612778                   1

30 0
 s    3 1.00
             18.731137    0.03349459952309
             2.8253937    0.23472694665786
             0.6401217    0.81375731841339
 s    1 1.00
             0.1612778                   1

31 0
 s    3 1.00
             18.731137    0.03349459952309
             2.8253937    0.23472694665786
             0.6401217    0.81375731841339
 s    1 1.00
             0.1612778                   1

32 0
 s    3 1.00
             18.731137    0.03349459952309
             2.8253937    0.23472694665786
             0.6401217    0.81375731841339
 s    1 1.00
             0.1612778                   1

33 0
 s    6 1.00
             3047.5249  0.0018347001629433
             457.36951    0.01403730124668
             103.94869   0.068842606114048
             29.210155    0.23218442062076
              9.286663    0.46794134155879
              3.163927    0.36231203217765
 s    3 1.00
             7.8682724   -0.11933240861517
             1.8812885   -0.16085421161283
             0.5442493     1.1434564825515
 s    1 1.00
             0.1687144                   1
 p    3 1.00
             7.8682724   0.068999095584993
             1.8812885    0.31642397975315
             0.5442493    0.74430825237435
 p    1 1.00
             0.1687144                   1
 d    1 1.00
                   0.8                   1

34 0
 s    6 1.00
             3047.5249  0.0018347001629433
             457.36951    0.01403730124668
             103.94869   0.068842606114048
             29.210155    0.23218442062076
              9.286663    0.46794134155879
              3.163927    0.36231203217765
 s    3 1.00
             7.8682724   -0.11933240861517
             1.8812885   -0.16085421161283
             0.5442493     1.1434564825515
 s    1 1.00
             0.1687144                   1
 p    3 1.00
             7.8682724   0.068999095584993
             1.8812885    0.31642397975315
             0.5442493    0.74430825237435
 p    1 1.00
             0.1687144                   1
 d    1 1.00
                   0.8                   1

35 0
 s    3 1.00
             18.731137    0.03349459952309
             2.8253937    0.23472694665786
             0.6401217    0.81375731841339
 s    1 1.00
             0.1612778                   1

36 0
 s    6 1.00
             3047.5249  0.0018347001629433
             457.36951    0.01403730124668
             103.94869   0.068842606114048
             29.210155    0.23218442062076
              9.286663    0.46794134155879
              3.163927    0.36231203217765
 s    3 1.00
             7.8682724   -0.11933240861517
             1.8812885   -0.16085421161283
             0.5442493     1.1434564825515
 s    1 1.00
             0.1687144                   1
 p    3 1.00
             7.8682724   0.068999095584993
             1.8812885    0.31642397975315
             0.5442493    0.74430825237435
 p    1 1.00
             0.1687144                   1
 d    1 1.00
                   0.8                   1

37 0
 s    3 1.00
             18.731137    0.03349459952309
             2.8253937    0.23472694665786
             0.6401217    0.81375731841339
 s    1 1.00
             0.1612778                   1

38 0
 s    3 1.00
             18.731137    0.03349459952309
             2.8253937    0.23472694665786
             0.6401217    0.81375731841339
 s    1 1.00
             0.1612778                   1

39 0
 s    6 1.00
             3047.5249  0.0018347001629433
             457.36951    0.01403730124668
             103.94869   0.068842606114048
             29.210155    0.23218442062076
              9.286663    0.46794134155879
              3.163927    0.36231203217765
 s    3 1.00
             7.8682724   -0.11933240861517
             1.8812885   -0.16085421161283
             0.5442493     1.1434564825515
 s    1 1.00
             0.1687144                   1
 p    3 1.00
             7.8682724   0.068999095584993
             1.8812885    0.31642397975315
             0.5442493    0.74430825237435
 p    1 1.00
             0.1687144                   1
 d    1 1.00
                   0.8                   1

40 0
 s    6 1.00
             3047.5249  0.0018347001629433
             457.36951    0.01403730124668
             103.94869   0.068842606114048
             29.210155    0.23218442062076
              9.286663    0.46794134155879
              3.163927    0.36231203217765
 s    3 1.00
             7.8682724   -0.11933240861517
             1.8812885   -0.16085421161283
             0.5442493     1.1434564825515
 s    1 1.00
             0.1687144                   1
 p    3 1.00
             7.8682724   0.068999095584993
             1.8812885    0.31642397975315
             0.5442493    0.74430825237435
 p    1 1.00
             0.1687144                   1
 d    1 1.00
                   0.8                   1

41 0
 s    3 1.00
             18.731137    0.03349459952309
             2.8253937    0.23472694665786
             0.6401217    0.81375731841339
 s    1 1.00
             0.1612778                   1

42 0
 s    6 1.00
             5484.6717   0.001831099805527
             825.23495   0.013950098518422
             188.04696    0.06844509273075
               52.9645    0.23271427528445
              16.89757    0.47019295006289
             5.7996353    0.35852086192309
 s    3 1.00
             15.539616   -0.11077750382508
             3.5999336   -0.14802630511126
             1.0137618     1.1307670390447
 s    1 1.00
             0.2700058                   1
 p    3 1.00
             15.539616   0.070874299543311
             3.5999336    0.33975279781076
             1.0137618    0.72715859531445
 p    1 1.00
             0.2700058                   1
 d    1 1.00
                   0.8                   1

43 0
 s    3 1.00
             18.731137    0.03349459952309
             2.8253937    0.23472694665786
             0.6401217    0.81375731841339
 s    1 1.00
             0.1612778                   1

[5d]
[7f]
[9g]

[MO]
 Sym= A
 Ene=               0
 Spin= Alpha
 Occup=    1.00000
   1    -1.9182042019155e-06
   2    -2.0384548188756e-05
   3    9.080035187052e-06
   4    -5.5578593292071e-06
   5    -1.5104572801572e-06
   6    1.4390031323853e-05
   7    2.8410074219612e-05
   8    0.00010607584901502
   9    -0.00039912325872335
  10    9.2864503358538e-08
  11    1.2067394292027e-05
  12    2.2391817081528e-06
  13    1.4901743167272e-05
  14    -8.2758396435669e-06
  15    -1.5273585395571e-05
  16    1.8000074086749e-05
  17    7.705940483074e-06
  18    0.00017293506668333
  19    0.00045027763134519
  20    5.8415471936698e-05
  21    -9.0263213282324e-06
  22    -7.5297935810437e-05
  23    0.00017945664794473
  24    -0.00010459771400041
  25    -0.00065101299571891
  26    2.3229286225851e-05
  27    -2.517910904681e-05
  28    1.1559522404403e-05
  29    4.5196023959737e-05
  30    -2.6777755753334e-06
  31    -1.1647323340652e-05
  32    3.2101228343421e-05
  33    5.5231111950547e-05
  34    0.00037085083118466
  35    -0.0046576844043421
  36    -9.6574929136755e-05
  37    2.0318824977805e-05
  38     0.000156342342989
  39    -0.00052392922091336
  40    0.0020331989381764
  41    0.00054411700851531
  42    -2.5899476841464e-05
  43    0.00011529994909398
  44    -7.1565138923091e-05
  45    3.002001722076e-05
  46    5.8460997797242e-05
  47    -1.8578090491888e-05
  48    -0.00029376433308286
  49    5.0199082077851e-06
  50    0.0001266899865116
  51    0.0037407257322841
  52    0.00018855104610067
  53    -0.00023975411798139
  54    -0.00025365850259923
  55    -0.0018196321881339
  56    0.0027304827755752
  57    0.0023836762298318
  58    -2.5289768493851e-05
  59    3.9103012061327e-05
  60    0.00020297269461978
  61    2.9779598466219e-05
  62    -0.00012700371013561
  63    0.00030777109703085
  64    8.5881832077635e-05
  65    -2.3760306105908e-07
  66    -3.2616287014963e-07
  67    -4.5065576774127e-08
  68    -6.1295238871318e-07
  69    3.0617791913837e-06
  70    2.5331385498792e-07
  71    -3.6208492596755e-07
  72    1.3181659372242e-07
  73    2.8194074160535e-07
  74    1.7984982429951e-06
  75    7.3105602838732e-08
  76    -5.7941098639776e-08
  77    -1.303190568466e-07
  78    5.2787016736797e-08
  79    7.8420971507894e-08
  80    -1.1073236039022e-07
  81    9.7002203427545e-08
  82    2.2224181622998e-07
  83    2.4432581394678e-08
  84    -1.9271933852784e-07
  85    -1.4337981016687e-05
  86    6.7440745893072e-07
  87    6.9271952876165e-08
  88    9.5539882406834e-07
  89    3.6085956418649e-06
  90    -5.1569876445874e-06
  91    3.4577224106135e-06
  92    1.8391726532502e-07
  93    -2.9936396126322e-07
  94    3.7886413433886e-07
  95    4.2466166494808e-08
  96    -1.6948042526509e-07
  97    7.1118481066668e-07
  98    9.2110472983415e-07
  99    -3.3151708480465e-08
 100    -1.1850146283761e-06
 101    -7.6041080287036e-08
 102    -9.9892884394221e-07
 103    1.5450191737652e-05
 104    2.161490152093e-07
 105    -1.0052585915894e-06
 106    -6.6008920197281e-07
 107    -2.0815397226686e-05
 108    1.9081176489049e-05
 109    3.2361029848929e-05
 110    -6.2732556897788e-07
 111    -5.6913644621467e-07
 112    2.453340107634e-07
 113    3.8171720322601e-07
 114    -5.4989873648343e-07
 115    -5.1810609027211e-07
 116    -4.7767544729869e-06
 117    3.8778231949689e-05
 118    -7.1035718309113e-07
 119    1.0924332226141e-06
 120    9.1010782122367e-07
 121    -8.8258168143626e-06
 122    9.7026125789788e-07
 123    2.8002083119593e-06
 124    -7.6675499980397e-08
 125    -2.3956703226738e-07
 126    -1.4690799289751e-07
 127    1.0107327217102e-07
 128    -3.8086644919964e-07
 129    -1.0147035275428e-06
 130    -9.2822641760363e-06
 131    5.4032738523395e-05
 132    2.1073510442145e-07
 133    -3.1257071504457e-07
 134    3.7010954734032e-06
 135    -2.6618599509485e-05
 136    1.2018944240245e-06
 137    -8.6103808589978e-05
 138    2.6270111170644e-06
 139    1.6525973887606e-06
 140    2.6906181613289e-07
 141    4.4141118346656e-07
 142    9.0672150574378e-08
 143    -4.3275560605817e-07
 144    -4.0544120386092e-06
 145    2.0287310099966e-05
 146    2.6274196278112e-07
 147    5.5860395647971e-07
 148     4.25322342054e-07
 149    1.2388944489468e-05
 150    -7.0064931942495e-06
 151    -3.0472663160809e-06
 152    -1.0758940350505e-06
 153    -3.9774243244312e-07
 154    -1.243499067575e-07
 155    7.6378846278849e-07
 156    -7.8181355466252e-07
 157    1.0926948265924e-07
 158    9.0218384450035e-07
 159    7.4758117414255e-07
 160    7.6250647208902e-07
 161    -1.1170265114746e-07
 162    -8.1950634612649e-08
 163    -6.6274519181926e-06
 164    1.5994902313691e-07
 165    8.778725430959e-07
 166    4.7416447072426e-07
 167    -1.7058342061613e-07
 168    1.4663240428648e-08
 169    -1.1871203060322e-07
 170    3.0469658514946e-07
 171    2.7631824282887e-08
 172    -4.321673904906e-07
 173    -1.7499735227219e-06
 174    -6.8623863318169e-07
 175    -1.6597930148658e-07
 176    8.1336446834219e-07
 177    -3.7021300908187e-07
 178    1.7169751048101e-06
 179    -1.900389925624e-06
 180    1.5423915004812e-07
 181    2.2958395687489e-07
 182    2.5082120137943e-08
 183    -4.0499751470051e-07
 184    1.9200819953333e-07
 185    -3.1646563105775e-07
 186    -3.2178418462565e-06
 187    2.369685262367e-06
 188    -2.4508092503149e-07
 189    1.4064253431559e-07
 190    1.2174713516084e-06
 191    2.4037838765683e-06
 192    9.1530385257886e-07
 193    -6.0045882352481e-06
 194    3.4416616561269e-07
 195    -3.899635191911e-08
 196    1.8770162561758e-07
 197    8.6176148196193e-08
 198    -9.4478566559507e-08
 199    -7.9456752613637e-07
 200    -1.3226480612186e-06
 201    6.4432881890781e-08
 202    3.5149863083032e-06
 203    -1.7878990063222e-06
 204    -2.0120619947744e-06
 205    -3.3443580764889e-07
 206    -2.5240653514936e-06
 207    1.3254841633608e-06
 208    -1.271403866202e-05
 209    1.1618214415042e-06
 210    -4.526754564329e-06
 211    5.0436099257413e-07
 212    3.0168531458639e-06
 213    -2.3231702152673e-07
 214    -2.2809336193033e-06
 215    -5.2961199512776e-07
 216    7.1734392042905e-07
 217    3.0768406761643e-07
 218    8.7482509038077e-07
 219    2.8599253084562e-07
 220    1.1887740538946e-06
 221    -8.1271916170871e-07
 222    -8.7857171106044e-06
 223    -5.5948898798048e-06
 224    3.6357391804059e-07
 225    -7.2853329045527e-07
 226    3.8461543334431e-06
 227    1.356452171184e-05
 228    2.8858574629419e-05
 229    -0.00010140371362584
 230    -1.1648964197773e-06
 231    -4.3516196387708e-06
 232    -2.1171719347017e-06
 233    1.9501826910292e-06
 234    2.997169378008e-06
 235    -1.1668139705005e-06
 236    -1.2036191676643e-05
 237    2.4722147105946e-05
 238    -1.0128998762029e-06
 239    3.0645603553086e-06
 240    4.6626862691381e-06
 241    -2.182219677424e-05
 242    -8.6377743001809e-06
 243    -9.6838828599724e-05
 244    1.7551055096241e-06
 245    7.2537225852041e-06
 246    2.1754016941017e-06
 247    2.7756467334184e-06
 248    1.6444435005327e-06
 249    -4.3173483707756e-06
 250    1.1575477475016e-05
 251    -4.1326652802262e-06
 252    -3.4000392517777e-05
 253    0.0002659595932246
 254    2.7494629575877e-06
 255    -1.0997052454921e-05
 256     8.23111308735e-06
 257    0.00011562403405735
 258    0.00010806594048028
 259    -0.00025533279986622
 260    2.1986680189834e-06
 261    -1.2868191668727e-05
 262    -5.9656862983334e-06
 263    8.0420321148365e-06
 264    6.2669146289702e-06
 265    -4.8416970719552e-06
 266    2.9665450267548e-05
 267    -9.0033291746994e-06
 268    4.111781349593e-05
 269    -5.5133812786234e-05
 270    -0.00014012273311704
 271      0.00328845086937
 272    2.3357769372829e-05
 273    -0.00019928027669559
 274    -5.2824564958059e-06
 275    0.0022403086037747
 276    0.00061942987029545
 277    -0.0035173287039846
 278    0.00022630586446773
 279    -0.00022521758665769
 280    0.00016690448888044