[Molden Format]
made by pyscf v[2.0.1]
[Atoms] (AU)
C   1   6     0.69100024066471     0.64692934207205    -3.48223131169301
H   2   1     2.68052439830868     1.13355088658700    -3.25784032593313
C   3   6    -0.36286361513219     0.85440132524594    -5.97030179418974
H   4   1    -2.35448549047279     0.36322488579172    -6.17995817793143
C   5   6     0.93697958957450     1.61209284601821    -8.05828437677121
H   6   1     1.06549067678056     3.62267689696451    -8.48487489511106
C   7   6     2.16736557798100    -0.10534186648568    -9.75912299477448
H   8   1     2.02320928491733    -2.11383137749881    -9.30645195914250
H   9   1     1.55630230933075    -1.92953025305990    12.99630010416247
C   10   6     0.75233899775814    -2.21270439606481    11.10705728102219
H   11   1    -0.43433408177274    -3.90944857546550    11.22216085340412
C   12   6     2.86362581178706    -2.63237380607947     9.17926416456045
H   13   1     4.39038949912609    -1.24955421540245     9.49899813497433
H   14   1     3.74629220191363    -4.48798724300892     9.47414880959024
C   15   6     2.02478325613682    -2.42177285709634     6.44560829588644
C   16   6     3.88048732735477    -3.58795445234514     4.61402886975252
C   17   6    -0.18412382258602    -1.30464291234259     5.76021113872346
C   18   6    -2.10044360464350    -0.26837831858460     7.71610340967100
C   19   6    -3.08956938670431     2.35282328359417     6.88693925039594
C   20   6    -4.37372924086464    -2.09766595989678     7.93610724222001
C   21   6    -0.83850430601230     0.06372213486173    10.33002307638377
H   22   1     0.38411922151109     1.74281358582432    10.27380136542181
H   23   1    -2.30980003007874     0.45460143924521    11.73986301809809
H   24   1     4.58527064644668    -5.38706904487420     5.36778158031719
H   25   1     5.54944938085014    -2.37631462192748     4.35398898413318
H   26   1     3.06633019150423    -3.94118377050688     2.75255466040884
H   27   1    -4.17727778763735     2.26573369139522     5.12914900961283
H   28   1    -1.52662344944051     3.68001877445626     6.59540397144508
H   29   1    -4.32916174397830     3.13643051467482     8.35225460090378
H   30   1    -5.32329548508442    -2.36691813602939     6.11583672749896
H   31   1    -5.77989366602257    -1.33896741843465     9.25748940450990
H   32   1    -3.79310905208926    -3.96389819310853     8.61386170102686
C   33   6    -1.01100794811226    -1.06331657314144     3.11929490449947
C   34   6     0.37686231036534    -0.33275864505552     1.09165013605873
H   35   1    -3.01671213906703    -1.40297922279997     2.77827895090944
C   36   6    -0.64382707979370    -0.11591880174385    -1.42063131251064
H   37   1     2.35569259782137     0.17174499283897     1.33641070251401
H   38   1    -2.63317482980319    -0.60229203511219    -1.66119700387645
C   39   6     3.47875288242203     0.56169257871714   -11.85961387583028
C   40   6     4.66516051155728    -1.33401759756945   -13.47384510134906
H   41   1     3.69428385946791     2.52875803282145   -12.41815504578381
O   42   8     5.86788117255002    -0.86880199432758   -15.38639878207248
H   43   1     4.39675898316744    -3.32256790318547   -12.83056660829343
[GTO]
1 0
 s    6 1.00
             3047.5249  0.0018347001629433
             457.36951    0.01403730124668
             103.94869   0.068842606114048
             29.210155    0.23218442062076
              9.286663    0.46794134155879
              3.163927    0.36231203217765
 s    3 1.00
             7.8682724   -0.11933240861517
             1.8812885   -0.16085421161283
             0.5442493     1.1434564825515
 s    1 1.00
             0.1687144                   1
 p    3 1.00
             7.8682724   0.068999095584993
             1.8812885    0.31642397975315
             0.5442493    0.74430825237435
 p    1 1.00
             0.1687144                   1
 d    1 1.00
                   0.8                   1

2 0
 s    3 1.00
             18.731137    0.03349459952309
             2.8253937    0.23472694665786
             0.6401217    0.81375731841339
 s    1 1.00
             0.1612778                   1

3 0
 s    6 1.00
             3047.5249  0.0018347001629433
             457.36951    0.01403730124668
             103.94869   0.068842606114048
             29.210155    0.23218442062076
              9.286663    0.46794134155879
              3.163927    0.36231203217765
 s    3 1.00
             7.8682724   -0.11933240861517
             1.8812885   -0.16085421161283
             0.5442493     1.1434564825515
 s    1 1.00
             0.1687144                   1
 p    3 1.00
             7.8682724   0.068999095584993
             1.8812885    0.31642397975315
             0.5442493    0.74430825237435
 p    1 1.00
             0.1687144                   1
 d    1 1.00
                   0.8                   1

4 0
 s    3 1.00
             18.731137    0.03349459952309
             2.8253937    0.23472694665786
             0.6401217    0.81375731841339
 s    1 1.00
             0.1612778                   1

5 0
 s    6 1.00
             3047.5249  0.0018347001629433
             457.36951    0.01403730124668
             103.94869   0.068842606114048
             29.210155    0.23218442062076
              9.286663    0.46794134155879
              3.163927    0.36231203217765
 s    3 1.00
             7.8682724   -0.11933240861517
             1.8812885   -0.16085421161283
             0.5442493     1.1434564825515
 s    1 1.00
             0.1687144                   1
 p    3 1.00
             7.8682724   0.068999095584993
             1.8812885    0.31642397975315
             0.5442493    0.74430825237435
 p    1 1.00
             0.1687144                   1
 d    1 1.00
                   0.8                   1

6 0
 s    3 1.00
             18.731137    0.03349459952309
             2.8253937    0.23472694665786
             0.6401217    0.81375731841339
 s    1 1.00
             0.1612778                   1

7 0
 s    6 1.00
             3047.5249  0.0018347001629433
             457.36951    0.01403730124668
             103.94869   0.068842606114048
             29.210155    0.23218442062076
              9.286663    0.46794134155879
              3.163927    0.36231203217765
 s    3 1.00
             7.8682724   -0.11933240861517
             1.8812885   -0.16085421161283
             0.5442493     1.1434564825515
 s    1 1.00
             0.1687144                   1
 p    3 1.00
             7.8682724   0.068999095584993
             1.8812885    0.31642397975315
             0.5442493    0.74430825237435
 p    1 1.00
             0.1687144                   1
 d    1 1.00
                   0.8                   1

8 0
 s    3 1.00
             18.731137    0.03349459952309
             2.8253937    0.23472694665786
             0.6401217    0.81375731841339
 s    1 1.00
             0.1612778                   1

9 0
 s    3 1.00
             18.731137    0.03349459952309
             2.8253937    0.23472694665786
             0.6401217    0.81375731841339
 s    1 1.00
             0.1612778                   1

10 0
 s    6 1.00
             3047.5249  0.0018347001629433
             457.36951    0.01403730124668
             103.94869   0.068842606114048
             29.210155    0.23218442062076
              9.286663    0.46794134155879
              3.163927    0.36231203217765
 s    3 1.00
             7.8682724   -0.11933240861517
             1.8812885   -0.16085421161283
             0.5442493     1.1434564825515
 s    1 1.00
             0.1687144                   1
 p    3 1.00
             7.8682724   0.068999095584993
             1.8812885    0.31642397975315
             0.5442493    0.74430825237435
 p    1 1.00
             0.1687144                   1
 d    1 1.00
                   0.8                   1

11 0
 s    3 1.00
             18.731137    0.03349459952309
             2.8253937    0.23472694665786
             0.6401217    0.81375731841339
 s    1 1.00
             0.1612778                   1

12 0
 s    6 1.00
             3047.5249  0.0018347001629433
             457.36951    0.01403730124668
             103.94869   0.068842606114048
             29.210155    0.23218442062076
              9.286663    0.46794134155879
              3.163927    0.36231203217765
 s    3 1.00
             7.8682724   -0.11933240861517
             1.8812885   -0.16085421161283
             0.5442493     1.1434564825515
 s    1 1.00
             0.1687144                   1
 p    3 1.00
             7.8682724   0.068999095584993
             1.8812885    0.31642397975315
             0.5442493    0.74430825237435
 p    1 1.00
             0.1687144                   1
 d    1 1.00
                   0.8                   1

13 0
 s    3 1.00
             18.731137    0.03349459952309
             2.8253937    0.23472694665786
             0.6401217    0.81375731841339
 s    1 1.00
             0.1612778                   1

14 0
 s    3 1.00
             18.731137    0.03349459952309
             2.8253937    0.23472694665786
             0.6401217    0.81375731841339
 s    1 1.00
             0.1612778                   1

15 0
 s    6 1.00
             3047.5249  0.0018347001629433
             457.36951    0.01403730124668
             103.94869   0.068842606114048
             29.210155    0.23218442062076
              9.286663    0.46794134155879
              3.163927    0.36231203217765
 s    3 1.00
             7.8682724   -0.11933240861517
             1.8812885   -0.16085421161283
             0.5442493     1.1434564825515
 s    1 1.00
             0.1687144                   1
 p    3 1.00
             7.8682724   0.068999095584993
             1.8812885    0.31642397975315
             0.5442493    0.74430825237435
 p    1 1.00
             0.1687144                   1
 d    1 1.00
                   0.8                   1

16 0
 s    6 1.00
             3047.5249  0.0018347001629433
             457.36951    0.01403730124668
             103.94869   0.068842606114048
             29.210155    0.23218442062076
              9.286663    0.46794134155879
              3.163927    0.36231203217765
 s    3 1.00
             7.8682724   -0.11933240861517
             1.8812885   -0.16085421161283
             0.5442493     1.1434564825515
 s    1 1.00
             0.1687144                   1
 p    3 1.00
             7.8682724   0.068999095584993
             1.8812885    0.31642397975315
             0.5442493    0.74430825237435
 p    1 1.00
             0.1687144                   1
 d    1 1.00
                   0.8                   1

17 0
 s    6 1.00
             3047.5249  0.0018347001629433
             457.36951    0.01403730124668
             103.94869   0.068842606114048
             29.210155    0.23218442062076
              9.286663    0.46794134155879
              3.163927    0.36231203217765
 s    3 1.00
             7.8682724   -0.11933240861517
             1.8812885   -0.16085421161283
             0.5442493     1.1434564825515
 s    1 1.00
             0.1687144                   1
 p    3 1.00
             7.8682724   0.068999095584993
             1.8812885    0.31642397975315
             0.5442493    0.74430825237435
 p    1 1.00
             0.1687144                   1
 d    1 1.00
                   0.8                   1

18 0
 s    6 1.00
             3047.5249  0.0018347001629433
             457.36951    0.01403730124668
             103.94869   0.068842606114048
             29.210155    0.23218442062076
              9.286663    0.46794134155879
              3.163927    0.36231203217765
 s    3 1.00
             7.8682724   -0.11933240861517
             1.8812885   -0.16085421161283
             0.5442493     1.1434564825515
 s    1 1.00
             0.1687144                   1
 p    3 1.00
             7.8682724   0.068999095584993
             1.8812885    0.31642397975315
             0.5442493    0.74430825237435
 p    1 1.00
             0.1687144                   1
 d    1 1.00
                   0.8                   1

19 0
 s    6 1.00
             3047.5249  0.0018347001629433
             457.36951    0.01403730124668
             103.94869   0.068842606114048
             29.210155    0.23218442062076
              9.286663    0.46794134155879
              3.163927    0.36231203217765
 s    3 1.00
             7.8682724   -0.11933240861517
             1.8812885   -0.16085421161283
             0.5442493     1.1434564825515
 s    1 1.00
             0.1687144                   1
 p    3 1.00
             7.8682724   0.068999095584993
             1.8812885    0.31642397975315
             0.5442493    0.74430825237435
 p    1 1.00
             0.1687144                   1
 d    1 1.00
                   0.8                   1

20 0
 s    6 1.00
             3047.5249  0.0018347001629433
             457.36951    0.01403730124668
             103.94869   0.068842606114048
             29.210155    0.23218442062076
              9.286663    0.46794134155879
              3.163927    0.36231203217765
 s    3 1.00
             7.8682724   -0.11933240861517
             1.8812885   -0.16085421161283
             0.5442493     1.1434564825515
 s    1 1.00
             0.1687144                   1
 p    3 1.00
             7.8682724   0.068999095584993
             1.8812885    0.31642397975315
             0.5442493    0.74430825237435
 p    1 1.00
             0.1687144                   1
 d    1 1.00
                   0.8                   1

21 0
 s    6 1.00
             3047.5249  0.0018347001629433
             457.36951    0.01403730124668
             103.94869   0.068842606114048
             29.210155    0.23218442062076
              9.286663    0.46794134155879
              3.163927    0.36231203217765
 s    3 1.00
             7.8682724   -0.11933240861517
             1.8812885   -0.16085421161283
             0.5442493     1.1434564825515
 s    1 1.00
             0.1687144                   1
 p    3 1.00
             7.8682724   0.068999095584993
             1.8812885    0.31642397975315
             0.5442493    0.74430825237435
 p    1 1.00
             0.1687144                   1
 d    1 1.00
                   0.8                   1

22 0
 s    3 1.00
             18.731137    0.03349459952309
             2.8253937    0.23472694665786
             0.6401217    0.81375731841339
 s    1 1.00
             0.1612778                   1

23 0
 s    3 1.00
             18.731137    0.03349459952309
             2.8253937    0.23472694665786
             0.6401217    0.81375731841339
 s    1 1.00
             0.1612778                   1

24 0
 s    3 1.00
             18.731137    0.03349459952309
             2.8253937    0.23472694665786
             0.6401217    0.81375731841339
 s    1 1.00
             0.1612778                   1

25 0
 s    3 1.00
             18.731137    0.03349459952309
             2.8253937    0.23472694665786
             0.6401217    0.81375731841339
 s    1 1.00
             0.1612778                   1

26 0
 s    3 1.00
             18.731137    0.03349459952309
             2.8253937    0.23472694665786
             0.6401217    0.81375731841339
 s    1 1.00
             0.1612778                   1

27 0
 s    3 1.00
             18.731137    0.03349459952309
             2.8253937    0.23472694665786
             0.6401217    0.81375731841339
 s    1 1.00
             0.1612778                   1

28 0
 s    3 1.00
             18.731137    0.03349459952309
             2.8253937    0.23472694665786
             0.6401217    0.81375731841339
 s    1 1.00
             0.1612778                   1

29 0
 s    3 1.00
             18.731137    0.03349459952309
             2.8253937    0.23472694665786
             0.6401217    0.81375731841339
 s    1 1.00
             0.1612778                   1

30 0
 s    3 1.00
             18.731137    0.03349459952309
             2.8253937    0.23472694665786
             0.6401217    0.81375731841339
 s    1 1.00
             0.1612778                   1

31 0
 s    3 1.00
             18.731137    0.03349459952309
             2.8253937    0.23472694665786
             0.6401217    0.81375731841339
 s    1 1.00
             0.1612778                   1

32 0
 s    3 1.00
             18.731137    0.03349459952309
             2.8253937    0.23472694665786
             0.6401217    0.81375731841339
 s    1 1.00
             0.1612778                   1

33 0
 s    6 1.00
             3047.5249  0.0018347001629433
             457.36951    0.01403730124668
             103.94869   0.068842606114048
             29.210155    0.23218442062076
              9.286663    0.46794134155879
              3.163927    0.36231203217765
 s    3 1.00
             7.8682724   -0.11933240861517
             1.8812885   -0.16085421161283
             0.5442493     1.1434564825515
 s    1 1.00
             0.1687144                   1
 p    3 1.00
             7.8682724   0.068999095584993
             1.8812885    0.31642397975315
             0.5442493    0.74430825237435
 p    1 1.00
             0.1687144                   1
 d    1 1.00
                   0.8                   1

34 0
 s    6 1.00
             3047.5249  0.0018347001629433
             457.36951    0.01403730124668
             103.94869   0.068842606114048
             29.210155    0.23218442062076
              9.286663    0.46794134155879
              3.163927    0.36231203217765
 s    3 1.00
             7.8682724   -0.11933240861517
             1.8812885   -0.16085421161283
             0.5442493     1.1434564825515
 s    1 1.00
             0.1687144                   1
 p    3 1.00
             7.8682724   0.068999095584993
             1.8812885    0.31642397975315
             0.5442493    0.74430825237435
 p    1 1.00
             0.1687144                   1
 d    1 1.00
                   0.8                   1

35 0
 s    3 1.00
             18.731137    0.03349459952309
             2.8253937    0.23472694665786
             0.6401217    0.81375731841339
 s    1 1.00
             0.1612778                   1

36 0
 s    6 1.00
             3047.5249  0.0018347001629433
             457.36951    0.01403730124668
             103.94869   0.068842606114048
             29.210155    0.23218442062076
              9.286663    0.46794134155879
              3.163927    0.36231203217765
 s    3 1.00
             7.8682724   -0.11933240861517
             1.8812885   -0.16085421161283
             0.5442493     1.1434564825515
 s    1 1.00
             0.1687144                   1
 p    3 1.00
             7.8682724   0.068999095584993
             1.8812885    0.31642397975315
             0.5442493    0.74430825237435
 p    1 1.00
             0.1687144                   1
 d    1 1.00
                   0.8                   1

37 0
 s    3 1.00
             18.731137    0.03349459952309
             2.8253937    0.23472694665786
             0.6401217    0.81375731841339
 s    1 1.00
             0.1612778                   1

38 0
 s    3 1.00
             18.731137    0.03349459952309
             2.8253937    0.23472694665786
             0.6401217    0.81375731841339
 s    1 1.00
             0.1612778                   1

39 0
 s    6 1.00
             3047.5249  0.0018347001629433
             457.36951    0.01403730124668
             103.94869   0.068842606114048
             29.210155    0.23218442062076
              9.286663    0.46794134155879
              3.163927    0.36231203217765
 s    3 1.00
             7.8682724   -0.11933240861517
             1.8812885   -0.16085421161283
             0.5442493     1.1434564825515
 s    1 1.00
             0.1687144                   1
 p    3 1.00
             7.8682724   0.068999095584993
             1.8812885    0.31642397975315
             0.5442493    0.74430825237435
 p    1 1.00
             0.1687144                   1
 d    1 1.00
                   0.8                   1

40 0
 s    6 1.00
             3047.5249  0.0018347001629433
             457.36951    0.01403730124668
             103.94869   0.068842606114048
             29.210155    0.23218442062076
              9.286663    0.46794134155879
              3.163927    0.36231203217765
 s    3 1.00
             7.8682724   -0.11933240861517
             1.8812885   -0.16085421161283
             0.5442493     1.1434564825515
 s    1 1.00
             0.1687144                   1
 p    3 1.00
             7.8682724   0.068999095584993
             1.8812885    0.31642397975315
             0.5442493    0.74430825237435
 p    1 1.00
             0.1687144                   1
 d    1 1.00
                   0.8                   1

41 0
 s    3 1.00
             18.731137    0.03349459952309
             2.8253937    0.23472694665786
             0.6401217    0.81375731841339
 s    1 1.00
             0.1612778                   1

42 0
 s    6 1.00
             5484.6717   0.001831099805527
             825.23495   0.013950098518422
             188.04696    0.06844509273075
               52.9645    0.23271427528445
              16.89757    0.47019295006289
             5.7996353    0.35852086192309
 s    3 1.00
             15.539616   -0.11077750382508
             3.5999336   -0.14802630511126
             1.0137618     1.1307670390447
 s    1 1.00
             0.2700058                   1
 p    3 1.00
             15.539616   0.070874299543311
             3.5999336    0.33975279781076
             1.0137618    0.72715859531445
 p    1 1.00
             0.2700058                   1
 d    1 1.00
                   0.8                   1

43 0
 s    3 1.00
             18.731137    0.03349459952309
             2.8253937    0.23472694665786
             0.6401217    0.81375731841339
 s    1 1.00
             0.1612778                   1

[5d]
[7f]
[9g]

[MO]
 Sym= A
 Ene=               0
 Spin= Alpha
 Occup=    1.00000
   1    1.9575373979623e-06
   2    2.0962688053427e-05
   3    -1.8007840803499e-05
   4    5.7123947014524e-06
   5    4.2769096656051e-07
   6    -1.4506388607924e-05
   7    -2.4795999559245e-05
   8    -0.00010056857569021
   9    0.00039778470007898
  10    -8.84048123601e-08
  11    -1.2142749320484e-05
  12    -2.4149321044494e-06
  13    -1.4873740865189e-05
  14    8.2357169228802e-06
  15    1.5208779513413e-05
  16    -1.8935082682654e-05
  17    -7.6961861155106e-06
  18    -0.00017272709904166
  19    -0.00045090119539061
  20    -5.8009280372923e-05
  21    9.4500823601182e-06
  22    7.5405824351786e-05
  23    -0.00017536430751122
  24    0.00010152277601265
  25    0.00065783221834113
  26    -2.3323840061382e-05
  27    2.5071920626562e-05
  28    -1.0948288561305e-05
  29    -4.5313660456269e-05
  30    3.6435418307457e-06
  31    1.1577717849766e-05
  32    -3.087880200516e-05
  33    -5.5204894577497e-05
  34    -0.00037046162290441
  35    0.0046591205301975
  36    9.5556639897175e-05
  37    -2.0485034304378e-05
  38    -0.00015683249313232
  39    0.00049030893268565
  40    -0.0020345939942726
  41    -0.00056358905556824
  42    2.7941061195439e-05
  43    -0.00011442749355683
  44    7.3409092267784e-05
  45    -3.1590775063207e-05
  46    -5.600340319029e-05
  47    1.8411819867595e-05
  48    0.00029350150726122
  49    -5.0372630507324e-06
  50    -0.00012673810327486
  51    -0.0037394947118927
  52    -0.00018373649358487
  53    0.00024014604287549
  54    0.00025683659575616
  55    0.0017678256873485
  56    -0.002734169513168
  57    -0.0024162405059494
  58    2.2587885774336e-05
  59    -4.0550848768036e-05
  60    -0.00020312688299227
  61    -2.8197249852775e-05
  62    0.00012716808234286
  63    -0.00030777018947284
  64    -8.5840059809884e-05
  65    2.3959700838015e-07
  66    3.2964163809191e-07
  67    4.5023705016851e-08
  68    6.0996740378588e-07
  69    -3.075015185213e-06
  70    -2.5384019845333e-07
  71    3.6080645569215e-07
  72    -1.2692909630785e-07
  73    -2.765696902823e-07
  74    -1.7956440246623e-06
  75    -8.7383859031564e-08
  76    5.7269203554309e-08
  77    1.2994086928572e-07
  78    -5.3138202731578e-08
  79    -7.9270400232261e-08
  80    1.0969754546754e-07
  81    -9.5217643635301e-08
  82    -2.2065075942632e-07
  83    -2.5033558432481e-08
  84     1.81178261032e-07
  85    1.4156104479456e-05
  86    -6.6331606546127e-07
  87    -7.6378002963317e-08
  88    -9.4668518199321e-07
  89    -3.5995248642334e-06
  90    5.1553480941988e-06
  91    -3.3859085356119e-06
  92    -1.824915087361e-07
  93    2.9783403963069e-07
  94    -3.7559443712548e-07
  95    -3.9995510070728e-08
  96    1.6743233329032e-07
  97    -7.0645401522805e-07
  98    -9.2587396923246e-07
  99    3.9608378284309e-08
 100    1.1906954140303e-06
 101    8.0023639747776e-08
 102    1.0274662936849e-06
 103    -1.5742263852994e-05
 104    -2.0112793281597e-07
 105    9.9810117080731e-07
 106    6.4673657920257e-07
 107    2.0727524236173e-05
 108    -1.8932033810778e-05
 109    -3.1827879678754e-05
 110    6.2262185935702e-07
 111    5.6112804490075e-07
 112    -2.4297594424813e-07
 113    -3.9435185662264e-07
 114    5.4580822746219e-07
 115    5.1642276718851e-07
 116    4.7711872048852e-06
 117    -3.8547599799739e-05
 118    7.041234209846e-07
 119    -1.0952284766303e-06
 120    -9.0266109909749e-07
 121    8.6896981147025e-06
 122    -8.4764080876333e-07
 123    -2.6497147735319e-06
 124    7.2622459887511e-08
 125    2.2984033276336e-07
 126    1.5219678327445e-07
 127    -9.1874396355324e-08
 128    3.7315762364281e-07
 129    1.0061548102882e-06
 130    9.2377538175091e-06
 131    -5.3101895039836e-05
 132    -2.0985303485387e-07
 133    3.5439892235872e-07
 134    -3.6969156702098e-06
 135    2.6660207896259e-05
 136    -1.532556422262e-06
 137    8.4947693766167e-05
 138    -2.5998843637006e-06
 139    -1.626142054405e-06
 140    -2.70312453644e-07
 141    -4.3655102932684e-07
 142    -9.7350264491371e-08
 143    4.1964922822593e-07
 144    3.9420129857402e-06
 145    -1.9614858068609e-05
 146    -2.7063245280673e-07
 147    -5.780574366499e-07
 148    -4.1818601191917e-07
 149    -1.2064393312071e-05
 150    7.1008759521292e-06
 151    2.8494379440232e-06
 152    1.0741445977148e-06
 153    3.8969645181644e-07
 154    1.2044950500521e-07
 155    -7.5754544949754e-07
 156    7.6526534812763e-07
 157    -1.0678397515928e-07
 158    -8.8711750347361e-07
 159    -9.0039598149028e-07
 160    -7.6458281600157e-07
 161    1.2086277942777e-07
 162    6.9896954792912e-08
 163    6.5180488604558e-06
 164    -9.360017894428e-08
 165    -8.6669866136896e-07
 166    -4.6283058005536e-07
 167    1.5956467880712e-07
 168    -1.2408085626629e-08
 169    1.1878643284942e-07
 170    -2.9619754438424e-07
 171    -2.8123593656333e-08
 172    4.2649934947362e-07
 173    1.8204883372384e-06
 174    6.8827936118892e-07
 175    1.6248820298765e-07
 176    -8.1093111387267e-07
 177    3.7850779870338e-07
 178    -1.6628155976852e-06
 179    1.9295991790967e-06
 180    -1.5598337844868e-07
 181    -2.2731964899635e-07
 182    -1.9552123972009e-08
 183    4.0284443576911e-07
 184    -1.8969238222713e-07
 185    3.1501998985531e-07
 186    3.1971895495503e-06
 187    -2.4231955573335e-06
 188    2.4677691590828e-07
 189    -1.3903849422608e-07
 190    -1.2012059033023e-06
 191    -2.4090738993884e-06
 192    -9.5349512798258e-07
 193    6.0212691242504e-06
 194    -3.4924254675273e-07
 195    3.8692599458084e-08
 196    -1.7915990702616e-07
 197    -8.2502783399718e-08
 198    9.3073657807189e-08
 199    7.9527895071445e-07
 200    1.3391694591967e-06
 201    -6.6307549285305e-08
 202    -3.492375640842e-06
 203    1.7878413913569e-06
 204    2.0406430482407e-06
 205    3.3529162805804e-07
 206    2.5081555106177e-06
 207    -1.3700473624542e-06
 208    1.2923574719809e-05
 209    -1.1442591110693e-06
 210    4.4801760382358e-06
 211    -4.8853352461998e-07
 212    -2.9913501148406e-06
 213    2.2844208349735e-07
 214    2.2647475802789e-06
 215    5.2952421394175e-07
 216    -6.9587585962553e-07
 217    -3.1204092887807e-07
 218    -8.8789741949553e-07
 219    -2.7938126475568e-07
 220    -1.1829042250254e-06
 221    8.1251231109057e-07
 222    8.7839219325778e-06
 223    4.6995246111321e-06
 224    -3.128705616407e-07
 225    6.4956576078551e-07
 226    -3.7902680809449e-06
 227    -1.4137566504664e-05
 228    -2.856421113631e-05
 229    0.00010014594835276
 230    1.1559788318062e-06
 231    4.2987427532974e-06
 232    2.1201660874288e-06
 233    -1.9317809016362e-06
 234    -2.9914330572153e-06
 235    1.192046945594e-06
 236    1.2195990973752e-05
 237    -2.6095862761226e-05
 238    1.0371598090752e-06
 239    -3.0472021352341e-06
 240    -4.6338525324653e-06
 241    2.1670507574959e-05
 242    8.8338564378873e-06
 243    9.7807991134778e-05
 244    -1.8547459083003e-06
 245    -7.2412013864544e-06
 246    -2.2343795317422e-06
 247    -2.7565511098702e-06
 248    -1.7167858920137e-06
 249    4.2117508189602e-06
 250    -1.1630330936142e-05
 251    4.0704640476795e-06
 252    3.3555084685633e-05
 253    -0.00025883330515906
 254    -2.8398575529613e-06
 255    1.1263334197623e-05
 256    -8.2629913499437e-06
 257    -0.00011304123767272
 258    -0.00010892446372354
 259    0.00025261087331864
 260    -2.0328646326181e-06
 261    1.2743256077769e-05
 262    6.0424814945455e-06
 263    -7.8826359615276e-06
 264    -6.4345432502698e-06
 265    4.899430956632e-06
 266    -2.9510620787981e-05
 267    8.9926331981442e-06
 268    -4.1114693806807e-05
 269    5.5130664652071e-05
 270    0.00014007350071772
 271    -0.0032882204765903
 272    -2.0549310266102e-05
 273    0.00019953410452826
 274    7.0971931856642e-06
 275    -0.0022308778099221
 276    -0.00061891569706874
 277    0.0035237220340891
 278    -0.00023082081382735
 279    0.00022272990591815