[Molden Format]
made by pyscf v[2.0.1]
[Atoms] (AU)
C   1   6     0.69100024066471     0.64692934207205    -3.48223131169301
H   2   1     2.68052439830868     1.13355088658700    -3.25784032593313
C   3   6    -0.36286361513219     0.85440132524594    -5.97030179418974
H   4   1    -2.35448549047279     0.36322488579172    -6.17995817793143
C   5   6     0.93697958957450     1.61209284601821    -8.05828437677121
H   6   1     2.68174994182533     2.67994959464420    -7.82079505522331
C   7   6     0.13444904340515     1.08121190669811   -10.59410649762000
H   8   1    -1.61655526267424     0.00863003830430   -10.80213119601662
H   9   1     1.55630230933075    -1.92953025305990    12.99630010416247
C   10   6     0.75233899775814    -2.21270439606481    11.10705728102219
H   11   1    -0.43433408177274    -3.90944857546550    11.22216085340412
C   12   6     2.86362581178706    -2.63237380607947     9.17926416456045
H   13   1     4.39038949912609    -1.24955421540245     9.49899813497433
H   14   1     3.74629220191363    -4.48798724300892     9.47414880959024
C   15   6     2.02478325613682    -2.42177285709634     6.44560829588644
C   16   6     3.88048732735477    -3.58795445234514     4.61402886975252
C   17   6    -0.18412382258602    -1.30464291234259     5.76021113872346
C   18   6    -2.10044360464350    -0.26837831858460     7.71610340967100
C   19   6    -3.08956938670431     2.35282328359417     6.88693925039594
C   20   6    -4.37372924086464    -2.09766595989678     7.93610724222001
C   21   6    -0.83850430601230     0.06372213486173    10.33002307638377
H   22   1     0.38411922151109     1.74281358582432    10.27380136542181
H   23   1    -2.30980003007874     0.45460143924521    11.73986301809809
H   24   1     4.58527064644668    -5.38706904487420     5.36778158031719
H   25   1     5.54944938085014    -2.37631462192748     4.35398898413318
H   26   1     3.06633019150423    -3.94118377050688     2.75255466040884
H   27   1    -4.17727778763735     2.26573369139522     5.12914900961283
H   28   1    -1.52662344944051     3.68001877445626     6.59540397144508
H   29   1    -4.32916174397830     3.13643051467482     8.35225460090378
H   30   1    -5.32329548508442    -2.36691813602939     6.11583672749896
H   31   1    -5.77989366602257    -1.33896741843465     9.25748940450990
H   32   1    -3.79310905208926    -3.96389819310853     8.61386170102686
C   33   6    -1.01100794811226    -1.06331657314144     3.11929490449947
C   34   6     0.37686231036534    -0.33275864505552     1.09165013605873
H   35   1    -3.01671213906703    -1.40297922279997     2.77827895090944
C   36   6    -0.64382707979370    -0.11591880174385    -1.42063131251064
H   37   1     2.35569259782137     0.17174499283897     1.33641070251401
H   38   1    -2.63317482980319    -0.60229203511219    -1.66119700387645
C   39   6     1.36441264344082     1.79875350819652   -12.72695837882209
C   40   6     0.39042169983249     1.16479015456541   -15.22824898409742
H   41   1     3.11744943935123     2.87075295695162   -12.65315109008398
O   42   8     1.39604269582139     1.74939992973347   -17.22017818748739
H   43   1    -1.40767336523230     0.06622817248511   -15.21429812709214
[GTO]
1 0
 s    6 1.00
             3047.5249  0.0018347001629433
             457.36951    0.01403730124668
             103.94869   0.068842606114048
             29.210155    0.23218442062076
              9.286663    0.46794134155879
              3.163927    0.36231203217765
 s    3 1.00
             7.8682724   -0.11933240861517
             1.8812885   -0.16085421161283
             0.5442493     1.1434564825515
 s    1 1.00
             0.1687144                   1
 p    3 1.00
             7.8682724   0.068999095584993
             1.8812885    0.31642397975315
             0.5442493    0.74430825237435
 p    1 1.00
             0.1687144                   1
 d    1 1.00
                   0.8                   1

2 0
 s    3 1.00
             18.731137    0.03349459952309
             2.8253937    0.23472694665786
             0.6401217    0.81375731841339
 s    1 1.00
             0.1612778                   1

3 0
 s    6 1.00
             3047.5249  0.0018347001629433
             457.36951    0.01403730124668
             103.94869   0.068842606114048
             29.210155    0.23218442062076
              9.286663    0.46794134155879
              3.163927    0.36231203217765
 s    3 1.00
             7.8682724   -0.11933240861517
             1.8812885   -0.16085421161283
             0.5442493     1.1434564825515
 s    1 1.00
             0.1687144                   1
 p    3 1.00
             7.8682724   0.068999095584993
             1.8812885    0.31642397975315
             0.5442493    0.74430825237435
 p    1 1.00
             0.1687144                   1
 d    1 1.00
                   0.8                   1

4 0
 s    3 1.00
             18.731137    0.03349459952309
             2.8253937    0.23472694665786
             0.6401217    0.81375731841339
 s    1 1.00
             0.1612778                   1

5 0
 s    6 1.00
             3047.5249  0.0018347001629433
             457.36951    0.01403730124668
             103.94869   0.068842606114048
             29.210155    0.23218442062076
              9.286663    0.46794134155879
              3.163927    0.36231203217765
 s    3 1.00
             7.8682724   -0.11933240861517
             1.8812885   -0.16085421161283
             0.5442493     1.1434564825515
 s    1 1.00
             0.1687144                   1
 p    3 1.00
             7.8682724   0.068999095584993
             1.8812885    0.31642397975315
             0.5442493    0.74430825237435
 p    1 1.00
             0.1687144                   1
 d    1 1.00
                   0.8                   1

6 0
 s    3 1.00
             18.731137    0.03349459952309
             2.8253937    0.23472694665786
             0.6401217    0.81375731841339
 s    1 1.00
             0.1612778                   1

7 0
 s    6 1.00
             3047.5249  0.0018347001629433
             457.36951    0.01403730124668
             103.94869   0.068842606114048
             29.210155    0.23218442062076
              9.286663    0.46794134155879
              3.163927    0.36231203217765
 s    3 1.00
             7.8682724   -0.11933240861517
             1.8812885   -0.16085421161283
             0.5442493     1.1434564825515
 s    1 1.00
             0.1687144                   1
 p    3 1.00
             7.8682724   0.068999095584993
             1.8812885    0.31642397975315
             0.5442493    0.74430825237435
 p    1 1.00
             0.1687144                   1
 d    1 1.00
                   0.8                   1

8 0
 s    3 1.00
             18.731137    0.03349459952309
             2.8253937    0.23472694665786
             0.6401217    0.81375731841339
 s    1 1.00
             0.1612778                   1

9 0
 s    3 1.00
             18.731137    0.03349459952309
             2.8253937    0.23472694665786
             0.6401217    0.81375731841339
 s    1 1.00
             0.1612778                   1

10 0
 s    6 1.00
             3047.5249  0.0018347001629433
             457.36951    0.01403730124668
             103.94869   0.068842606114048
             29.210155    0.23218442062076
              9.286663    0.46794134155879
              3.163927    0.36231203217765
 s    3 1.00
             7.8682724   -0.11933240861517
             1.8812885   -0.16085421161283
             0.5442493     1.1434564825515
 s    1 1.00
             0.1687144                   1
 p    3 1.00
             7.8682724   0.068999095584993
             1.8812885    0.31642397975315
             0.5442493    0.74430825237435
 p    1 1.00
             0.1687144                   1
 d    1 1.00
                   0.8                   1

11 0
 s    3 1.00
             18.731137    0.03349459952309
             2.8253937    0.23472694665786
             0.6401217    0.81375731841339
 s    1 1.00
             0.1612778                   1

12 0
 s    6 1.00
             3047.5249  0.0018347001629433
             457.36951    0.01403730124668
             103.94869   0.068842606114048
             29.210155    0.23218442062076
              9.286663    0.46794134155879
              3.163927    0.36231203217765
 s    3 1.00
             7.8682724   -0.11933240861517
             1.8812885   -0.16085421161283
             0.5442493     1.1434564825515
 s    1 1.00
             0.1687144                   1
 p    3 1.00
             7.8682724   0.068999095584993
             1.8812885    0.31642397975315
             0.5442493    0.74430825237435
 p    1 1.00
             0.1687144                   1
 d    1 1.00
                   0.8                   1

13 0
 s    3 1.00
             18.731137    0.03349459952309
             2.8253937    0.23472694665786
             0.6401217    0.81375731841339
 s    1 1.00
             0.1612778                   1

14 0
 s    3 1.00
             18.731137    0.03349459952309
             2.8253937    0.23472694665786
             0.6401217    0.81375731841339
 s    1 1.00
             0.1612778                   1

15 0
 s    6 1.00
             3047.5249  0.0018347001629433
             457.36951    0.01403730124668
             103.94869   0.068842606114048
             29.210155    0.23218442062076
              9.286663    0.46794134155879
              3.163927    0.36231203217765
 s    3 1.00
             7.8682724   -0.11933240861517
             1.8812885   -0.16085421161283
             0.5442493     1.1434564825515
 s    1 1.00
             0.1687144                   1
 p    3 1.00
             7.8682724   0.068999095584993
             1.8812885    0.31642397975315
             0.5442493    0.74430825237435
 p    1 1.00
             0.1687144                   1
 d    1 1.00
                   0.8                   1

16 0
 s    6 1.00
             3047.5249  0.0018347001629433
             457.36951    0.01403730124668
             103.94869   0.068842606114048
             29.210155    0.23218442062076
              9.286663    0.46794134155879
              3.163927    0.36231203217765
 s    3 1.00
             7.8682724   -0.11933240861517
             1.8812885   -0.16085421161283
             0.5442493     1.1434564825515
 s    1 1.00
             0.1687144                   1
 p    3 1.00
             7.8682724   0.068999095584993
             1.8812885    0.31642397975315
             0.5442493    0.74430825237435
 p    1 1.00
             0.1687144                   1
 d    1 1.00
                   0.8                   1

17 0
 s    6 1.00
             3047.5249  0.0018347001629433
             457.36951    0.01403730124668
             103.94869   0.068842606114048
             29.210155    0.23218442062076
              9.286663    0.46794134155879
              3.163927    0.36231203217765
 s    3 1.00
             7.8682724   -0.11933240861517
             1.8812885   -0.16085421161283
             0.5442493     1.1434564825515
 s    1 1.00
             0.1687144                   1
 p    3 1.00
             7.8682724   0.068999095584993
             1.8812885    0.31642397975315
             0.5442493    0.74430825237435
 p    1 1.00
             0.1687144                   1
 d    1 1.00
                   0.8                   1

18 0
 s    6 1.00
             3047.5249  0.0018347001629433
             457.36951    0.01403730124668
             103.94869   0.068842606114048
             29.210155    0.23218442062076
              9.286663    0.46794134155879
              3.163927    0.36231203217765
 s    3 1.00
             7.8682724   -0.11933240861517
             1.8812885   -0.16085421161283
             0.5442493     1.1434564825515
 s    1 1.00
             0.1687144                   1
 p    3 1.00
             7.8682724   0.068999095584993
             1.8812885    0.31642397975315
             0.5442493    0.74430825237435
 p    1 1.00
             0.1687144                   1
 d    1 1.00
                   0.8                   1

19 0
 s    6 1.00
             3047.5249  0.0018347001629433
             457.36951    0.01403730124668
             103.94869   0.068842606114048
             29.210155    0.23218442062076
              9.286663    0.46794134155879
              3.163927    0.36231203217765
 s    3 1.00
             7.8682724   -0.11933240861517
             1.8812885   -0.16085421161283
             0.5442493     1.1434564825515
 s    1 1.00
             0.1687144                   1
 p    3 1.00
             7.8682724   0.068999095584993
             1.8812885    0.31642397975315
             0.5442493    0.74430825237435
 p    1 1.00
             0.1687144                   1
 d    1 1.00
                   0.8                   1

20 0
 s    6 1.00
             3047.5249  0.0018347001629433
             457.36951    0.01403730124668
             103.94869   0.068842606114048
             29.210155    0.23218442062076
              9.286663    0.46794134155879
              3.163927    0.36231203217765
 s    3 1.00
             7.8682724   -0.11933240861517
             1.8812885   -0.16085421161283
             0.5442493     1.1434564825515
 s    1 1.00
             0.1687144                   1
 p    3 1.00
             7.8682724   0.068999095584993
             1.8812885    0.31642397975315
             0.5442493    0.74430825237435
 p    1 1.00
             0.1687144                   1
 d    1 1.00
                   0.8                   1

21 0
 s    6 1.00
             3047.5249  0.0018347001629433
             457.36951    0.01403730124668
             103.94869   0.068842606114048
             29.210155    0.23218442062076
              9.286663    0.46794134155879
              3.163927    0.36231203217765
 s    3 1.00
             7.8682724   -0.11933240861517
             1.8812885   -0.16085421161283
             0.5442493     1.1434564825515
 s    1 1.00
             0.1687144                   1
 p    3 1.00
             7.8682724   0.068999095584993
             1.8812885    0.31642397975315
             0.5442493    0.74430825237435
 p    1 1.00
             0.1687144                   1
 d    1 1.00
                   0.8                   1

22 0
 s    3 1.00
             18.731137    0.03349459952309
             2.8253937    0.23472694665786
             0.6401217    0.81375731841339
 s    1 1.00
             0.1612778                   1

23 0
 s    3 1.00
             18.731137    0.03349459952309
             2.8253937    0.23472694665786
             0.6401217    0.81375731841339
 s    1 1.00
             0.1612778                   1

24 0
 s    3 1.00
             18.731137    0.03349459952309
             2.8253937    0.23472694665786
             0.6401217    0.81375731841339
 s    1 1.00
             0.1612778                   1

25 0
 s    3 1.00
             18.731137    0.03349459952309
             2.8253937    0.23472694665786
             0.6401217    0.81375731841339
 s    1 1.00
             0.1612778                   1

26 0
 s    3 1.00
             18.731137    0.03349459952309
             2.8253937    0.23472694665786
             0.6401217    0.81375731841339
 s    1 1.00
             0.1612778                   1

27 0
 s    3 1.00
             18.731137    0.03349459952309
             2.8253937    0.23472694665786
             0.6401217    0.81375731841339
 s    1 1.00
             0.1612778                   1

28 0
 s    3 1.00
             18.731137    0.03349459952309
             2.8253937    0.23472694665786
             0.6401217    0.81375731841339
 s    1 1.00
             0.1612778                   1

29 0
 s    3 1.00
             18.731137    0.03349459952309
             2.8253937    0.23472694665786
             0.6401217    0.81375731841339
 s    1 1.00
             0.1612778                   1

30 0
 s    3 1.00
             18.731137    0.03349459952309
             2.8253937    0.23472694665786
             0.6401217    0.81375731841339
 s    1 1.00
             0.1612778                   1

31 0
 s    3 1.00
             18.731137    0.03349459952309
             2.8253937    0.23472694665786
             0.6401217    0.81375731841339
 s    1 1.00
             0.1612778                   1

32 0
 s    3 1.00
             18.731137    0.03349459952309
             2.8253937    0.23472694665786
             0.6401217    0.81375731841339
 s    1 1.00
             0.1612778                   1

33 0
 s    6 1.00
             3047.5249  0.0018347001629433
             457.36951    0.01403730124668
             103.94869   0.068842606114048
             29.210155    0.23218442062076
              9.286663    0.46794134155879
              3.163927    0.36231203217765
 s    3 1.00
             7.8682724   -0.11933240861517
             1.8812885   -0.16085421161283
             0.5442493     1.1434564825515
 s    1 1.00
             0.1687144                   1
 p    3 1.00
             7.8682724   0.068999095584993
             1.8812885    0.31642397975315
             0.5442493    0.74430825237435
 p    1 1.00
             0.1687144                   1
 d    1 1.00
                   0.8                   1

34 0
 s    6 1.00
             3047.5249  0.0018347001629433
             457.36951    0.01403730124668
             103.94869   0.068842606114048
             29.210155    0.23218442062076
              9.286663    0.46794134155879
              3.163927    0.36231203217765
 s    3 1.00
             7.8682724   -0.11933240861517
             1.8812885   -0.16085421161283
             0.5442493     1.1434564825515
 s    1 1.00
             0.1687144                   1
 p    3 1.00
             7.8682724   0.068999095584993
             1.8812885    0.31642397975315
             0.5442493    0.74430825237435
 p    1 1.00
             0.1687144                   1
 d    1 1.00
                   0.8                   1

35 0
 s    3 1.00
             18.731137    0.03349459952309
             2.8253937    0.23472694665786
             0.6401217    0.81375731841339
 s    1 1.00
             0.1612778                   1

36 0
 s    6 1.00
             3047.5249  0.0018347001629433
             457.36951    0.01403730124668
             103.94869   0.068842606114048
             29.210155    0.23218442062076
              9.286663    0.46794134155879
              3.163927    0.36231203217765
 s    3 1.00
             7.8682724   -0.11933240861517
             1.8812885   -0.16085421161283
             0.5442493     1.1434564825515
 s    1 1.00
             0.1687144                   1
 p    3 1.00
             7.8682724   0.068999095584993
             1.8812885    0.31642397975315
             0.5442493    0.74430825237435
 p    1 1.00
             0.1687144                   1
 d    1 1.00
                   0.8                   1

37 0
 s    3 1.00
             18.731137    0.03349459952309
             2.8253937    0.23472694665786
             0.6401217    0.81375731841339
 s    1 1.00
             0.1612778                   1

38 0
 s    3 1.00
             18.731137    0.03349459952309
             2.8253937    0.23472694665786
             0.6401217    0.81375731841339
 s    1 1.00
             0.1612778                   1

39 0
 s    6 1.00
             3047.5249  0.0018347001629433
             457.36951    0.01403730124668
             103.94869   0.068842606114048
             29.210155    0.23218442062076
              9.286663    0.46794134155879
              3.163927    0.36231203217765
 s    3 1.00
             7.8682724   -0.11933240861517
             1.8812885   -0.16085421161283
             0.5442493     1.1434564825515
 s    1 1.00
             0.1687144                   1
 p    3 1.00
             7.8682724   0.068999095584993
             1.8812885    0.31642397975315
             0.5442493    0.74430825237435
 p    1 1.00
             0.1687144                   1
 d    1 1.00
                   0.8                   1

40 0
 s    6 1.00
             3047.5249  0.0018347001629433
             457.36951    0.01403730124668
             103.94869   0.068842606114048
             29.210155    0.23218442062076
              9.286663    0.46794134155879
              3.163927    0.36231203217765
 s    3 1.00
             7.8682724   -0.11933240861517
             1.8812885   -0.16085421161283
             0.5442493     1.1434564825515
 s    1 1.00
             0.1687144                   1
 p    3 1.00
             7.8682724   0.068999095584993
             1.8812885    0.31642397975315
             0.5442493    0.74430825237435
 p    1 1.00
             0.1687144                   1
 d    1 1.00
                   0.8                   1

41 0
 s    3 1.00
             18.731137    0.03349459952309
             2.8253937    0.23472694665786
             0.6401217    0.81375731841339
 s    1 1.00
             0.1612778                   1

42 0
 s    6 1.00
             5484.6717   0.001831099805527
             825.23495   0.013950098518422
             188.04696    0.06844509273075
               52.9645    0.23271427528445
              16.89757    0.47019295006289
             5.7996353    0.35852086192309
 s    3 1.00
             15.539616   -0.11077750382508
             3.5999336   -0.14802630511126
             1.0137618     1.1307670390447
 s    1 1.00
             0.2700058                   1
 p    3 1.00
             15.539616   0.070874299543311
             3.5999336    0.33975279781076
             1.0137618    0.72715859531445
 p    1 1.00
             0.2700058                   1
 d    1 1.00
                   0.8                   1

43 0
 s    3 1.00
             18.731137    0.03349459952309
             2.8253937    0.23472694665786
             0.6401217    0.81375731841339
 s    1 1.00
             0.1612778                   1

[5d]
[7f]
[9g]

[MO]
 Sym= A
 Ene=               0
 Spin= Alpha
 Occup=    1.00000
   1    -6.3487944354118e-06
   2    -4.8104853464047e-05
   3    -9.9138491169378e-05
   4    -1.614353850998e-05
   5    -3.4032120697364e-05
   6    3.3104254157093e-05
   7    0.00026186610781298
   8    0.00030769860971226
   9    -0.00089726147049126
  10    2.1223536122695e-05
  11    3.2561860874828e-05
  12    8.8347684508322e-07
  13    4.7427058196548e-06
  14    -8.3469703232187e-07
  15    -4.9761137663191e-05
  16    -3.4623962147873e-05
  17    1.8425470248245e-05
  18    7.201937401909e-05
  19    -0.0021258287966055
  20    -1.7957468547586e-05
  21    2.9347215432952e-06
  22    6.8178819413943e-05
  23    -0.00043839852807868
  24    -0.0001868120633896
  25    0.00076689718701566
  26    -6.0259580348107e-05
  27    1.6895784332754e-05
  28    2.508054243833e-05
  29    -1.3897914891948e-05
  30    2.4804572302947e-05
  31    4.5701414676137e-06
  32    0.00010864983237929
  33    -6.3995409127722e-05
  34    -0.00039525119132382
  35    0.0057465615352592
  36    4.6571772034556e-05
  37    1.009944418394e-05
  38    -0.00012436399966926
  39    -0.0018353801852273
  40    -0.0010883261386032
  41    -0.0015064207040913
  42    0.00017301053188304
  43    4.0028100833261e-05
  44    3.5307266051572e-05
  45    2.2150571773346e-05
  46    5.0303687257726e-05
  47    4.7277559253822e-05
  48    0.00034599249341597
  49    2.9478247152993e-06
  50    -7.9448717677328e-05
  51    -0.004339700958923
  52    0.00010450057158931
  53    7.891700827813e-05
  54    0.00037035102579084
  55    -0.0014942674437853
  56    -0.0010216313655666
  57    -0.0040803894424787
  58    -0.00011665756166948
  59    -0.00017636013176392
  60    -0.00011259492376429
  61    5.3480281193676e-05
  62    9.3245112387772e-05
  63    -0.00030066456897459
  64    -0.00013037816773926
  65    -1.0030899666322e-07
  66    1.8572166926395e-06
  67    -1.2143094779747e-07
  68    -1.3315323034622e-06
  69    -3.4883545470725e-07
  70    7.7983834646435e-07
  71    -8.8497553738738e-07
  72    4.139437122796e-07
  73    2.028000126124e-06
  74    5.2694425486555e-07
  75    -2.6662841651244e-06
  76    2.3941436099982e-07
  77    7.6473079683383e-08
  78    1.4049232705384e-07
  79    1.0830733929806e-07
  80    8.1781730236264e-08
  81    1.1423284060416e-07
  82    6.5751794555499e-07
  83    2.6952372207581e-07
  84    1.8676682746665e-06
  85    -9.7825232449216e-06
  86    3.9675304407625e-07
  87    6.4771912307758e-08
  88    7.0300611285533e-07
  89    4.9683532117765e-06
  90    -8.1260234700714e-06
  91    3.7567683465224e-07
  92    -1.2072453434866e-07
  93    -4.6536583827344e-07
  94    8.8981486609303e-07
  95    -3.0912247148446e-07
  96    4.2494782297455e-13
  97    1.3114129423776e-06
  98    6.0071062490724e-07
  99    -3.0971985807585e-07
 100    -1.471385735979e-06
 101    -6.0699805488878e-07
 102    -2.4524911449324e-06
 103    7.9314294513672e-05
 104    -9.6434489773225e-07
 105    1.977694523374e-07
 106    -2.2647578246083e-06
 107    -3.2395311948656e-05
 108    3.307331703441e-05
 109    -4.9425914030748e-06
 110    6.9666380311126e-07
 111    1.1083877139569e-06
 112    -4.9051298498504e-07
 113    -5.3507756211465e-07
 114    -1.5747757790785e-06
 115    3.6099322512421e-07
 116    4.0821852809672e-06
 117    -7.2962085028245e-06
 118    -4.319674811589e-07
 119    1.6313935943966e-06
 120    -1.4167970370317e-06
 121    3.5737083705985e-06
 122    -1.076557601386e-05
 123    1.599685168599e-05
 124    5.1990983408614e-07
 125    -5.7281374928079e-07
 126    -6.4386280950572e-07
 127    -1.2684781960258e-07
 128    -1.783461707366e-07
 129    3.2228084823155e-07
 130    2.9998161820207e-06
 131    4.4910969618308e-05
 132    5.3159197259264e-06
 133    1.4604300611805e-06
 134    -3.6431356292258e-06
 135    -0.00010773337984874
 136    8.9451368116077e-06
 137    -3.1672767975083e-05
 138    1.0118004381752e-06
 139    9.2127647711926e-07
 140    2.4944758407224e-06
 141    -3.3690124908534e-07
 142    1.6703948220277e-06
 143    -1.5787615568929e-08
 144    -2.0118385251173e-06
 145    -3.3598573689825e-05
 146    -3.7776316127266e-07
 147    -1.2467144005117e-06
 148    4.7950474138147e-06
 149    -1.0731569418967e-05
 150    3.483405052773e-05
 151    -1.6293601711026e-05
 152    -9.1299614421778e-07
 153    1.8461122232946e-07
 154    -1.9370071449165e-06
 155    -1.2547903200897e-07
 156    -9.6830596692993e-07
 157    6.1260966166042e-07
 158    4.9062484915783e-06
 159    -2.95779222099e-05
 160    3.7723432802712e-07
 161    7.9127585984074e-07
 162    -9.5023799916862e-07
 163    -9.9910685355978e-06
 164    1.1398156497442e-05
 165    1.7471107703946e-06
 166    1.0173241936005e-06
 167    -3.052061227956e-07
 168    2.1002290535036e-07
 169    4.2539045605058e-07
 170    7.7053072277593e-07
 171    5.4017351333248e-08
 172    2.579677787894e-07
 173    3.643130840346e-06
 174    -1.3376888631554e-07
 175    -2.2009617017107e-07
 176    1.3794539851722e-06
 177    1.1312817483124e-05
 178    3.8965011870774e-06
 179    5.1241005872107e-06
 180    -3.1053721813996e-07
 181    1.3169612223489e-06
 182    1.8747752895127e-08
 183    6.9048445399379e-07
 184    9.9151795635709e-07
 185    -6.6408445592776e-07
 186    -5.6060994472077e-06
 187    2.6419090516139e-05
 188    -1.0751210997794e-06
 189    -7.3270413247002e-08
 190    -1.1834796201332e-07
 191    -4.1956492120904e-07
 192    -9.2551243724292e-06
 193    -1.2636560022916e-05
 194    5.3724455110731e-07
 195    7.4745668616927e-07
 196    1.4354867794869e-06
 197    -4.3790435115832e-07
 198    3.3400912818159e-07
 199    -1.6680577960379e-06
 200    1.4182141196688e-06
 201    -3.9689505341041e-07
 202    1.5037313681177e-06
 203    -9.0512816813609e-07
 204    -6.4097860855598e-06
 205    2.796046032576e-06
 206    6.9984952930155e-07
 207    -3.5574819969119e-07
 208    1.5690735852605e-05
 209    2.2036308150806e-06
 210    3.6408153524962e-08
 211    1.7971076696824e-06
 212    3.290667116156e-06
 213    4.9538809956096e-07
 214    -3.2027139126169e-06
 215    -2.5790616019974e-06
 216    1.6247539050166e-05
 217    6.993221709207e-07
 218    9.6607400345007e-08
 219    7.3159675689031e-07
 220    -2.1349162050424e-06
 221    -3.3704701012116e-06
 222    -2.091315331764e-05
 223    0.00023386856085539
 224    5.9429752484331e-06
 225    7.6280847882956e-08
 226    4.8507390962667e-07
 227    3.9267580380392e-05
 228    5.0005128595963e-05
 229    -0.00025639922332234
 230    5.4820227546213e-06
 231    -8.5394752013698e-06
 232    -5.924493954761e-06
 233    3.0345147720104e-06
 234    2.1985769980435e-06
 235    7.0502779660727e-06
 236    4.0428634282203e-05
 237    -0.00069349366133967
 238    -4.1299351361655e-06
 239    -6.1776734542589e-06
 240    1.7490202657471e-05
 241    0.0002166928566972
 242    5.4135123416167e-05
 243    9.9979866024377e-05
 244    -1.8916680062567e-05
 245    3.0772589416596e-06
 246    5.4068584667478e-06
 247    -1.3503088747642e-06
 248    -3.6222743134984e-06
 249    -1.029832802761e-05
 250    -1.8898447765981e-05
 251    -7.96858752217e-06
 252    -4.9388112867843e-05
 253    0.0010151398774667
 254    -1.2592436866111e-05
 255    1.174270445901e-05
 256    -3.1718942385054e-05
 257    0.00044915164099498
 258    5.5678034122906e-05
 259    9.3700257888497e-05
 260    1.8614170403642e-05
 261    -5.2549133245512e-06
 262    -5.778612253198e-06
 263    6.3689020322435e-06
 264    7.8409003219367e-07
 265    -7.9402832958077e-06
 266    -6.7817183582291e-06
 267    2.5309924212088e-05
 268    6.2172160777365e-05
 269    5.397140822167e-05
 270    0.00013402193508757
 271    -0.0032822137507152
 272    0.00015123447991953
 273    9.2260058448336e-05
 274    7.4422341878148e-05
 275    -0.0015988537969004
 276    -0.00090075574651411
 277     0.003915618858222
 278    -0.00038635034389501
 279    7.4099451545182e-05
 280    3.9580156786258e-05
 281    7.6646763257309e-05