[Molden Format]
made by pyscf v[2.0.1]
[Atoms] (AU)
C   1   6     0.69100024066471     0.64692934207205    -3.48223131169301
H   2   1     2.68052439830868     1.13355088658700    -3.25784032593313
C   3   6    -0.36286361513219     0.85440132524594    -5.97030179418974
H   4   1    -2.35448549047279     0.36322488579172    -6.17995817793143
C   5   6     0.93697958957450     1.61209284601821    -8.05828437677121
H   6   1     1.11826626333964     3.62551264984471    -8.45099117670825
C   7   6     2.10097243920823    -0.10888483292738    -9.80174075747215
H   8   1     1.90436861547379    -2.12023320363586    -9.38275759847606
H   9   1     1.55630230933075    -1.92953025305990    12.99630010416247
C   10   6     0.75233899775814    -2.21270439606481    11.10705728102219
H   11   1    -0.43433408177274    -3.90944857546550    11.22216085340412
C   12   6     2.86362581178706    -2.63237380607947     9.17926416456045
H   13   1     4.39038949912609    -1.24955421540245     9.49899813497433
H   14   1     3.74629220191363    -4.48798724300892     9.47414880959024
C   15   6     2.02478325613682    -2.42177285709634     6.44560829588644
C   16   6     3.88048732735477    -3.58795445234514     4.61402886975252
C   17   6    -0.18412382258602    -1.30464291234259     5.76021113872346
C   18   6    -2.10044360464350    -0.26837831858460     7.71610340967100
C   19   6    -3.08956938670431     2.35282328359417     6.88693925039594
C   20   6    -4.37372924086464    -2.09766595989678     7.93610724222001
C   21   6    -0.83850430601230     0.06372213486173    10.33002307638377
H   22   1     0.38411922151109     1.74281358582432    10.27380136542181
H   23   1    -2.30980003007874     0.45460143924521    11.73986301809809
H   24   1     4.58527064644668    -5.38706904487420     5.36778158031719
H   25   1     5.54944938085014    -2.37631462192748     4.35398898413318
H   26   1     3.06633019150423    -3.94118377050688     2.75255466040884
H   27   1    -4.17727778763735     2.26573369139522     5.12914900961283
H   28   1    -1.52662344944051     3.68001877445626     6.59540397144508
H   29   1    -4.32916174397830     3.13643051467482     8.35225460090378
H   30   1    -5.32329548508442    -2.36691813602939     6.11583672749896
H   31   1    -5.77989366602257    -1.33896741843465     9.25748940450990
H   32   1    -3.79310905208926    -3.96389819310853     8.61386170102686
C   33   6    -1.01100794811226    -1.06331657314144     3.11929490449947
C   34   6     0.37686231036534    -0.33275864505552     1.09165013605873
H   35   1    -3.01671213906703    -1.40297922279997     2.77827895090944
C   36   6    -0.64382707979370    -0.11591880174385    -1.42063131251064
H   37   1     2.35569259782137     0.17174499283897     1.33641070251401
H   38   1    -2.63317482980319    -0.60229203511219    -1.66119700387645
C   39   6     3.40965399787931     0.55809653308114   -11.90393532262733
C   40   6     4.52549279160481    -1.34135539088305   -13.56345596406470
H   41   1     3.67536210453709     2.52791097593625   -12.43024189111277
O   42   8     5.72170846290986    -0.87635365493868   -15.48013684009233
H   43   1     4.20717735374393    -3.33265649371778   -12.95224886476863
[GTO]
1 0
 s    6 1.00
             3047.5249  0.0018347001629433
             457.36951    0.01403730124668
             103.94869   0.068842606114048
             29.210155    0.23218442062076
              9.286663    0.46794134155879
              3.163927    0.36231203217765
 s    3 1.00
             7.8682724   -0.11933240861517
             1.8812885   -0.16085421161283
             0.5442493     1.1434564825515
 s    1 1.00
             0.1687144                   1
 p    3 1.00
             7.8682724   0.068999095584993
             1.8812885    0.31642397975315
             0.5442493    0.74430825237435
 p    1 1.00
             0.1687144                   1
 d    1 1.00
                   0.8                   1

2 0
 s    3 1.00
             18.731137    0.03349459952309
             2.8253937    0.23472694665786
             0.6401217    0.81375731841339
 s    1 1.00
             0.1612778                   1

3 0
 s    6 1.00
             3047.5249  0.0018347001629433
             457.36951    0.01403730124668
             103.94869   0.068842606114048
             29.210155    0.23218442062076
              9.286663    0.46794134155879
              3.163927    0.36231203217765
 s    3 1.00
             7.8682724   -0.11933240861517
             1.8812885   -0.16085421161283
             0.5442493     1.1434564825515
 s    1 1.00
             0.1687144                   1
 p    3 1.00
             7.8682724   0.068999095584993
             1.8812885    0.31642397975315
             0.5442493    0.74430825237435
 p    1 1.00
             0.1687144                   1
 d    1 1.00
                   0.8                   1

4 0
 s    3 1.00
             18.731137    0.03349459952309
             2.8253937    0.23472694665786
             0.6401217    0.81375731841339
 s    1 1.00
             0.1612778                   1

5 0
 s    6 1.00
             3047.5249  0.0018347001629433
             457.36951    0.01403730124668
             103.94869   0.068842606114048
             29.210155    0.23218442062076
              9.286663    0.46794134155879
              3.163927    0.36231203217765
 s    3 1.00
             7.8682724   -0.11933240861517
             1.8812885   -0.16085421161283
             0.5442493     1.1434564825515
 s    1 1.00
             0.1687144                   1
 p    3 1.00
             7.8682724   0.068999095584993
             1.8812885    0.31642397975315
             0.5442493    0.74430825237435
 p    1 1.00
             0.1687144                   1
 d    1 1.00
                   0.8                   1

6 0
 s    3 1.00
             18.731137    0.03349459952309
             2.8253937    0.23472694665786
             0.6401217    0.81375731841339
 s    1 1.00
             0.1612778                   1

7 0
 s    6 1.00
             3047.5249  0.0018347001629433
             457.36951    0.01403730124668
             103.94869   0.068842606114048
             29.210155    0.23218442062076
              9.286663    0.46794134155879
              3.163927    0.36231203217765
 s    3 1.00
             7.8682724   -0.11933240861517
             1.8812885   -0.16085421161283
             0.5442493     1.1434564825515
 s    1 1.00
             0.1687144                   1
 p    3 1.00
             7.8682724   0.068999095584993
             1.8812885    0.31642397975315
             0.5442493    0.74430825237435
 p    1 1.00
             0.1687144                   1
 d    1 1.00
                   0.8                   1

8 0
 s    3 1.00
             18.731137    0.03349459952309
             2.8253937    0.23472694665786
             0.6401217    0.81375731841339
 s    1 1.00
             0.1612778                   1

9 0
 s    3 1.00
             18.731137    0.03349459952309
             2.8253937    0.23472694665786
             0.6401217    0.81375731841339
 s    1 1.00
             0.1612778                   1

10 0
 s    6 1.00
             3047.5249  0.0018347001629433
             457.36951    0.01403730124668
             103.94869   0.068842606114048
             29.210155    0.23218442062076
              9.286663    0.46794134155879
              3.163927    0.36231203217765
 s    3 1.00
             7.8682724   -0.11933240861517
             1.8812885   -0.16085421161283
             0.5442493     1.1434564825515
 s    1 1.00
             0.1687144                   1
 p    3 1.00
             7.8682724   0.068999095584993
             1.8812885    0.31642397975315
             0.5442493    0.74430825237435
 p    1 1.00
             0.1687144                   1
 d    1 1.00
                   0.8                   1

11 0
 s    3 1.00
             18.731137    0.03349459952309
             2.8253937    0.23472694665786
             0.6401217    0.81375731841339
 s    1 1.00
             0.1612778                   1

12 0
 s    6 1.00
             3047.5249  0.0018347001629433
             457.36951    0.01403730124668
             103.94869   0.068842606114048
             29.210155    0.23218442062076
              9.286663    0.46794134155879
              3.163927    0.36231203217765
 s    3 1.00
             7.8682724   -0.11933240861517
             1.8812885   -0.16085421161283
             0.5442493     1.1434564825515
 s    1 1.00
             0.1687144                   1
 p    3 1.00
             7.8682724   0.068999095584993
             1.8812885    0.31642397975315
             0.5442493    0.74430825237435
 p    1 1.00
             0.1687144                   1
 d    1 1.00
                   0.8                   1

13 0
 s    3 1.00
             18.731137    0.03349459952309
             2.8253937    0.23472694665786
             0.6401217    0.81375731841339
 s    1 1.00
             0.1612778                   1

14 0
 s    3 1.00
             18.731137    0.03349459952309
             2.8253937    0.23472694665786
             0.6401217    0.81375731841339
 s    1 1.00
             0.1612778                   1

15 0
 s    6 1.00
             3047.5249  0.0018347001629433
             457.36951    0.01403730124668
             103.94869   0.068842606114048
             29.210155    0.23218442062076
              9.286663    0.46794134155879
              3.163927    0.36231203217765
 s    3 1.00
             7.8682724   -0.11933240861517
             1.8812885   -0.16085421161283
             0.5442493     1.1434564825515
 s    1 1.00
             0.1687144                   1
 p    3 1.00
             7.8682724   0.068999095584993
             1.8812885    0.31642397975315
             0.5442493    0.74430825237435
 p    1 1.00
             0.1687144                   1
 d    1 1.00
                   0.8                   1

16 0
 s    6 1.00
             3047.5249  0.0018347001629433
             457.36951    0.01403730124668
             103.94869   0.068842606114048
             29.210155    0.23218442062076
              9.286663    0.46794134155879
              3.163927    0.36231203217765
 s    3 1.00
             7.8682724   -0.11933240861517
             1.8812885   -0.16085421161283
             0.5442493     1.1434564825515
 s    1 1.00
             0.1687144                   1
 p    3 1.00
             7.8682724   0.068999095584993
             1.8812885    0.31642397975315
             0.5442493    0.74430825237435
 p    1 1.00
             0.1687144                   1
 d    1 1.00
                   0.8                   1

17 0
 s    6 1.00
             3047.5249  0.0018347001629433
             457.36951    0.01403730124668
             103.94869   0.068842606114048
             29.210155    0.23218442062076
              9.286663    0.46794134155879
              3.163927    0.36231203217765
 s    3 1.00
             7.8682724   -0.11933240861517
             1.8812885   -0.16085421161283
             0.5442493     1.1434564825515
 s    1 1.00
             0.1687144                   1
 p    3 1.00
             7.8682724   0.068999095584993
             1.8812885    0.31642397975315
             0.5442493    0.74430825237435
 p    1 1.00
             0.1687144                   1
 d    1 1.00
                   0.8                   1

18 0
 s    6 1.00
             3047.5249  0.0018347001629433
             457.36951    0.01403730124668
             103.94869   0.068842606114048
             29.210155    0.23218442062076
              9.286663    0.46794134155879
              3.163927    0.36231203217765
 s    3 1.00
             7.8682724   -0.11933240861517
             1.8812885   -0.16085421161283
             0.5442493     1.1434564825515
 s    1 1.00
             0.1687144                   1
 p    3 1.00
             7.8682724   0.068999095584993
             1.8812885    0.31642397975315
             0.5442493    0.74430825237435
 p    1 1.00
             0.1687144                   1
 d    1 1.00
                   0.8                   1

19 0
 s    6 1.00
             3047.5249  0.0018347001629433
             457.36951    0.01403730124668
             103.94869   0.068842606114048
             29.210155    0.23218442062076
              9.286663    0.46794134155879
              3.163927    0.36231203217765
 s    3 1.00
             7.8682724   -0.11933240861517
             1.8812885   -0.16085421161283
             0.5442493     1.1434564825515
 s    1 1.00
             0.1687144                   1
 p    3 1.00
             7.8682724   0.068999095584993
             1.8812885    0.31642397975315
             0.5442493    0.74430825237435
 p    1 1.00
             0.1687144                   1
 d    1 1.00
                   0.8                   1

20 0
 s    6 1.00
             3047.5249  0.0018347001629433
             457.36951    0.01403730124668
             103.94869   0.068842606114048
             29.210155    0.23218442062076
              9.286663    0.46794134155879
              3.163927    0.36231203217765
 s    3 1.00
             7.8682724   -0.11933240861517
             1.8812885   -0.16085421161283
             0.5442493     1.1434564825515
 s    1 1.00
             0.1687144                   1
 p    3 1.00
             7.8682724   0.068999095584993
             1.8812885    0.31642397975315
             0.5442493    0.74430825237435
 p    1 1.00
             0.1687144                   1
 d    1 1.00
                   0.8                   1

21 0
 s    6 1.00
             3047.5249  0.0018347001629433
             457.36951    0.01403730124668
             103.94869   0.068842606114048
             29.210155    0.23218442062076
              9.286663    0.46794134155879
              3.163927    0.36231203217765
 s    3 1.00
             7.8682724   -0.11933240861517
             1.8812885   -0.16085421161283
             0.5442493     1.1434564825515
 s    1 1.00
             0.1687144                   1
 p    3 1.00
             7.8682724   0.068999095584993
             1.8812885    0.31642397975315
             0.5442493    0.74430825237435
 p    1 1.00
             0.1687144                   1
 d    1 1.00
                   0.8                   1

22 0
 s    3 1.00
             18.731137    0.03349459952309
             2.8253937    0.23472694665786
             0.6401217    0.81375731841339
 s    1 1.00
             0.1612778                   1

23 0
 s    3 1.00
             18.731137    0.03349459952309
             2.8253937    0.23472694665786
             0.6401217    0.81375731841339
 s    1 1.00
             0.1612778                   1

24 0
 s    3 1.00
             18.731137    0.03349459952309
             2.8253937    0.23472694665786
             0.6401217    0.81375731841339
 s    1 1.00
             0.1612778                   1

25 0
 s    3 1.00
             18.731137    0.03349459952309
             2.8253937    0.23472694665786
             0.6401217    0.81375731841339
 s    1 1.00
             0.1612778                   1

26 0
 s    3 1.00
             18.731137    0.03349459952309
             2.8253937    0.23472694665786
             0.6401217    0.81375731841339
 s    1 1.00
             0.1612778                   1

27 0
 s    3 1.00
             18.731137    0.03349459952309
             2.8253937    0.23472694665786
             0.6401217    0.81375731841339
 s    1 1.00
             0.1612778                   1

28 0
 s    3 1.00
             18.731137    0.03349459952309
             2.8253937    0.23472694665786
             0.6401217    0.81375731841339
 s    1 1.00
             0.1612778                   1

29 0
 s    3 1.00
             18.731137    0.03349459952309
             2.8253937    0.23472694665786
             0.6401217    0.81375731841339
 s    1 1.00
             0.1612778                   1

30 0
 s    3 1.00
             18.731137    0.03349459952309
             2.8253937    0.23472694665786
             0.6401217    0.81375731841339
 s    1 1.00
             0.1612778                   1

31 0
 s    3 1.00
             18.731137    0.03349459952309
             2.8253937    0.23472694665786
             0.6401217    0.81375731841339
 s    1 1.00
             0.1612778                   1

32 0
 s    3 1.00
             18.731137    0.03349459952309
             2.8253937    0.23472694665786
             0.6401217    0.81375731841339
 s    1 1.00
             0.1612778                   1

33 0
 s    6 1.00
             3047.5249  0.0018347001629433
             457.36951    0.01403730124668
             103.94869   0.068842606114048
             29.210155    0.23218442062076
              9.286663    0.46794134155879
              3.163927    0.36231203217765
 s    3 1.00
             7.8682724   -0.11933240861517
             1.8812885   -0.16085421161283
             0.5442493     1.1434564825515
 s    1 1.00
             0.1687144                   1
 p    3 1.00
             7.8682724   0.068999095584993
             1.8812885    0.31642397975315
             0.5442493    0.74430825237435
 p    1 1.00
             0.1687144                   1
 d    1 1.00
                   0.8                   1

34 0
 s    6 1.00
             3047.5249  0.0018347001629433
             457.36951    0.01403730124668
             103.94869   0.068842606114048
             29.210155    0.23218442062076
              9.286663    0.46794134155879
              3.163927    0.36231203217765
 s    3 1.00
             7.8682724   -0.11933240861517
             1.8812885   -0.16085421161283
             0.5442493     1.1434564825515
 s    1 1.00
             0.1687144                   1
 p    3 1.00
             7.8682724   0.068999095584993
             1.8812885    0.31642397975315
             0.5442493    0.74430825237435
 p    1 1.00
             0.1687144                   1
 d    1 1.00
                   0.8                   1

35 0
 s    3 1.00
             18.731137    0.03349459952309
             2.8253937    0.23472694665786
             0.6401217    0.81375731841339
 s    1 1.00
             0.1612778                   1

36 0
 s    6 1.00
             3047.5249  0.0018347001629433
             457.36951    0.01403730124668
             103.94869   0.068842606114048
             29.210155    0.23218442062076
              9.286663    0.46794134155879
              3.163927    0.36231203217765
 s    3 1.00
             7.8682724   -0.11933240861517
             1.8812885   -0.16085421161283
             0.5442493     1.1434564825515
 s    1 1.00
             0.1687144                   1
 p    3 1.00
             7.8682724   0.068999095584993
             1.8812885    0.31642397975315
             0.5442493    0.74430825237435
 p    1 1.00
             0.1687144                   1
 d    1 1.00
                   0.8                   1

37 0
 s    3 1.00
             18.731137    0.03349459952309
             2.8253937    0.23472694665786
             0.6401217    0.81375731841339
 s    1 1.00
             0.1612778                   1

38 0
 s    3 1.00
             18.731137    0.03349459952309
             2.8253937    0.23472694665786
             0.6401217    0.81375731841339
 s    1 1.00
             0.1612778                   1

39 0
 s    6 1.00
             3047.5249  0.0018347001629433
             457.36951    0.01403730124668
             103.94869   0.068842606114048
             29.210155    0.23218442062076
              9.286663    0.46794134155879
              3.163927    0.36231203217765
 s    3 1.00
             7.8682724   -0.11933240861517
             1.8812885   -0.16085421161283
             0.5442493     1.1434564825515
 s    1 1.00
             0.1687144                   1
 p    3 1.00
             7.8682724   0.068999095584993
             1.8812885    0.31642397975315
             0.5442493    0.74430825237435
 p    1 1.00
             0.1687144                   1
 d    1 1.00
                   0.8                   1

40 0
 s    6 1.00
             3047.5249  0.0018347001629433
             457.36951    0.01403730124668
             103.94869   0.068842606114048
             29.210155    0.23218442062076
              9.286663    0.46794134155879
              3.163927    0.36231203217765
 s    3 1.00
             7.8682724   -0.11933240861517
             1.8812885   -0.16085421161283
             0.5442493     1.1434564825515
 s    1 1.00
             0.1687144                   1
 p    3 1.00
             7.8682724   0.068999095584993
             1.8812885    0.31642397975315
             0.5442493    0.74430825237435
 p    1 1.00
             0.1687144                   1
 d    1 1.00
                   0.8                   1

41 0
 s    3 1.00
             18.731137    0.03349459952309
             2.8253937    0.23472694665786
             0.6401217    0.81375731841339
 s    1 1.00
             0.1612778                   1

42 0
 s    6 1.00
             5484.6717   0.001831099805527
             825.23495   0.013950098518422
             188.04696    0.06844509273075
               52.9645    0.23271427528445
              16.89757    0.47019295006289
             5.7996353    0.35852086192309
 s    3 1.00
             15.539616   -0.11077750382508
             3.5999336   -0.14802630511126
             1.0137618     1.1307670390447
 s    1 1.00
             0.2700058                   1
 p    3 1.00
             15.539616   0.070874299543311
             3.5999336    0.33975279781076
             1.0137618    0.72715859531445
 p    1 1.00
             0.2700058                   1
 d    1 1.00
                   0.8                   1

43 0
 s    3 1.00
             18.731137    0.03349459952309
             2.8253937    0.23472694665786
             0.6401217    0.81375731841339
 s    1 1.00
             0.1612778                   1

[5d]
[7f]
[9g]

[MO]
 Sym= A
 Ene=               0
 Spin= Alpha
 Occup=    1.00000
   1    2.0154794170852e-06
   2    2.195229330867e-05
   3    -3.4871058725227e-05
   4    5.9720460218376e-06
   5    -1.7482111397526e-06
   6    -1.4668631760383e-05
   7    -1.7392259575719e-05
   8    -8.9114384248773e-05
   9    0.00039249465866684
  10    -2.6380474450752e-08
  11    -1.2213233399417e-05
  12    -2.7399117654646e-06
  13    -1.4777898937838e-05
  14    8.1387600292058e-06
  15    1.4964539276566e-05
  16    -2.0738724506769e-05
  17    -7.6197236337053e-06
  18    -0.00017173491774907
  19    -0.00045531097680528
  20    -5.7111238418376e-05
  21    1.0262286165952e-05
  22    7.5573607684131e-05
  23    -0.00016854454367115
  24    9.509792948541e-05
  25    0.00067052066211297
  26    -2.3561739937986e-05
  27    2.4859745149393e-05
  28    -9.6921492596229e-06
  29    -4.5492187426661e-05
  30    5.5764933377547e-06
  31    1.1379275671092e-05
  32    -2.8509494940525e-05
  33    -5.5140526548847e-05
  34    -0.00036945722692097
  35    0.0046621337440722
  36    9.3502941912302e-05
  37    -2.0766668586579e-05
  38    -0.00015768350080167
  39    0.0004227834397606
  40    -0.0020355440886348
  41    -0.00060179716909025
  42    3.2108509807884e-05
  43    -0.00011246351681406
  44    7.6960868301184e-05
  45    -3.4474048685609e-05
  46    -5.0976996863595e-05
  47    1.810018583101e-05
  48    0.00029310851654291
  49    -5.0718073371046e-06
  50    -0.00012685479408779
  51    -0.0037374242685745
  52    -0.00017403129107288
  53    0.00024064348994419
  54    0.00026308269762845
  55     0.001663368808954
  56    -0.0027385936034952
  57    -0.0024800897409073
  58    1.7217254342939e-05
  59    -4.3525861085129e-05
  60    -0.00020328847423434
  61    -2.5064923988433e-05
  62    0.00012739675741127
  63    -0.00030780235200567
  64    -8.580088373485e-05
  65    2.4264662028711e-07
  66    3.3864374870238e-07
  67    4.4660307395331e-08
  68    6.0089035405916e-07
  69    -3.0961333266757e-06
  70    -2.5302009882194e-07
  71    3.5588568805798e-07
  72    -1.1660859551154e-07
  73    -2.6097374963686e-07
  74    -1.7844361492674e-06
  75    -1.1857097809508e-07
  76    5.6302968751468e-08
  77    1.2914123868069e-07
  78    -5.347757062022e-08
  79    -8.0558058549344e-08
  80    1.0765937459949e-07
  81    -9.1132365197005e-08
  82    -2.1518553416956e-07
  83    -2.5699434838848e-08
  84    1.6166624688579e-07
  85    1.3759923743131e-05
  86    -6.3983154667303e-07
  87    -8.9650853680326e-08
  88    -9.267292794645e-07
  89    -3.5664451307816e-06
  90    5.1255021761147e-06
  91    -3.2403150186911e-06
  92    -1.7947986049917e-07
  93    2.9344563764947e-07
  94    -3.6692397144329e-07
  95    -3.5721561410052e-08
  96    1.6310466305501e-07
  97    -6.9346506642439e-07
  98    -9.3165309904499e-07
  99    5.1295971771172e-08
 100    1.1957945443587e-06
 101    8.6618020118444e-08
 102    1.0767295603205e-06
 103    -1.6142787439766e-05
 104    -1.7328239524183e-07
 105    9.8242776722289e-07
 106    6.1583678749368e-07
 107    2.045842933951e-05
 108    -1.8545285911983e-05
 109    -3.0740149528828e-05
 110    6.1311724955438e-07
 111    5.4661756999268e-07
 112    -2.3882349117016e-07
 113    -4.1914943067823e-07
 114    5.340458519081e-07
 115    5.1265448740527e-07
 116    4.7566831590205e-06
 117    -3.803331683094e-05
 118    6.9016161843609e-07
 119    -1.0964642345314e-06
 120    -8.8833412060253e-07
 121    8.4130087159446e-06
 122    -6.2271044260751e-07
 123    -2.3254095122749e-06
 124    6.5586872462341e-08
 125    2.0935308780756e-07
 126    1.6106048822257e-07
 127    -7.3899738202815e-08
 128    3.5713895508718e-07
 129    9.8829842368345e-07
 130    9.1384679965551e-06
 131    -5.1126449798939e-05
 132    -1.9864237779797e-07
 133    4.3720832446049e-07
 134    -3.6871403956274e-06
 135    2.6500317502286e-05
 136    -2.1570724365454e-06
 137    8.2491676835879e-05
 138    -2.5410926539947e-06
 139    -1.5698255734563e-06
 140    -2.677902543537e-07
 141    -4.2667960520403e-07
 142    -1.0674804875152e-07
 143    3.9326175493608e-07
 144    3.7117767724055e-06
 145    -1.833015156393e-05
 146    -2.8552522214157e-07
 147    -6.166271839397e-07
 148    -3.9445119331013e-07
 149    -1.1434009290029e-05
 150    7.3328723900665e-06
 151    2.4219105133419e-06
 152    1.0671128561359e-06
 153    3.7325916986304e-07
 154    1.0917000434585e-07
 155    -7.4421782135639e-07
 156    7.2993176792639e-07
 157    -1.0058318401711e-07
 158    -8.4663161793504e-07
 159    -1.2524345356547e-06
 160    -7.6633072169127e-07
 161    1.3994128576102e-07
 162    4.4385365959618e-08
 163     6.27477096523e-06
 164    5.7906799337758e-08
 165    -8.3815117335992e-07
 166    -4.3795062524799e-07
 167    1.3723466372033e-07
 168    -7.7746467236394e-09
 169    1.1968261805381e-07
 170    -2.7785143478168e-07
 171    -2.8955461060388e-08
 172    4.1457173145815e-07
 173    1.9584465965074e-06
 174    6.9002704402713e-07
 175    1.5493551446477e-07
 176    -8.0161688075346e-07
 177    4.1650811675326e-07
 178    -1.5487675247619e-06
 179    1.9916544739498e-06
 180    -1.596104754897e-07
 181    -2.1990110670827e-07
 182    -8.6389850978084e-09
 183    3.9920289138866e-07
 184    -1.8297163506637e-07
 185    3.1035310454482e-07
 186    3.1404670220551e-06
 187    -2.4691867376252e-06
 188    2.4763182630327e-07
 189    -1.3586355866393e-07
 190    -1.1677053846787e-06
 191    -2.417530697982e-06
 192    -1.0429186087104e-06
 193    6.0169984521639e-06
 194    -3.5737178101127e-07
 195    3.9508383426571e-08
 196    -1.596083571221e-07
 197    -7.5988432227014e-08
 198    9.0815483446394e-08
 199    7.9202666338006e-07
 200    1.3714074898072e-06
 201    -7.0698427763563e-08
 202    -3.4394452548498e-06
 203    1.7828224314762e-06
 204     2.08344782979e-06
 205    3.4071232020088e-07
 206    2.4720510839379e-06
 207    -1.4545680571715e-06
 208    1.3332295042248e-05
 209    -1.1036186141968e-06
 210    4.3826478065156e-06
 211    -4.5329404318122e-07
 212    -2.9302632652109e-06
 213    2.2137614739185e-07
 214    2.2223520395245e-06
 215    5.2316836466951e-07
 216    -6.2161861448586e-07
 217    -3.1836947776864e-07
 218    -9.097095512479e-07
 219    -2.6483038673787e-07
 220    -1.1738546228793e-06
 221    8.0379117067949e-07
 222    8.7209234893916e-06
 223    3.4456291980673e-06
 224    -2.0316217295545e-07
 225    4.951527174314e-07
 226    -3.6753125308689e-06
 227    -1.5121548412378e-05
 228    -2.7842175225037e-05
 229    9.7041122417071e-05
 230    1.1473406113956e-06
 231    4.171343585781e-06
 232    2.1107724726092e-06
 233    -1.8857807162627e-06
 234    -2.9701052366963e-06
 235    1.2504422422074e-06
 236    1.2547279258886e-05
 237    -2.9959214717438e-05
 238    1.0734922891127e-06
 239    -3.0220296154616e-06
 240    -4.5341135232571e-06
 241    2.1738484758883e-05
 242    9.3232290822354e-06
 243    9.9605688178873e-05
 244    -2.0769133811713e-06
 245    -7.1937168954092e-06
 246    -2.3355881155695e-06
 247    -2.7149025002387e-06
 248    -1.8607126194582e-06
 249    3.9814852700163e-06
 250    -1.1746119562335e-05
 251    3.9283610150082e-06
 252    3.2538176549641e-05
 253    -0.00024274661850781
 254    -3.0357011973725e-06
 255    1.1782090771255e-05
 256    -8.358606369588e-06
 257    -0.00010697794567886
 258    -0.00011028907061381
 259    0.00024700901936846
 260    -1.6781396548242e-06
 261    1.2465649161474e-05
 262    6.172966532111e-06
 263    -7.5432552877951e-06
 264    -6.7458670461736e-06
 265    4.9835888230971e-06
 266    -2.9165600572487e-05
 267    8.9977684504595e-06
 268    -4.0881487842791e-05
 269    5.5116780768549e-05
 270    0.00013992342017625
 271    -0.003287134623556
 272    -1.4894408688861e-05
 273    0.00019987681425188
 274    1.0701440978779e-05
 275    -0.0022121325438857
 276    -0.00061860713435391
 277    0.0035366623236274
 278    -0.00023968984939238
 279    0.00021775929453234