[Molden Format]
made by pyscf v[2.0.1]
[Atoms] (AU)
C   1   6     0.69100024066471     0.64692934207205    -3.48223131169301
H   2   1     2.68052439830868     1.13355088658700    -3.25784032593313
C   3   6    -0.36286361513219     0.85440132524594    -5.97030179418974
H   4   1    -2.35448549047279     0.36322488579172    -6.17995817793143
C   5   6     0.93697958957450     1.61209284601821    -8.05828437677121
H   6   1    -0.10682308805726     2.30253989392639    -9.69373588628611
C   7   6     3.64263503193718     1.55467149193689    -8.23832629511906
H   8   1     4.66272936056768     0.85936926442728    -6.58433578959761
H   9   1     1.55630230933075    -1.92953025305990    12.99630010416247
C   10   6     0.75233899775814    -2.21270439606481    11.10705728102219
H   11   1    -0.43433408177274    -3.90944857546550    11.22216085340412
C   12   6     2.86362581178706    -2.63237380607947     9.17926416456045
H   13   1     4.39038949912609    -1.24955421540245     9.49899813497433
H   14   1     3.74629220191363    -4.48798724300892     9.47414880959024
C   15   6     2.02478325613682    -2.42177285709634     6.44560829588644
C   16   6     3.88048732735477    -3.58795445234514     4.61402886975252
C   17   6    -0.18412382258602    -1.30464291234259     5.76021113872346
C   18   6    -2.10044360464350    -0.26837831858460     7.71610340967100
C   19   6    -3.08956938670431     2.35282328359417     6.88693925039594
C   20   6    -4.37372924086464    -2.09766595989678     7.93610724222001
C   21   6    -0.83850430601230     0.06372213486173    10.33002307638377
H   22   1     0.38411922151109     1.74281358582432    10.27380136542181
H   23   1    -2.30980003007874     0.45460143924521    11.73986301809809
H   24   1     4.58527064644668    -5.38706904487420     5.36778158031719
H   25   1     5.54944938085014    -2.37631462192748     4.35398898413318
H   26   1     3.06633019150423    -3.94118377050688     2.75255466040884
H   27   1    -4.17727778763735     2.26573369139522     5.12914900961283
H   28   1    -1.52662344944051     3.68001877445626     6.59540397144508
H   29   1    -4.32916174397830     3.13643051467482     8.35225460090378
H   30   1    -5.32329548508442    -2.36691813602939     6.11583672749896
H   31   1    -5.77989366602257    -1.33896741843465     9.25748940450990
H   32   1    -3.79310905208926    -3.96389819310853     8.61386170102686
C   33   6    -1.01100794811226    -1.06331657314144     3.11929490449947
C   34   6     0.37686231036534    -0.33275864505552     1.09165013605873
H   35   1    -3.01671213906703    -1.40297922279997     2.77827895090944
C   36   6    -0.64382707979370    -0.11591880174385    -1.42063131251064
H   37   1     2.35569259782137     0.17174499283897     1.33641070251401
H   38   1    -2.63317482980319    -0.60229203511219    -1.66119700387645
C   39   6     5.01588399354044     2.28654094702299   -10.27677863573407
C   40   6     7.77080404832789     2.15450646451281   -10.27454889780196
H   41   1     4.11782812209845     2.99683739506263   -11.98462609656630
O   42   8     9.12060555425099     2.77825484064970   -12.03801083010553
H   43   1     8.60983853061047     1.41663292301779    -8.48800399433497
[GTO]
1 0
 s    6 1.00
             3047.5249  0.0018347001629433
             457.36951    0.01403730124668
             103.94869   0.068842606114048
             29.210155    0.23218442062076
              9.286663    0.46794134155879
              3.163927    0.36231203217765
 s    3 1.00
             7.8682724   -0.11933240861517
             1.8812885   -0.16085421161283
             0.5442493     1.1434564825515
 s    1 1.00
             0.1687144                   1
 p    3 1.00
             7.8682724   0.068999095584993
             1.8812885    0.31642397975315
             0.5442493    0.74430825237435
 p    1 1.00
             0.1687144                   1
 d    1 1.00
                   0.8                   1

2 0
 s    3 1.00
             18.731137    0.03349459952309
             2.8253937    0.23472694665786
             0.6401217    0.81375731841339
 s    1 1.00
             0.1612778                   1

3 0
 s    6 1.00
             3047.5249  0.0018347001629433
             457.36951    0.01403730124668
             103.94869   0.068842606114048
             29.210155    0.23218442062076
              9.286663    0.46794134155879
              3.163927    0.36231203217765
 s    3 1.00
             7.8682724   -0.11933240861517
             1.8812885   -0.16085421161283
             0.5442493     1.1434564825515
 s    1 1.00
             0.1687144                   1
 p    3 1.00
             7.8682724   0.068999095584993
             1.8812885    0.31642397975315
             0.5442493    0.74430825237435
 p    1 1.00
             0.1687144                   1
 d    1 1.00
                   0.8                   1

4 0
 s    3 1.00
             18.731137    0.03349459952309
             2.8253937    0.23472694665786
             0.6401217    0.81375731841339
 s    1 1.00
             0.1612778                   1

5 0
 s    6 1.00
             3047.5249  0.0018347001629433
             457.36951    0.01403730124668
             103.94869   0.068842606114048
             29.210155    0.23218442062076
              9.286663    0.46794134155879
              3.163927    0.36231203217765
 s    3 1.00
             7.8682724   -0.11933240861517
             1.8812885   -0.16085421161283
             0.5442493     1.1434564825515
 s    1 1.00
             0.1687144                   1
 p    3 1.00
             7.8682724   0.068999095584993
             1.8812885    0.31642397975315
             0.5442493    0.74430825237435
 p    1 1.00
             0.1687144                   1
 d    1 1.00
                   0.8                   1

6 0
 s    3 1.00
             18.731137    0.03349459952309
             2.8253937    0.23472694665786
             0.6401217    0.81375731841339
 s    1 1.00
             0.1612778                   1

7 0
 s    6 1.00
             3047.5249  0.0018347001629433
             457.36951    0.01403730124668
             103.94869   0.068842606114048
             29.210155    0.23218442062076
              9.286663    0.46794134155879
              3.163927    0.36231203217765
 s    3 1.00
             7.8682724   -0.11933240861517
             1.8812885   -0.16085421161283
             0.5442493     1.1434564825515
 s    1 1.00
             0.1687144                   1
 p    3 1.00
             7.8682724   0.068999095584993
             1.8812885    0.31642397975315
             0.5442493    0.74430825237435
 p    1 1.00
             0.1687144                   1
 d    1 1.00
                   0.8                   1

8 0
 s    3 1.00
             18.731137    0.03349459952309
             2.8253937    0.23472694665786
             0.6401217    0.81375731841339
 s    1 1.00
             0.1612778                   1

9 0
 s    3 1.00
             18.731137    0.03349459952309
             2.8253937    0.23472694665786
             0.6401217    0.81375731841339
 s    1 1.00
             0.1612778                   1

10 0
 s    6 1.00
             3047.5249  0.0018347001629433
             457.36951    0.01403730124668
             103.94869   0.068842606114048
             29.210155    0.23218442062076
              9.286663    0.46794134155879
              3.163927    0.36231203217765
 s    3 1.00
             7.8682724   -0.11933240861517
             1.8812885   -0.16085421161283
             0.5442493     1.1434564825515
 s    1 1.00
             0.1687144                   1
 p    3 1.00
             7.8682724   0.068999095584993
             1.8812885    0.31642397975315
             0.5442493    0.74430825237435
 p    1 1.00
             0.1687144                   1
 d    1 1.00
                   0.8                   1

11 0
 s    3 1.00
             18.731137    0.03349459952309
             2.8253937    0.23472694665786
             0.6401217    0.81375731841339
 s    1 1.00
             0.1612778                   1

12 0
 s    6 1.00
             3047.5249  0.0018347001629433
             457.36951    0.01403730124668
             103.94869   0.068842606114048
             29.210155    0.23218442062076
              9.286663    0.46794134155879
              3.163927    0.36231203217765
 s    3 1.00
             7.8682724   -0.11933240861517
             1.8812885   -0.16085421161283
             0.5442493     1.1434564825515
 s    1 1.00
             0.1687144                   1
 p    3 1.00
             7.8682724   0.068999095584993
             1.8812885    0.31642397975315
             0.5442493    0.74430825237435
 p    1 1.00
             0.1687144                   1
 d    1 1.00
                   0.8                   1

13 0
 s    3 1.00
             18.731137    0.03349459952309
             2.8253937    0.23472694665786
             0.6401217    0.81375731841339
 s    1 1.00
             0.1612778                   1

14 0
 s    3 1.00
             18.731137    0.03349459952309
             2.8253937    0.23472694665786
             0.6401217    0.81375731841339
 s    1 1.00
             0.1612778                   1

15 0
 s    6 1.00
             3047.5249  0.0018347001629433
             457.36951    0.01403730124668
             103.94869   0.068842606114048
             29.210155    0.23218442062076
              9.286663    0.46794134155879
              3.163927    0.36231203217765
 s    3 1.00
             7.8682724   -0.11933240861517
             1.8812885   -0.16085421161283
             0.5442493     1.1434564825515
 s    1 1.00
             0.1687144                   1
 p    3 1.00
             7.8682724   0.068999095584993
             1.8812885    0.31642397975315
             0.5442493    0.74430825237435
 p    1 1.00
             0.1687144                   1
 d    1 1.00
                   0.8                   1

16 0
 s    6 1.00
             3047.5249  0.0018347001629433
             457.36951    0.01403730124668
             103.94869   0.068842606114048
             29.210155    0.23218442062076
              9.286663    0.46794134155879
              3.163927    0.36231203217765
 s    3 1.00
             7.8682724   -0.11933240861517
             1.8812885   -0.16085421161283
             0.5442493     1.1434564825515
 s    1 1.00
             0.1687144                   1
 p    3 1.00
             7.8682724   0.068999095584993
             1.8812885    0.31642397975315
             0.5442493    0.74430825237435
 p    1 1.00
             0.1687144                   1
 d    1 1.00
                   0.8                   1

17 0
 s    6 1.00
             3047.5249  0.0018347001629433
             457.36951    0.01403730124668
             103.94869   0.068842606114048
             29.210155    0.23218442062076
              9.286663    0.46794134155879
              3.163927    0.36231203217765
 s    3 1.00
             7.8682724   -0.11933240861517
             1.8812885   -0.16085421161283
             0.5442493     1.1434564825515
 s    1 1.00
             0.1687144                   1
 p    3 1.00
             7.8682724   0.068999095584993
             1.8812885    0.31642397975315
             0.5442493    0.74430825237435
 p    1 1.00
             0.1687144                   1
 d    1 1.00
                   0.8                   1

18 0
 s    6 1.00
             3047.5249  0.0018347001629433
             457.36951    0.01403730124668
             103.94869   0.068842606114048
             29.210155    0.23218442062076
              9.286663    0.46794134155879
              3.163927    0.36231203217765
 s    3 1.00
             7.8682724   -0.11933240861517
             1.8812885   -0.16085421161283
             0.5442493     1.1434564825515
 s    1 1.00
             0.1687144                   1
 p    3 1.00
             7.8682724   0.068999095584993
             1.8812885    0.31642397975315
             0.5442493    0.74430825237435
 p    1 1.00
             0.1687144                   1
 d    1 1.00
                   0.8                   1

19 0
 s    6 1.00
             3047.5249  0.0018347001629433
             457.36951    0.01403730124668
             103.94869   0.068842606114048
             29.210155    0.23218442062076
              9.286663    0.46794134155879
              3.163927    0.36231203217765
 s    3 1.00
             7.8682724   -0.11933240861517
             1.8812885   -0.16085421161283
             0.5442493     1.1434564825515
 s    1 1.00
             0.1687144                   1
 p    3 1.00
             7.8682724   0.068999095584993
             1.8812885    0.31642397975315
             0.5442493    0.74430825237435
 p    1 1.00
             0.1687144                   1
 d    1 1.00
                   0.8                   1

20 0
 s    6 1.00
             3047.5249  0.0018347001629433
             457.36951    0.01403730124668
             103.94869   0.068842606114048
             29.210155    0.23218442062076
              9.286663    0.46794134155879
              3.163927    0.36231203217765
 s    3 1.00
             7.8682724   -0.11933240861517
             1.8812885   -0.16085421161283
             0.5442493     1.1434564825515
 s    1 1.00
             0.1687144                   1
 p    3 1.00
             7.8682724   0.068999095584993
             1.8812885    0.31642397975315
             0.5442493    0.74430825237435
 p    1 1.00
             0.1687144                   1
 d    1 1.00
                   0.8                   1

21 0
 s    6 1.00
             3047.5249  0.0018347001629433
             457.36951    0.01403730124668
             103.94869   0.068842606114048
             29.210155    0.23218442062076
              9.286663    0.46794134155879
              3.163927    0.36231203217765
 s    3 1.00
             7.8682724   -0.11933240861517
             1.8812885   -0.16085421161283
             0.5442493     1.1434564825515
 s    1 1.00
             0.1687144                   1
 p    3 1.00
             7.8682724   0.068999095584993
             1.8812885    0.31642397975315
             0.5442493    0.74430825237435
 p    1 1.00
             0.1687144                   1
 d    1 1.00
                   0.8                   1

22 0
 s    3 1.00
             18.731137    0.03349459952309
             2.8253937    0.23472694665786
             0.6401217    0.81375731841339
 s    1 1.00
             0.1612778                   1

23 0
 s    3 1.00
             18.731137    0.03349459952309
             2.8253937    0.23472694665786
             0.6401217    0.81375731841339
 s    1 1.00
             0.1612778                   1

24 0
 s    3 1.00
             18.731137    0.03349459952309
             2.8253937    0.23472694665786
             0.6401217    0.81375731841339
 s    1 1.00
             0.1612778                   1

25 0
 s    3 1.00
             18.731137    0.03349459952309
             2.8253937    0.23472694665786
             0.6401217    0.81375731841339
 s    1 1.00
             0.1612778                   1

26 0
 s    3 1.00
             18.731137    0.03349459952309
             2.8253937    0.23472694665786
             0.6401217    0.81375731841339
 s    1 1.00
             0.1612778                   1

27 0
 s    3 1.00
             18.731137    0.03349459952309
             2.8253937    0.23472694665786
             0.6401217    0.81375731841339
 s    1 1.00
             0.1612778                   1

28 0
 s    3 1.00
             18.731137    0.03349459952309
             2.8253937    0.23472694665786
             0.6401217    0.81375731841339
 s    1 1.00
             0.1612778                   1

29 0
 s    3 1.00
             18.731137    0.03349459952309
             2.8253937    0.23472694665786
             0.6401217    0.81375731841339
 s    1 1.00
             0.1612778                   1

30 0
 s    3 1.00
             18.731137    0.03349459952309
             2.8253937    0.23472694665786
             0.6401217    0.81375731841339
 s    1 1.00
             0.1612778                   1

31 0
 s    3 1.00
             18.731137    0.03349459952309
             2.8253937    0.23472694665786
             0.6401217    0.81375731841339
 s    1 1.00
             0.1612778                   1

32 0
 s    3 1.00
             18.731137    0.03349459952309
             2.8253937    0.23472694665786
             0.6401217    0.81375731841339
 s    1 1.00
             0.1612778                   1

33 0
 s    6 1.00
             3047.5249  0.0018347001629433
             457.36951    0.01403730124668
             103.94869   0.068842606114048
             29.210155    0.23218442062076
              9.286663    0.46794134155879
              3.163927    0.36231203217765
 s    3 1.00
             7.8682724   -0.11933240861517
             1.8812885   -0.16085421161283
             0.5442493     1.1434564825515
 s    1 1.00
             0.1687144                   1
 p    3 1.00
             7.8682724   0.068999095584993
             1.8812885    0.31642397975315
             0.5442493    0.74430825237435
 p    1 1.00
             0.1687144                   1
 d    1 1.00
                   0.8                   1

34 0
 s    6 1.00
             3047.5249  0.0018347001629433
             457.36951    0.01403730124668
             103.94869   0.068842606114048
             29.210155    0.23218442062076
              9.286663    0.46794134155879
              3.163927    0.36231203217765
 s    3 1.00
             7.8682724   -0.11933240861517
             1.8812885   -0.16085421161283
             0.5442493     1.1434564825515
 s    1 1.00
             0.1687144                   1
 p    3 1.00
             7.8682724   0.068999095584993
             1.8812885    0.31642397975315
             0.5442493    0.74430825237435
 p    1 1.00
             0.1687144                   1
 d    1 1.00
                   0.8                   1

35 0
 s    3 1.00
             18.731137    0.03349459952309
             2.8253937    0.23472694665786
             0.6401217    0.81375731841339
 s    1 1.00
             0.1612778                   1

36 0
 s    6 1.00
             3047.5249  0.0018347001629433
             457.36951    0.01403730124668
             103.94869   0.068842606114048
             29.210155    0.23218442062076
              9.286663    0.46794134155879
              3.163927    0.36231203217765
 s    3 1.00
             7.8682724   -0.11933240861517
             1.8812885   -0.16085421161283
             0.5442493     1.1434564825515
 s    1 1.00
             0.1687144                   1
 p    3 1.00
             7.8682724   0.068999095584993
             1.8812885    0.31642397975315
             0.5442493    0.74430825237435
 p    1 1.00
             0.1687144                   1
 d    1 1.00
                   0.8                   1

37 0
 s    3 1.00
             18.731137    0.03349459952309
             2.8253937    0.23472694665786
             0.6401217    0.81375731841339
 s    1 1.00
             0.1612778                   1

38 0
 s    3 1.00
             18.731137    0.03349459952309
             2.8253937    0.23472694665786
             0.6401217    0.81375731841339
 s    1 1.00
             0.1612778                   1

39 0
 s    6 1.00
             3047.5249  0.0018347001629433
             457.36951    0.01403730124668
             103.94869   0.068842606114048
             29.210155    0.23218442062076
              9.286663    0.46794134155879
              3.163927    0.36231203217765
 s    3 1.00
             7.8682724   -0.11933240861517
             1.8812885   -0.16085421161283
             0.5442493     1.1434564825515
 s    1 1.00
             0.1687144                   1
 p    3 1.00
             7.8682724   0.068999095584993
             1.8812885    0.31642397975315
             0.5442493    0.74430825237435
 p    1 1.00
             0.1687144                   1
 d    1 1.00
                   0.8                   1

40 0
 s    6 1.00
             3047.5249  0.0018347001629433
             457.36951    0.01403730124668
             103.94869   0.068842606114048
             29.210155    0.23218442062076
              9.286663    0.46794134155879
              3.163927    0.36231203217765
 s    3 1.00
             7.8682724   -0.11933240861517
             1.8812885   -0.16085421161283
             0.5442493     1.1434564825515
 s    1 1.00
             0.1687144                   1
 p    3 1.00
             7.8682724   0.068999095584993
             1.8812885    0.31642397975315
             0.5442493    0.74430825237435
 p    1 1.00
             0.1687144                   1
 d    1 1.00
                   0.8                   1

41 0
 s    3 1.00
             18.731137    0.03349459952309
             2.8253937    0.23472694665786
             0.6401217    0.81375731841339
 s    1 1.00
             0.1612778                   1

42 0
 s    6 1.00
             5484.6717   0.001831099805527
             825.23495   0.013950098518422
             188.04696    0.06844509273075
               52.9645    0.23271427528445
              16.89757    0.47019295006289
             5.7996353    0.35852086192309
 s    3 1.00
             15.539616   -0.11077750382508
             3.5999336   -0.14802630511126
             1.0137618     1.1307670390447
 s    1 1.00
             0.2700058                   1
 p    3 1.00
             15.539616   0.070874299543311
             3.5999336    0.33975279781076
             1.0137618    0.72715859531445
 p    1 1.00
             0.2700058                   1
 d    1 1.00
                   0.8                   1

43 0
 s    3 1.00
             18.731137    0.03349459952309
             2.8253937    0.23472694665786
             0.6401217    0.81375731841339
 s    1 1.00
             0.1612778                   1

[5d]
[7f]
[9g]

[MO]
 Sym= A
 Ene=               0
 Spin= Alpha
 Occup=    1.00000
   1    1.378841155629e-05
   2    0.00010377497544429
   3    -0.0013853966419178
   4    4.1240229500081e-05
   5    -1.6798290762399e-05
   6    -9.5876643780401e-06
   7    5.6763659685162e-05
   8    -0.00010499119724225
   9    0.0013478065494574
  10    -4.1734970493827e-05
  11    -4.0340124867441e-05
  12    -5.1548576615025e-06
  13    -4.4033809497642e-06
  14    1.5926755609741e-06
  15    4.3460242076533e-05
  16    -1.7203189164721e-06
  17    -2.9644565827864e-05
  18    -0.00015752186141544
  19    0.0028357405254908
  20    2.1255406534358e-05
  21    1.5139694235551e-05
  22    -7.9233268650017e-05
  23    0.0018218125344478
  24    0.00017517875648861
  25    0.00048283865031408
  26    4.8072690038784e-05
  27    -2.9086612821821e-05
  28    -3.3831813396929e-06
  29    3.066485296189e-05
  30    2.9220103185035e-05
  31    7.2741164670879e-05
  32    0.00040809409290785
  33    6.937870022235e-05
  34    0.00043577475339756
  35    -0.0059995390632061
  36    -0.00010857954139811
  37    -3.0788564461928e-05
  38    8.5305823228461e-05
  39    -0.0027884973517124
  40    0.00062895357041642
  41    -0.0015400509115602
  42    2.2156112660635e-05
  43    5.1242962337785e-05
  44    4.5312143343457e-05
  45    -0.00016516405180695
  46    5.9688498720101e-06
  47    -6.4503116609957e-05
  48    -0.00057666109140175
  49    -1.0073207038441e-06
  50    9.3136549301084e-05
  51    0.0044605003812037
  52    0.00039541539925556
  53    -1.6114578607177e-05
  54    -4.4214333010304e-05
  55    -0.0048450579754901
  56    0.00021513729558519
  57    0.00021737880921343
  58    -0.0002153999018612
  59    2.7903689799917e-05
  60    0.00011338771468106
  61    0.00012142798332975
  62    -2.5396787645414e-05
  63    0.00027653047777823
  64    0.00026736473401835
  65    3.6732377643824e-07
  66    -1.4905844728963e-06
  67    1.0444665329359e-07
  68    9.3711531445647e-07
  69    1.0628794215065e-06
  70    -7.3073880189056e-07
  71    1.0172608665201e-06
  72    -1.8329196068179e-08
  73    -2.7189721922941e-06
  74    -2.3138189415386e-06
  75    1.0060849087387e-06
  76    -3.4320563232823e-07
  77    -2.0640513278724e-07
  78    -9.289898861415e-08
  79    -1.6838386723322e-07
  80    -2.1029583226309e-07
  81    -2.8778858839114e-07
  82    -1.7871535082048e-06
  83    -2.9478295243391e-07
  84    -2.6928503332788e-06
  85     -4.2642551096e-06
  86    3.3461482105887e-07
  87    -8.8469394206524e-07
  88    3.8320653757927e-08
  89    -2.6969745964277e-06
  90    1.105074221027e-05
  91    5.0764879130175e-06
  92    1.515680203091e-07
  93    2.5327570619334e-07
  94    -7.5652967087328e-07
  95    4.9137763815107e-07
  96    -1.039893492043e-07
  97    -1.2877914966226e-06
  98    -2.1276202472958e-06
  99    1.1049105901451e-06
 100    2.8345421136433e-06
 101    7.3801717893341e-07
 102    3.807994314473e-06
 103    -8.8854690111522e-05
 104    2.2105302456805e-06
 105    -4.9741911589557e-08
 106    9.6802860924282e-07
 107    2.1333284614987e-05
 108    -2.5367759970475e-05
 109    4.2565675997104e-05
 110    -6.6011773585339e-07
 111    -1.695482138588e-06
 112    7.2073523026415e-07
 113    2.4458664565979e-08
 114    1.188455957727e-06
 115    -3.600327787997e-07
 116    -3.0753162397613e-06
 117    1.9148728941298e-05
 118    -1.8012120466891e-07
 119    -1.541167369272e-06
 120    1.6102025735453e-06
 121    -1.1400672967553e-05
 122    1.8120794773699e-05
 123    -4.5696414775407e-06
 124    -7.9148863913389e-07
 125    9.6967239297516e-08
 126    1.2093868341961e-06
 127    5.946182007196e-07
 128    -2.0620868223159e-07
 129    -1.1020483595366e-06
 130    -5.7211033814089e-06
 131    3.4874888185454e-05
 132    -4.8191572444608e-06
 133    1.2779631941324e-06
 134    2.6134263468226e-06
 135    0.00010505507136808
 136    -2.0067341803193e-05
 137    -6.3322810605401e-05
 138    2.1790088131713e-06
 139    3.6323776991703e-07
 140    -2.8200714177606e-06
 141    2.3257502200319e-07
 142    -2.7414819984109e-06
 143    -6.3838077299556e-07
 144    -3.6949656819272e-06
 145    7.3348451300399e-05
 146    -7.041404168373e-07
 147    -3.7436636252092e-08
 148    -5.157583973134e-06
 149    3.5997673268338e-05
 150    -3.7078182498317e-05
 151    1.872903581055e-05
 152    4.0562599974303e-07
 153    -1.782815504503e-07
 154    1.9499686861677e-06
 155    7.038116026762e-07
 156    -1.5348372092932e-08
 157    -6.8529766412885e-07
 158    -6.1270058539714e-06
 159    3.2198606405242e-05
 160    -8.3459853856074e-07
 161    -3.6548076692343e-07
 162    9.0275673327202e-07
 163     6.27058200253e-06
 164    -1.290885181803e-05
 165    -4.1831031499803e-06
 166    -6.2291192574176e-07
 167    -9.1713089168066e-08
 168    2.8839388674689e-08
 169    -8.3514878507056e-07
 170    -2.0620376291092e-07
 171    1.3569739869945e-08
 172    6.7228663455219e-07
 173    -1.1020411755016e-07
 174    1.0951972920018e-06
 175    6.852337426283e-08
 176    -2.1108349963215e-06
 177    -1.6451364240004e-05
 178    6.8992966785722e-07
 179    -3.314009027153e-06
 180    1.9413050188063e-07
 181    -1.5804998584991e-06
 182     2.20296921296e-07
 183    -1.1217914514259e-06
 184    -1.1420786469883e-06
 185    6.4706784258839e-07
 186    4.766139690669e-06
 187    -3.7805613401972e-05
 188    1.2577778816052e-06
 189    3.5909950801712e-07
 190    1.4715374646764e-06
 191    3.7811130660328e-06
 192    8.6338369933852e-06
 193    1.6358428599835e-05
 194    -8.4578951026739e-07
 195    -1.0260191614271e-06
 196    -1.1693707749367e-06
 197    6.7255763603963e-07
 198    -5.9056654203172e-07
 199    1.7990422615087e-06
 200    -1.2098745739331e-06
 201    5.9768038035907e-07
 202    9.4270422923971e-07
 203    1.1525918150822e-06
 204    7.319172231778e-06
 205    -2.9574609203867e-06
 206    1.5402334794165e-07
 207    -3.2216523944229e-06
 208    4.2756820661184e-07
 209    -2.2803060828282e-06
 210    -3.9368215294736e-06
 211    -1.5346638965907e-06
 212    -2.7370418965855e-06
 213    -7.8649906034095e-07
 214    4.1453551101907e-06
 215    3.7335596586618e-06
 216    -1.923811072855e-05
 217    -1.3056678362267e-06
 218    -3.4433613776301e-06
 219    -9.0552756865471e-08
 220    4.3361171239455e-06
 221    4.910076988685e-06
 222    3.187960839796e-05
 223    -0.00043455634566033
 224    -3.2734338391733e-06
 225    -4.5340995766425e-06
 226    6.2418827494982e-06
 227    -0.00012639747069586
 228    -5.2015248071102e-05
 229    0.00020262859957669
 230    -8.389549668148e-06
 231    7.2380184386881e-06
 232    7.6175035432558e-06
 233    -3.4758646494426e-06
 234    -3.2872456840511e-06
 235    -5.0098537648424e-06
 236    -2.4863459252045e-05
 237    0.00068367106261502
 238    8.2039222109397e-06
 239    8.9594297460663e-06
 240    -2.3190230665093e-05
 241    -0.00026758777073749
 242    -7.7808635930328e-05
 243    6.435453057693e-05
 244    1.2517966564434e-05
 245    -7.2860128519244e-06
 246    -8.4693748662667e-06
 247    5.5142371449707e-07
 248    -4.2821834069909e-09
 249    2.705222417921e-06
 250    1.3029884219503e-05
 251    3.0726254694314e-06
 252    1.7870943815316e-05
 253    -0.00057936409001821
 254    1.1717072473363e-05
 255    2.6919514265647e-06
 256    2.6401601586786e-05
 257    -0.00035551912253984
 258    -9.5839190230982e-05
 259    -0.00027346727697592
 260    -4.3585024811913e-06
 261    -2.2604295993919e-06
 262    6.5909014121971e-06
 263    -1.1278349454483e-07
 264    -8.9198991976556e-06
 265    1.9833252060524e-05
 266    7.1564249991141e-06
 267    -2.5201318053063e-05
 268    -0.00011412631172921
 269    -5.6902680120958e-05
 270    -0.00015345472998543
 271    0.0035477219226518
 272    0.00013170428913706
 273    -5.1720482370862e-05
 274    0.00012139735614524
 275    0.0028942310263258
 276    0.00098095071507533
 277    -0.0029312005078558
 278    -0.00013758066202217
 279    -0.00034922889493268
 280    4.9035372586527e-05