[Molden Format]
made by pyscf v[2.0.1]
[Atoms] (AU)
C   1   6     0.69100024066471     0.64692934207205    -3.48223131169301
H   2   1     2.68052439830868     1.13355088658700    -3.25784032593313
C   3   6    -0.36286361513219     0.85440132524594    -5.97030179418974
H   4   1    -2.35448549047279     0.36322488579172    -6.17995817793143
C   5   6     0.93697958957450     1.61209284601821    -8.05828437677121
H   6   1     0.85962833397368     3.59050820045091    -8.62470494839578
C   7   6     2.42635389771936    -0.06497183323565    -9.58324401854610
H   8   1     2.48676726707897    -2.04132781761705    -8.99156043119802
H   9   1     1.55630230933075    -1.92953025305990    12.99630010416247
C   10   6     0.75233899775814    -2.21270439606481    11.10705728102219
H   11   1    -0.43433408177274    -3.90944857546550    11.22216085340412
C   12   6     2.86362581178706    -2.63237380607947     9.17926416456045
H   13   1     4.39038949912609    -1.24955421540245     9.49899813497433
H   14   1     3.74629220191363    -4.48798724300892     9.47414880959024
C   15   6     2.02478325613682    -2.42177285709634     6.44560829588644
C   16   6     3.88048732735477    -3.58795445234514     4.61402886975252
C   17   6    -0.18412382258602    -1.30464291234259     5.76021113872346
C   18   6    -2.10044360464350    -0.26837831858460     7.71610340967100
C   19   6    -3.08956938670431     2.35282328359417     6.88693925039594
C   20   6    -4.37372924086464    -2.09766595989678     7.93610724222001
C   21   6    -0.83850430601230     0.06372213486173    10.33002307638377
H   22   1     0.38411922151109     1.74281358582432    10.27380136542181
H   23   1    -2.30980003007874     0.45460143924521    11.73986301809809
H   24   1     4.58527064644668    -5.38706904487420     5.36778158031719
H   25   1     5.54944938085014    -2.37631462192748     4.35398898413318
H   26   1     3.06633019150423    -3.94118377050688     2.75255466040884
H   27   1    -4.17727778763735     2.26573369139522     5.12914900961283
H   28   1    -1.52662344944051     3.68001877445626     6.59540397144508
H   29   1    -4.32916174397830     3.13643051467482     8.35225460090378
H   30   1    -5.32329548508442    -2.36691813602939     6.11583672749896
H   31   1    -5.77989366602257    -1.33896741843465     9.25748940450990
H   32   1    -3.79310905208926    -3.96389819310853     8.61386170102686
C   33   6    -1.01100794811226    -1.06331657314144     3.11929490449947
C   34   6     0.37686231036534    -0.33275864505552     1.09165013605873
H   35   1    -3.01671213906703    -1.40297922279997     2.77827895090944
C   36   6    -0.64382707979370    -0.11591880174385    -1.42063131251064
H   37   1     2.35569259782137     0.17174499283897     1.33641070251401
H   38   1    -2.63317482980319    -0.60229203511219    -1.66119700387645
C   39   6     3.74832505967432     0.60333842975764   -11.67668310140841
C   40   6     5.21001738076888    -1.24955999097241   -13.10400422335708
H   41   1     3.76814643119893     2.53960520723023   -12.36823673003836
O   42   8     6.43815552067501    -0.78092818090474   -14.99949494178040
H   43   1     5.13629360998863    -3.20740752771493   -12.32839043702936
[GTO]
1 0
 s    6 1.00
             3047.5249  0.0018347001629433
             457.36951    0.01403730124668
             103.94869   0.068842606114048
             29.210155    0.23218442062076
              9.286663    0.46794134155879
              3.163927    0.36231203217765
 s    3 1.00
             7.8682724   -0.11933240861517
             1.8812885   -0.16085421161283
             0.5442493     1.1434564825515
 s    1 1.00
             0.1687144                   1
 p    3 1.00
             7.8682724   0.068999095584993
             1.8812885    0.31642397975315
             0.5442493    0.74430825237435
 p    1 1.00
             0.1687144                   1
 d    1 1.00
                   0.8                   1

2 0
 s    3 1.00
             18.731137    0.03349459952309
             2.8253937    0.23472694665786
             0.6401217    0.81375731841339
 s    1 1.00
             0.1612778                   1

3 0
 s    6 1.00
             3047.5249  0.0018347001629433
             457.36951    0.01403730124668
             103.94869   0.068842606114048
             29.210155    0.23218442062076
              9.286663    0.46794134155879
              3.163927    0.36231203217765
 s    3 1.00
             7.8682724   -0.11933240861517
             1.8812885   -0.16085421161283
             0.5442493     1.1434564825515
 s    1 1.00
             0.1687144                   1
 p    3 1.00
             7.8682724   0.068999095584993
             1.8812885    0.31642397975315
             0.5442493    0.74430825237435
 p    1 1.00
             0.1687144                   1
 d    1 1.00
                   0.8                   1

4 0
 s    3 1.00
             18.731137    0.03349459952309
             2.8253937    0.23472694665786
             0.6401217    0.81375731841339
 s    1 1.00
             0.1612778                   1

5 0
 s    6 1.00
             3047.5249  0.0018347001629433
             457.36951    0.01403730124668
             103.94869   0.068842606114048
             29.210155    0.23218442062076
              9.286663    0.46794134155879
              3.163927    0.36231203217765
 s    3 1.00
             7.8682724   -0.11933240861517
             1.8812885   -0.16085421161283
             0.5442493     1.1434564825515
 s    1 1.00
             0.1687144                   1
 p    3 1.00
             7.8682724   0.068999095584993
             1.8812885    0.31642397975315
             0.5442493    0.74430825237435
 p    1 1.00
             0.1687144                   1
 d    1 1.00
                   0.8                   1

6 0
 s    3 1.00
             18.731137    0.03349459952309
             2.8253937    0.23472694665786
             0.6401217    0.81375731841339
 s    1 1.00
             0.1612778                   1

7 0
 s    6 1.00
             3047.5249  0.0018347001629433
             457.36951    0.01403730124668
             103.94869   0.068842606114048
             29.210155    0.23218442062076
              9.286663    0.46794134155879
              3.163927    0.36231203217765
 s    3 1.00
             7.8682724   -0.11933240861517
             1.8812885   -0.16085421161283
             0.5442493     1.1434564825515
 s    1 1.00
             0.1687144                   1
 p    3 1.00
             7.8682724   0.068999095584993
             1.8812885    0.31642397975315
             0.5442493    0.74430825237435
 p    1 1.00
             0.1687144                   1
 d    1 1.00
                   0.8                   1

8 0
 s    3 1.00
             18.731137    0.03349459952309
             2.8253937    0.23472694665786
             0.6401217    0.81375731841339
 s    1 1.00
             0.1612778                   1

9 0
 s    3 1.00
             18.731137    0.03349459952309
             2.8253937    0.23472694665786
             0.6401217    0.81375731841339
 s    1 1.00
             0.1612778                   1

10 0
 s    6 1.00
             3047.5249  0.0018347001629433
             457.36951    0.01403730124668
             103.94869   0.068842606114048
             29.210155    0.23218442062076
              9.286663    0.46794134155879
              3.163927    0.36231203217765
 s    3 1.00
             7.8682724   -0.11933240861517
             1.8812885   -0.16085421161283
             0.5442493     1.1434564825515
 s    1 1.00
             0.1687144                   1
 p    3 1.00
             7.8682724   0.068999095584993
             1.8812885    0.31642397975315
             0.5442493    0.74430825237435
 p    1 1.00
             0.1687144                   1
 d    1 1.00
                   0.8                   1

11 0
 s    3 1.00
             18.731137    0.03349459952309
             2.8253937    0.23472694665786
             0.6401217    0.81375731841339
 s    1 1.00
             0.1612778                   1

12 0
 s    6 1.00
             3047.5249  0.0018347001629433
             457.36951    0.01403730124668
             103.94869   0.068842606114048
             29.210155    0.23218442062076
              9.286663    0.46794134155879
              3.163927    0.36231203217765
 s    3 1.00
             7.8682724   -0.11933240861517
             1.8812885   -0.16085421161283
             0.5442493     1.1434564825515
 s    1 1.00
             0.1687144                   1
 p    3 1.00
             7.8682724   0.068999095584993
             1.8812885    0.31642397975315
             0.5442493    0.74430825237435
 p    1 1.00
             0.1687144                   1
 d    1 1.00
                   0.8                   1

13 0
 s    3 1.00
             18.731137    0.03349459952309
             2.8253937    0.23472694665786
             0.6401217    0.81375731841339
 s    1 1.00
             0.1612778                   1

14 0
 s    3 1.00
             18.731137    0.03349459952309
             2.8253937    0.23472694665786
             0.6401217    0.81375731841339
 s    1 1.00
             0.1612778                   1

15 0
 s    6 1.00
             3047.5249  0.0018347001629433
             457.36951    0.01403730124668
             103.94869   0.068842606114048
             29.210155    0.23218442062076
              9.286663    0.46794134155879
              3.163927    0.36231203217765
 s    3 1.00
             7.8682724   -0.11933240861517
             1.8812885   -0.16085421161283
             0.5442493     1.1434564825515
 s    1 1.00
             0.1687144                   1
 p    3 1.00
             7.8682724   0.068999095584993
             1.8812885    0.31642397975315
             0.5442493    0.74430825237435
 p    1 1.00
             0.1687144                   1
 d    1 1.00
                   0.8                   1

16 0
 s    6 1.00
             3047.5249  0.0018347001629433
             457.36951    0.01403730124668
             103.94869   0.068842606114048
             29.210155    0.23218442062076
              9.286663    0.46794134155879
              3.163927    0.36231203217765
 s    3 1.00
             7.8682724   -0.11933240861517
             1.8812885   -0.16085421161283
             0.5442493     1.1434564825515
 s    1 1.00
             0.1687144                   1
 p    3 1.00
             7.8682724   0.068999095584993
             1.8812885    0.31642397975315
             0.5442493    0.74430825237435
 p    1 1.00
             0.1687144                   1
 d    1 1.00
                   0.8                   1

17 0
 s    6 1.00
             3047.5249  0.0018347001629433
             457.36951    0.01403730124668
             103.94869   0.068842606114048
             29.210155    0.23218442062076
              9.286663    0.46794134155879
              3.163927    0.36231203217765
 s    3 1.00
             7.8682724   -0.11933240861517
             1.8812885   -0.16085421161283
             0.5442493     1.1434564825515
 s    1 1.00
             0.1687144                   1
 p    3 1.00
             7.8682724   0.068999095584993
             1.8812885    0.31642397975315
             0.5442493    0.74430825237435
 p    1 1.00
             0.1687144                   1
 d    1 1.00
                   0.8                   1

18 0
 s    6 1.00
             3047.5249  0.0018347001629433
             457.36951    0.01403730124668
             103.94869   0.068842606114048
             29.210155    0.23218442062076
              9.286663    0.46794134155879
              3.163927    0.36231203217765
 s    3 1.00
             7.8682724   -0.11933240861517
             1.8812885   -0.16085421161283
             0.5442493     1.1434564825515
 s    1 1.00
             0.1687144                   1
 p    3 1.00
             7.8682724   0.068999095584993
             1.8812885    0.31642397975315
             0.5442493    0.74430825237435
 p    1 1.00
             0.1687144                   1
 d    1 1.00
                   0.8                   1

19 0
 s    6 1.00
             3047.5249  0.0018347001629433
             457.36951    0.01403730124668
             103.94869   0.068842606114048
             29.210155    0.23218442062076
              9.286663    0.46794134155879
              3.163927    0.36231203217765
 s    3 1.00
             7.8682724   -0.11933240861517
             1.8812885   -0.16085421161283
             0.5442493     1.1434564825515
 s    1 1.00
             0.1687144                   1
 p    3 1.00
             7.8682724   0.068999095584993
             1.8812885    0.31642397975315
             0.5442493    0.74430825237435
 p    1 1.00
             0.1687144                   1
 d    1 1.00
                   0.8                   1

20 0
 s    6 1.00
             3047.5249  0.0018347001629433
             457.36951    0.01403730124668
             103.94869   0.068842606114048
             29.210155    0.23218442062076
              9.286663    0.46794134155879
              3.163927    0.36231203217765
 s    3 1.00
             7.8682724   -0.11933240861517
             1.8812885   -0.16085421161283
             0.5442493     1.1434564825515
 s    1 1.00
             0.1687144                   1
 p    3 1.00
             7.8682724   0.068999095584993
             1.8812885    0.31642397975315
             0.5442493    0.74430825237435
 p    1 1.00
             0.1687144                   1
 d    1 1.00
                   0.8                   1

21 0
 s    6 1.00
             3047.5249  0.0018347001629433
             457.36951    0.01403730124668
             103.94869   0.068842606114048
             29.210155    0.23218442062076
              9.286663    0.46794134155879
              3.163927    0.36231203217765
 s    3 1.00
             7.8682724   -0.11933240861517
             1.8812885   -0.16085421161283
             0.5442493     1.1434564825515
 s    1 1.00
             0.1687144                   1
 p    3 1.00
             7.8682724   0.068999095584993
             1.8812885    0.31642397975315
             0.5442493    0.74430825237435
 p    1 1.00
             0.1687144                   1
 d    1 1.00
                   0.8                   1

22 0
 s    3 1.00
             18.731137    0.03349459952309
             2.8253937    0.23472694665786
             0.6401217    0.81375731841339
 s    1 1.00
             0.1612778                   1

23 0
 s    3 1.00
             18.731137    0.03349459952309
             2.8253937    0.23472694665786
             0.6401217    0.81375731841339
 s    1 1.00
             0.1612778                   1

24 0
 s    3 1.00
             18.731137    0.03349459952309
             2.8253937    0.23472694665786
             0.6401217    0.81375731841339
 s    1 1.00
             0.1612778                   1

25 0
 s    3 1.00
             18.731137    0.03349459952309
             2.8253937    0.23472694665786
             0.6401217    0.81375731841339
 s    1 1.00
             0.1612778                   1

26 0
 s    3 1.00
             18.731137    0.03349459952309
             2.8253937    0.23472694665786
             0.6401217    0.81375731841339
 s    1 1.00
             0.1612778                   1

27 0
 s    3 1.00
             18.731137    0.03349459952309
             2.8253937    0.23472694665786
             0.6401217    0.81375731841339
 s    1 1.00
             0.1612778                   1

28 0
 s    3 1.00
             18.731137    0.03349459952309
             2.8253937    0.23472694665786
             0.6401217    0.81375731841339
 s    1 1.00
             0.1612778                   1

29 0
 s    3 1.00
             18.731137    0.03349459952309
             2.8253937    0.23472694665786
             0.6401217    0.81375731841339
 s    1 1.00
             0.1612778                   1

30 0
 s    3 1.00
             18.731137    0.03349459952309
             2.8253937    0.23472694665786
             0.6401217    0.81375731841339
 s    1 1.00
             0.1612778                   1

31 0
 s    3 1.00
             18.731137    0.03349459952309
             2.8253937    0.23472694665786
             0.6401217    0.81375731841339
 s    1 1.00
             0.1612778                   1

32 0
 s    3 1.00
             18.731137    0.03349459952309
             2.8253937    0.23472694665786
             0.6401217    0.81375731841339
 s    1 1.00
             0.1612778                   1

33 0
 s    6 1.00
             3047.5249  0.0018347001629433
             457.36951    0.01403730124668
             103.94869   0.068842606114048
             29.210155    0.23218442062076
              9.286663    0.46794134155879
              3.163927    0.36231203217765
 s    3 1.00
             7.8682724   -0.11933240861517
             1.8812885   -0.16085421161283
             0.5442493     1.1434564825515
 s    1 1.00
             0.1687144                   1
 p    3 1.00
             7.8682724   0.068999095584993
             1.8812885    0.31642397975315
             0.5442493    0.74430825237435
 p    1 1.00
             0.1687144                   1
 d    1 1.00
                   0.8                   1

34 0
 s    6 1.00
             3047.5249  0.0018347001629433
             457.36951    0.01403730124668
             103.94869   0.068842606114048
             29.210155    0.23218442062076
              9.286663    0.46794134155879
              3.163927    0.36231203217765
 s    3 1.00
             7.8682724   -0.11933240861517
             1.8812885   -0.16085421161283
             0.5442493     1.1434564825515
 s    1 1.00
             0.1687144                   1
 p    3 1.00
             7.8682724   0.068999095584993
             1.8812885    0.31642397975315
             0.5442493    0.74430825237435
 p    1 1.00
             0.1687144                   1
 d    1 1.00
                   0.8                   1

35 0
 s    3 1.00
             18.731137    0.03349459952309
             2.8253937    0.23472694665786
             0.6401217    0.81375731841339
 s    1 1.00
             0.1612778                   1

36 0
 s    6 1.00
             3047.5249  0.0018347001629433
             457.36951    0.01403730124668
             103.94869   0.068842606114048
             29.210155    0.23218442062076
              9.286663    0.46794134155879
              3.163927    0.36231203217765
 s    3 1.00
             7.8682724   -0.11933240861517
             1.8812885   -0.16085421161283
             0.5442493     1.1434564825515
 s    1 1.00
             0.1687144                   1
 p    3 1.00
             7.8682724   0.068999095584993
             1.8812885    0.31642397975315
             0.5442493    0.74430825237435
 p    1 1.00
             0.1687144                   1
 d    1 1.00
                   0.8                   1

37 0
 s    3 1.00
             18.731137    0.03349459952309
             2.8253937    0.23472694665786
             0.6401217    0.81375731841339
 s    1 1.00
             0.1612778                   1

38 0
 s    3 1.00
             18.731137    0.03349459952309
             2.8253937    0.23472694665786
             0.6401217    0.81375731841339
 s    1 1.00
             0.1612778                   1

39 0
 s    6 1.00
             3047.5249  0.0018347001629433
             457.36951    0.01403730124668
             103.94869   0.068842606114048
             29.210155    0.23218442062076
              9.286663    0.46794134155879
              3.163927    0.36231203217765
 s    3 1.00
             7.8682724   -0.11933240861517
             1.8812885   -0.16085421161283
             0.5442493     1.1434564825515
 s    1 1.00
             0.1687144                   1
 p    3 1.00
             7.8682724   0.068999095584993
             1.8812885    0.31642397975315
             0.5442493    0.74430825237435
 p    1 1.00
             0.1687144                   1
 d    1 1.00
                   0.8                   1

40 0
 s    6 1.00
             3047.5249  0.0018347001629433
             457.36951    0.01403730124668
             103.94869   0.068842606114048
             29.210155    0.23218442062076
              9.286663    0.46794134155879
              3.163927    0.36231203217765
 s    3 1.00
             7.8682724   -0.11933240861517
             1.8812885   -0.16085421161283
             0.5442493     1.1434564825515
 s    1 1.00
             0.1687144                   1
 p    3 1.00
             7.8682724   0.068999095584993
             1.8812885    0.31642397975315
             0.5442493    0.74430825237435
 p    1 1.00
             0.1687144                   1
 d    1 1.00
                   0.8                   1

41 0
 s    3 1.00
             18.731137    0.03349459952309
             2.8253937    0.23472694665786
             0.6401217    0.81375731841339
 s    1 1.00
             0.1612778                   1

42 0
 s    6 1.00
             5484.6717   0.001831099805527
             825.23495   0.013950098518422
             188.04696    0.06844509273075
               52.9645    0.23271427528445
              16.89757    0.47019295006289
             5.7996353    0.35852086192309
 s    3 1.00
             15.539616   -0.11077750382508
             3.5999336   -0.14802630511126
             1.0137618     1.1307670390447
 s    1 1.00
             0.2700058                   1
 p    3 1.00
             15.539616   0.070874299543311
             3.5999336    0.33975279781076
             1.0137618    0.72715859531445
 p    1 1.00
             0.2700058                   1
 d    1 1.00
                   0.8                   1

43 0
 s    3 1.00
             18.731137    0.03349459952309
             2.8253937    0.23472694665786
             0.6401217    0.81375731841339
 s    1 1.00
             0.1612778                   1

[5d]
[7f]
[9g]

[MO]
 Sym= A
 Ene=               0
 Spin= Alpha
 Occup=    1.00000
   1    1.4492906812748e-06
   2    1.4815250349515e-05
   3    6.3095567458861e-05
   4    4.0307744861947e-06
   5    8.8212452278202e-06
   6    -1.2993713111829e-05
   7    -5.1871418542546e-05
   8    -0.00013981435551056
   9    0.0003838102909296
  10    4.0853859874111e-07
  11    -1.0828712203022e-05
  12    -8.0206895185071e-07
  13    -1.471937091853e-05
  14    8.3904925636976e-06
  15    1.4723110651774e-05
  16    -1.1122803666603e-05
  17    -7.2373232412134e-06
  18    -0.00016892611522876
  19    -0.00047551247935193
  20    -6.0361820838736e-05
  21    5.8014876935887e-06
  22    7.4136608848969e-05
  23    -0.00022147838155768
  24    0.00012304084349366
  25    0.00059384137802925
  26    -2.3024560135051e-05
  27    2.5917321380317e-05
  28    -1.5441822586492e-05
  29    -4.386348279283e-05
  30    -3.9514214971309e-06
  31    1.145161644023e-05
  32    -4.171371240382e-05
  33    -5.5286868227775e-05
  34    -0.00037134143204184
  35    0.0046481354863169
  36    0.00010349566437218
  37    -1.8688779210909e-05
  38    -0.0001516904157268
  39    0.00075594188548888
  40    -0.0020056111810093
  41    -0.00040110290857907
  42    1.2520923753716e-05
  43    -0.00011930086974108
  44    5.7610455704834e-05
  45    -1.6756528214807e-05
  46    -7.4269666213154e-05
  47    1.9854620200548e-05
  48    0.00029679697214168
  49    -4.9107255524924e-06
  50    -0.00012656881924241
  51    -0.0037518492299128
  52    -0.00022125623711272
  53    0.00023436716844166
  54    0.00023055364035856
  55    0.0021721847682477
  56    -0.0026769548377715
  57    -0.0021447271569107
  58    4.4449494109543e-05
  59    -2.9816969064308e-05
  60    -0.00020055739339432
  61    -4.1081990811516e-05
  62    0.00012483168195428
  63    -0.00030803523989652
  64    -8.6741172213456e-05
  65    2.1500661996674e-07
  66    3.2044634721044e-07
  67    4.2948579891982e-08
  68    6.0573109788621e-07
  69    -2.9254707518499e-06
  70    -2.3322680810575e-07
  71    3.490946765093e-07
  72    -1.6060190686404e-07
  73    -2.7306849178372e-07
  74    -1.7622792923133e-06
  75    3.4245650503239e-09
  76    6.607443699073e-08
  77    1.3278027649219e-07
  78    -4.7254929027165e-08
  79    -6.8803105167556e-08
  80    1.183115053687e-07
  81    -1.0386371226051e-07
  82    -2.0879909699383e-07
  83    -1.5339901185209e-08
  84    3.0459318345402e-07
  85    1.5300968626502e-05
  86    -7.384550748981e-07
  87    -1.0527791579972e-08
  88    -9.9232726220026e-07
  89    -3.5391239171661e-06
  90    4.9188437956444e-06
  91    -3.9355649415483e-06
  92    -1.9216486874135e-07
  93    2.9821143447237e-07
  94    -3.8172931754017e-07
  95    -6.5541500794323e-08
  96    1.8152452606593e-07
  97    -7.101117580209e-07
  98    -8.4890034859589e-07
  99    -2.3849215161054e-08
 100    1.0855133631443e-06
 101    3.6113511747862e-08
 102    7.3267834902137e-07
 103    -1.1787942811608e-05
 104    -3.4318278745974e-07
 105    1.0371820393915e-06
 106    7.1500639005088e-07
 107    2.0582642073448e-05
 108    -1.9303611362735e-05
 109    -3.5846745251524e-05
 110    6.5779879443067e-07
 111    6.3792641205863e-07
 112    -2.6682439545572e-07
 113    -2.9078816969615e-07
 114    5.4595075878944e-07
 115    5.255363136634e-07
 116    4.7803929264646e-06
 117    -3.9871244423234e-05
 118    7.3993712459478e-07
 119    -1.0336570915938e-06
 120    -9.6611488246975e-07
 121    9.7217249023407e-06
 122    -1.9996130427309e-06
 123    -3.6316466103258e-06
 124    1.143163813726e-07
 125    2.9681980164299e-07
 126    9.4200779153273e-08
 127    -1.6800929387205e-07
 128    4.2836480670063e-07
 129    1.0672167829021e-06
 130    9.492747002529e-06
 131    -5.9474291357959e-05
 132    -1.3185542798928e-07
 133    1.5779129910554e-08
 134    -3.7116574859658e-06
 135    2.4139327505333e-05
 136    1.389990730654e-06
 137    9.2813148123743e-05
 138    -2.7761221668089e-06
 139    -1.8027377019995e-06
 140    -2.1483509152364e-07
 141    -4.7252870685176e-07
 142    -7.4169836130998e-09
 143    5.2131824321296e-07
 144    4.7761286505492e-06
 145    -2.5460297693317e-05
 146    -1.995441014028e-07
 147    -4.2103363029682e-07
 148    -3.863428600731e-07
 149    -1.4805198312068e-05
 150    6.7609147564087e-06
 151    4.0916140000272e-06
 152    1.0566919513772e-06
 153    4.488244431743e-07
 154    1.1924050308764e-07
 155    -7.9943895954561e-07
 156    8.7552164354052e-07
 157    -1.1460336326069e-07
 158    -9.0790247634481e-07
 159    -1.3928067282867e-07
 160    -7.2533639415187e-07
 161    5.5692970451005e-08
 162    1.5157344658236e-07
 163    7.1526244716311e-06
 164    -4.3556593011116e-07
 165    -8.9159913100886e-07
 166    -5.3150405179197e-07
 167    2.4319198195546e-07
 168    -2.9274880008794e-08
 169    1.2583552320486e-07
 170    -3.5115163415716e-07
 171    -2.3165732898302e-08
 172    4.6233503799087e-07
 173    1.2399168356273e-06
 174    6.4937313109572e-07
 175    1.849712121833e-07
 176    -7.8782770523519e-07
 177    5.1730240822047e-07
 178    -2.0414246962112e-06
 179    1.7294420614262e-06
 180    -1.4332254029306e-07
 181    -2.1803902946517e-07
 182    -6.4296031484546e-08
 183    4.2638875925074e-07
 184    -1.884640629962e-07
 185    3.1011652551545e-07
 186    3.219269152076e-06
 187    -1.4315704618102e-06
 188    2.1034557603528e-07
 189    -1.5236760095709e-07
 190    -1.321586253729e-06
 191    -2.3565499075885e-06
 192    -7.72948065906e-07
 193    5.5417733129818e-06
 194    -2.9084900322589e-07
 195    5.4565313259417e-08
 196    -2.2371497669244e-07
 197    -1.1903101336857e-07
 198    1.0955971021706e-07
 199    7.4721120058313e-07
 200    1.2034236758563e-06
 201    -5.8349783349789e-08
 202    -3.603309046984e-06
 203    1.7420320169193e-06
 204    1.6845979432793e-06
 205    3.6354790816281e-07
 206    2.5897478925657e-06
 207    -9.7417938859905e-07
 208    1.1162861468823e-05
 209    -1.2304226448579e-06
 210    4.8088093446141e-06
 211    -5.7948151430376e-07
 212    -3.0983193653399e-06
 213    2.6560626739597e-07
 214    2.2977687298308e-06
 215    4.7217133304805e-07
 216    -5.7694955300825e-07
 217    -2.5561997988105e-07
 218    -7.4007201345997e-07
 219    -3.2019044040381e-07
 220    -1.2571763410915e-06
 221    7.3490326036023e-07
 222    8.2347910698917e-06
 223    1.6949336865723e-05
 224    -6.4020506880627e-07
 225    1.3129303937902e-06
 226    -4.2089747381547e-06
 227    -8.0040363059194e-06
 228    -2.961891185594e-05
 229    0.00010468942914074
 230    1.3138818840379e-06
 231    4.5148182637628e-06
 232    1.9534554766038e-06
 233    -1.9896165155346e-06
 234    -2.9431440397958e-06
 235    1.0633715678748e-06
 236    1.1204697392945e-05
 237    -2.5432367728754e-05
 238    7.3181795316336e-07
 239    -3.2747201940169e-06
 240    -4.4636661490229e-06
 241    2.6281250863326e-05
 242    8.2411893630987e-06
 243    8.8571423367675e-05
 244    -1.2720218076184e-06
 245    -7.1231464755601e-06
 246    -1.6164596611248e-06
 247    -2.8712785834855e-06
 248    -1.1404127078071e-06
 249    4.8755243462091e-06
 250    -1.1224501095287e-05
 251    4.4039578735764e-06
 252    3.5933130654059e-05
 253    -0.00029856977515808
 254    -2.2554591079933e-06
 255    9.0126604837413e-06
 256    -8.2938123079908e-06
 257    -0.00012525094186305
 258    -9.8992157428566e-05
 259    0.00027257087033599
 260    -3.1418741963368e-06
 261    1.3476763475487e-05
 262    5.238415461382e-06
 263    -8.945370811611e-06
 264    -4.9007154084013e-06
 265    4.1374979119092e-06
 266    -3.0366276749152e-05
 267    9.3097304328153e-06
 268    -3.9015619588335e-05
 269    5.508387543827e-05
 270    0.0001399236359402
 271    -0.0032841152682683
 272    -4.2664601332536e-05
 273    0.0001959753497664
 274    -7.6001212147656e-06
 275    -0.0023069392897399
 276    -0.00062964235293822
 277    0.0034734706649351
 278    -0.00019332011982455
 279    0.00024260554064064