[Molden Format]
made by pyscf v[2.0.1]
[Atoms] (AU)
C   1   6     0.69100024066471     0.64692934207205    -3.48223131169301
H   2   1     2.68052439830868     1.13355088658700    -3.25784032593313
C   3   6    -0.36286361513219     0.85440132524594    -5.97030179418974
H   4   1    -2.35448549047279     0.36322488579172    -6.17995817793143
C   5   6     0.93697958957450     1.61209284601821    -8.05828437677121
H   6   1     0.73648971111668     3.55370010139060    -8.71472010856714
C   7   6     2.58127687438623    -0.01872844577485    -9.47001807350619
H   8   1     2.76404479428938    -1.95840164828389    -8.78885291415754
H   9   1     1.55630230933075    -1.92953025305990    12.99630010416247
C   10   6     0.75233899775814    -2.21270439606481    11.10705728102219
H   11   1    -0.43433408177274    -3.90944857546550    11.22216085340412
C   12   6     2.86362581178706    -2.63237380607947     9.17926416456045
H   13   1     4.39038949912609    -1.24955421540245     9.49899813497433
H   14   1     3.74629220191363    -4.48798724300892     9.47414880959024
C   15   6     2.02478325613682    -2.42177285709634     6.44560829588644
C   16   6     3.88048732735477    -3.58795445234514     4.61402886975252
C   17   6    -0.18412382258602    -1.30464291234259     5.76021113872346
C   18   6    -2.10044360464350    -0.26837831858460     7.71610340967100
C   19   6    -3.08956938670431     2.35282328359417     6.88693925039594
C   20   6    -4.37372924086464    -2.09766595989678     7.93610724222001
C   21   6    -0.83850430601230     0.06372213486173    10.33002307638377
H   22   1     0.38411922151109     1.74281358582432    10.27380136542181
H   23   1    -2.30980003007874     0.45460143924521    11.73986301809809
H   24   1     4.58527064644668    -5.38706904487420     5.36778158031719
H   25   1     5.54944938085014    -2.37631462192748     4.35398898413318
H   26   1     3.06633019150423    -3.94118377050688     2.75255466040884
H   27   1    -4.17727778763735     2.26573369139522     5.12914900961283
H   28   1    -1.52662344944051     3.68001877445626     6.59540397144508
H   29   1    -4.32916174397830     3.13643051467482     8.35225460090378
H   30   1    -5.32329548508442    -2.36691813602939     6.11583672749896
H   31   1    -5.77989366602257    -1.33896741843465     9.25748940450990
H   32   1    -3.79310905208926    -3.96389819310853     8.61386170102686
C   33   6    -1.01100794811226    -1.06331657314144     3.11929490449947
C   34   6     0.37686231036534    -0.33275864505552     1.09165013605873
H   35   1    -3.01671213906703    -1.40297922279997     2.77827895090944
C   36   6    -0.64382707979370    -0.11591880174385    -1.42063131251064
H   37   1     2.35569259782137     0.17174499283897     1.33641070251401
H   38   1    -2.63317482980319    -0.60229203511219    -1.66119700387645
C   39   6     3.90960344721415     0.65123442372143   -11.55890098643101
C   40   6     5.53597339482346    -1.15257329589011   -12.86589030877460
H   41   1     3.81237322709460     2.55237110239842   -12.33607146621226
O   42   8     6.77935136485374    -0.67974925370394   -14.75037240649433
H   43   1     5.57867975922019    -3.07543379045103   -12.00509846248917
[GTO]
1 0
 s    6 1.00
             3047.5249  0.0018347001629433
             457.36951    0.01403730124668
             103.94869   0.068842606114048
             29.210155    0.23218442062076
              9.286663    0.46794134155879
              3.163927    0.36231203217765
 s    3 1.00
             7.8682724   -0.11933240861517
             1.8812885   -0.16085421161283
             0.5442493     1.1434564825515
 s    1 1.00
             0.1687144                   1
 p    3 1.00
             7.8682724   0.068999095584993
             1.8812885    0.31642397975315
             0.5442493    0.74430825237435
 p    1 1.00
             0.1687144                   1
 d    1 1.00
                   0.8                   1

2 0
 s    3 1.00
             18.731137    0.03349459952309
             2.8253937    0.23472694665786
             0.6401217    0.81375731841339
 s    1 1.00
             0.1612778                   1

3 0
 s    6 1.00
             3047.5249  0.0018347001629433
             457.36951    0.01403730124668
             103.94869   0.068842606114048
             29.210155    0.23218442062076
              9.286663    0.46794134155879
              3.163927    0.36231203217765
 s    3 1.00
             7.8682724   -0.11933240861517
             1.8812885   -0.16085421161283
             0.5442493     1.1434564825515
 s    1 1.00
             0.1687144                   1
 p    3 1.00
             7.8682724   0.068999095584993
             1.8812885    0.31642397975315
             0.5442493    0.74430825237435
 p    1 1.00
             0.1687144                   1
 d    1 1.00
                   0.8                   1

4 0
 s    3 1.00
             18.731137    0.03349459952309
             2.8253937    0.23472694665786
             0.6401217    0.81375731841339
 s    1 1.00
             0.1612778                   1

5 0
 s    6 1.00
             3047.5249  0.0018347001629433
             457.36951    0.01403730124668
             103.94869   0.068842606114048
             29.210155    0.23218442062076
              9.286663    0.46794134155879
              3.163927    0.36231203217765
 s    3 1.00
             7.8682724   -0.11933240861517
             1.8812885   -0.16085421161283
             0.5442493     1.1434564825515
 s    1 1.00
             0.1687144                   1
 p    3 1.00
             7.8682724   0.068999095584993
             1.8812885    0.31642397975315
             0.5442493    0.74430825237435
 p    1 1.00
             0.1687144                   1
 d    1 1.00
                   0.8                   1

6 0
 s    3 1.00
             18.731137    0.03349459952309
             2.8253937    0.23472694665786
             0.6401217    0.81375731841339
 s    1 1.00
             0.1612778                   1

7 0
 s    6 1.00
             3047.5249  0.0018347001629433
             457.36951    0.01403730124668
             103.94869   0.068842606114048
             29.210155    0.23218442062076
              9.286663    0.46794134155879
              3.163927    0.36231203217765
 s    3 1.00
             7.8682724   -0.11933240861517
             1.8812885   -0.16085421161283
             0.5442493     1.1434564825515
 s    1 1.00
             0.1687144                   1
 p    3 1.00
             7.8682724   0.068999095584993
             1.8812885    0.31642397975315
             0.5442493    0.74430825237435
 p    1 1.00
             0.1687144                   1
 d    1 1.00
                   0.8                   1

8 0
 s    3 1.00
             18.731137    0.03349459952309
             2.8253937    0.23472694665786
             0.6401217    0.81375731841339
 s    1 1.00
             0.1612778                   1

9 0
 s    3 1.00
             18.731137    0.03349459952309
             2.8253937    0.23472694665786
             0.6401217    0.81375731841339
 s    1 1.00
             0.1612778                   1

10 0
 s    6 1.00
             3047.5249  0.0018347001629433
             457.36951    0.01403730124668
             103.94869   0.068842606114048
             29.210155    0.23218442062076
              9.286663    0.46794134155879
              3.163927    0.36231203217765
 s    3 1.00
             7.8682724   -0.11933240861517
             1.8812885   -0.16085421161283
             0.5442493     1.1434564825515
 s    1 1.00
             0.1687144                   1
 p    3 1.00
             7.8682724   0.068999095584993
             1.8812885    0.31642397975315
             0.5442493    0.74430825237435
 p    1 1.00
             0.1687144                   1
 d    1 1.00
                   0.8                   1

11 0
 s    3 1.00
             18.731137    0.03349459952309
             2.8253937    0.23472694665786
             0.6401217    0.81375731841339
 s    1 1.00
             0.1612778                   1

12 0
 s    6 1.00
             3047.5249  0.0018347001629433
             457.36951    0.01403730124668
             103.94869   0.068842606114048
             29.210155    0.23218442062076
              9.286663    0.46794134155879
              3.163927    0.36231203217765
 s    3 1.00
             7.8682724   -0.11933240861517
             1.8812885   -0.16085421161283
             0.5442493     1.1434564825515
 s    1 1.00
             0.1687144                   1
 p    3 1.00
             7.8682724   0.068999095584993
             1.8812885    0.31642397975315
             0.5442493    0.74430825237435
 p    1 1.00
             0.1687144                   1
 d    1 1.00
                   0.8                   1

13 0
 s    3 1.00
             18.731137    0.03349459952309
             2.8253937    0.23472694665786
             0.6401217    0.81375731841339
 s    1 1.00
             0.1612778                   1

14 0
 s    3 1.00
             18.731137    0.03349459952309
             2.8253937    0.23472694665786
             0.6401217    0.81375731841339
 s    1 1.00
             0.1612778                   1

15 0
 s    6 1.00
             3047.5249  0.0018347001629433
             457.36951    0.01403730124668
             103.94869   0.068842606114048
             29.210155    0.23218442062076
              9.286663    0.46794134155879
              3.163927    0.36231203217765
 s    3 1.00
             7.8682724   -0.11933240861517
             1.8812885   -0.16085421161283
             0.5442493     1.1434564825515
 s    1 1.00
             0.1687144                   1
 p    3 1.00
             7.8682724   0.068999095584993
             1.8812885    0.31642397975315
             0.5442493    0.74430825237435
 p    1 1.00
             0.1687144                   1
 d    1 1.00
                   0.8                   1

16 0
 s    6 1.00
             3047.5249  0.0018347001629433
             457.36951    0.01403730124668
             103.94869   0.068842606114048
             29.210155    0.23218442062076
              9.286663    0.46794134155879
              3.163927    0.36231203217765
 s    3 1.00
             7.8682724   -0.11933240861517
             1.8812885   -0.16085421161283
             0.5442493     1.1434564825515
 s    1 1.00
             0.1687144                   1
 p    3 1.00
             7.8682724   0.068999095584993
             1.8812885    0.31642397975315
             0.5442493    0.74430825237435
 p    1 1.00
             0.1687144                   1
 d    1 1.00
                   0.8                   1

17 0
 s    6 1.00
             3047.5249  0.0018347001629433
             457.36951    0.01403730124668
             103.94869   0.068842606114048
             29.210155    0.23218442062076
              9.286663    0.46794134155879
              3.163927    0.36231203217765
 s    3 1.00
             7.8682724   -0.11933240861517
             1.8812885   -0.16085421161283
             0.5442493     1.1434564825515
 s    1 1.00
             0.1687144                   1
 p    3 1.00
             7.8682724   0.068999095584993
             1.8812885    0.31642397975315
             0.5442493    0.74430825237435
 p    1 1.00
             0.1687144                   1
 d    1 1.00
                   0.8                   1

18 0
 s    6 1.00
             3047.5249  0.0018347001629433
             457.36951    0.01403730124668
             103.94869   0.068842606114048
             29.210155    0.23218442062076
              9.286663    0.46794134155879
              3.163927    0.36231203217765
 s    3 1.00
             7.8682724   -0.11933240861517
             1.8812885   -0.16085421161283
             0.5442493     1.1434564825515
 s    1 1.00
             0.1687144                   1
 p    3 1.00
             7.8682724   0.068999095584993
             1.8812885    0.31642397975315
             0.5442493    0.74430825237435
 p    1 1.00
             0.1687144                   1
 d    1 1.00
                   0.8                   1

19 0
 s    6 1.00
             3047.5249  0.0018347001629433
             457.36951    0.01403730124668
             103.94869   0.068842606114048
             29.210155    0.23218442062076
              9.286663    0.46794134155879
              3.163927    0.36231203217765
 s    3 1.00
             7.8682724   -0.11933240861517
             1.8812885   -0.16085421161283
             0.5442493     1.1434564825515
 s    1 1.00
             0.1687144                   1
 p    3 1.00
             7.8682724   0.068999095584993
             1.8812885    0.31642397975315
             0.5442493    0.74430825237435
 p    1 1.00
             0.1687144                   1
 d    1 1.00
                   0.8                   1

20 0
 s    6 1.00
             3047.5249  0.0018347001629433
             457.36951    0.01403730124668
             103.94869   0.068842606114048
             29.210155    0.23218442062076
              9.286663    0.46794134155879
              3.163927    0.36231203217765
 s    3 1.00
             7.8682724   -0.11933240861517
             1.8812885   -0.16085421161283
             0.5442493     1.1434564825515
 s    1 1.00
             0.1687144                   1
 p    3 1.00
             7.8682724   0.068999095584993
             1.8812885    0.31642397975315
             0.5442493    0.74430825237435
 p    1 1.00
             0.1687144                   1
 d    1 1.00
                   0.8                   1

21 0
 s    6 1.00
             3047.5249  0.0018347001629433
             457.36951    0.01403730124668
             103.94869   0.068842606114048
             29.210155    0.23218442062076
              9.286663    0.46794134155879
              3.163927    0.36231203217765
 s    3 1.00
             7.8682724   -0.11933240861517
             1.8812885   -0.16085421161283
             0.5442493     1.1434564825515
 s    1 1.00
             0.1687144                   1
 p    3 1.00
             7.8682724   0.068999095584993
             1.8812885    0.31642397975315
             0.5442493    0.74430825237435
 p    1 1.00
             0.1687144                   1
 d    1 1.00
                   0.8                   1

22 0
 s    3 1.00
             18.731137    0.03349459952309
             2.8253937    0.23472694665786
             0.6401217    0.81375731841339
 s    1 1.00
             0.1612778                   1

23 0
 s    3 1.00
             18.731137    0.03349459952309
             2.8253937    0.23472694665786
             0.6401217    0.81375731841339
 s    1 1.00
             0.1612778                   1

24 0
 s    3 1.00
             18.731137    0.03349459952309
             2.8253937    0.23472694665786
             0.6401217    0.81375731841339
 s    1 1.00
             0.1612778                   1

25 0
 s    3 1.00
             18.731137    0.03349459952309
             2.8253937    0.23472694665786
             0.6401217    0.81375731841339
 s    1 1.00
             0.1612778                   1

26 0
 s    3 1.00
             18.731137    0.03349459952309
             2.8253937    0.23472694665786
             0.6401217    0.81375731841339
 s    1 1.00
             0.1612778                   1

27 0
 s    3 1.00
             18.731137    0.03349459952309
             2.8253937    0.23472694665786
             0.6401217    0.81375731841339
 s    1 1.00
             0.1612778                   1

28 0
 s    3 1.00
             18.731137    0.03349459952309
             2.8253937    0.23472694665786
             0.6401217    0.81375731841339
 s    1 1.00
             0.1612778                   1

29 0
 s    3 1.00
             18.731137    0.03349459952309
             2.8253937    0.23472694665786
             0.6401217    0.81375731841339
 s    1 1.00
             0.1612778                   1

30 0
 s    3 1.00
             18.731137    0.03349459952309
             2.8253937    0.23472694665786
             0.6401217    0.81375731841339
 s    1 1.00
             0.1612778                   1

31 0
 s    3 1.00
             18.731137    0.03349459952309
             2.8253937    0.23472694665786
             0.6401217    0.81375731841339
 s    1 1.00
             0.1612778                   1

32 0
 s    3 1.00
             18.731137    0.03349459952309
             2.8253937    0.23472694665786
             0.6401217    0.81375731841339
 s    1 1.00
             0.1612778                   1

33 0
 s    6 1.00
             3047.5249  0.0018347001629433
             457.36951    0.01403730124668
             103.94869   0.068842606114048
             29.210155    0.23218442062076
              9.286663    0.46794134155879
              3.163927    0.36231203217765
 s    3 1.00
             7.8682724   -0.11933240861517
             1.8812885   -0.16085421161283
             0.5442493     1.1434564825515
 s    1 1.00
             0.1687144                   1
 p    3 1.00
             7.8682724   0.068999095584993
             1.8812885    0.31642397975315
             0.5442493    0.74430825237435
 p    1 1.00
             0.1687144                   1
 d    1 1.00
                   0.8                   1

34 0
 s    6 1.00
             3047.5249  0.0018347001629433
             457.36951    0.01403730124668
             103.94869   0.068842606114048
             29.210155    0.23218442062076
              9.286663    0.46794134155879
              3.163927    0.36231203217765
 s    3 1.00
             7.8682724   -0.11933240861517
             1.8812885   -0.16085421161283
             0.5442493     1.1434564825515
 s    1 1.00
             0.1687144                   1
 p    3 1.00
             7.8682724   0.068999095584993
             1.8812885    0.31642397975315
             0.5442493    0.74430825237435
 p    1 1.00
             0.1687144                   1
 d    1 1.00
                   0.8                   1

35 0
 s    3 1.00
             18.731137    0.03349459952309
             2.8253937    0.23472694665786
             0.6401217    0.81375731841339
 s    1 1.00
             0.1612778                   1

36 0
 s    6 1.00
             3047.5249  0.0018347001629433
             457.36951    0.01403730124668
             103.94869   0.068842606114048
             29.210155    0.23218442062076
              9.286663    0.46794134155879
              3.163927    0.36231203217765
 s    3 1.00
             7.8682724   -0.11933240861517
             1.8812885   -0.16085421161283
             0.5442493     1.1434564825515
 s    1 1.00
             0.1687144                   1
 p    3 1.00
             7.8682724   0.068999095584993
             1.8812885    0.31642397975315
             0.5442493    0.74430825237435
 p    1 1.00
             0.1687144                   1
 d    1 1.00
                   0.8                   1

37 0
 s    3 1.00
             18.731137    0.03349459952309
             2.8253937    0.23472694665786
             0.6401217    0.81375731841339
 s    1 1.00
             0.1612778                   1

38 0
 s    3 1.00
             18.731137    0.03349459952309
             2.8253937    0.23472694665786
             0.6401217    0.81375731841339
 s    1 1.00
             0.1612778                   1

39 0
 s    6 1.00
             3047.5249  0.0018347001629433
             457.36951    0.01403730124668
             103.94869   0.068842606114048
             29.210155    0.23218442062076
              9.286663    0.46794134155879
              3.163927    0.36231203217765
 s    3 1.00
             7.8682724   -0.11933240861517
             1.8812885   -0.16085421161283
             0.5442493     1.1434564825515
 s    1 1.00
             0.1687144                   1
 p    3 1.00
             7.8682724   0.068999095584993
             1.8812885    0.31642397975315
             0.5442493    0.74430825237435
 p    1 1.00
             0.1687144                   1
 d    1 1.00
                   0.8                   1

40 0
 s    6 1.00
             3047.5249  0.0018347001629433
             457.36951    0.01403730124668
             103.94869   0.068842606114048
             29.210155    0.23218442062076
              9.286663    0.46794134155879
              3.163927    0.36231203217765
 s    3 1.00
             7.8682724   -0.11933240861517
             1.8812885   -0.16085421161283
             0.5442493     1.1434564825515
 s    1 1.00
             0.1687144                   1
 p    3 1.00
             7.8682724   0.068999095584993
             1.8812885    0.31642397975315
             0.5442493    0.74430825237435
 p    1 1.00
             0.1687144                   1
 d    1 1.00
                   0.8                   1

41 0
 s    3 1.00
             18.731137    0.03349459952309
             2.8253937    0.23472694665786
             0.6401217    0.81375731841339
 s    1 1.00
             0.1612778                   1

42 0
 s    6 1.00
             5484.6717   0.001831099805527
             825.23495   0.013950098518422
             188.04696    0.06844509273075
               52.9645    0.23271427528445
              16.89757    0.47019295006289
             5.7996353    0.35852086192309
 s    3 1.00
             15.539616   -0.11077750382508
             3.5999336   -0.14802630511126
             1.0137618     1.1307670390447
 s    1 1.00
             0.2700058                   1
 p    3 1.00
             15.539616   0.070874299543311
             3.5999336    0.33975279781076
             1.0137618    0.72715859531445
 p    1 1.00
             0.2700058                   1
 d    1 1.00
                   0.8                   1

43 0
 s    3 1.00
             18.731137    0.03349459952309
             2.8253937    0.23472694665786
             0.6401217    0.81375731841339
 s    1 1.00
             0.1612778                   1

[5d]
[7f]
[9g]

[MO]
 Sym= A
 Ene=               0
 Spin= Alpha
 Occup=    1.00000
   1    -9.0695352099402e-07
   2    -9.3556228814205e-06
   3    -0.00012474386706534
   4    -2.4449118263472e-06
   5    -1.3598909650472e-05
   6    1.1524256185676e-05
   7    6.6121217041123e-05
   8    0.00015785101886666
   9    -0.00034710869594491
  10    -1.3465993478545e-06
  11    9.2533663258457e-06
  12    -3.8550809876126e-07
  13    1.4195690079595e-05
  14    -8.2868212282313e-06
  15    -1.3383976753456e-05
  16    6.4563291736798e-06
  17    6.3394131800443e-06
  18    0.00016035310275186
  19    0.00052458094384258
  20    6.0748854640295e-05
  21    -3.3071541209362e-06
  22    -7.2963929091537e-05
  23    0.00026609369671053
  24    -0.00013225098323205
  25    -0.00054332276468095
  26    2.3343795473161e-05
  27    -2.6432383634505e-05
  28    1.7705044158371e-05
  29    4.2437331138999e-05
  30    8.4059544536878e-06
  31    -1.0420713408742e-05
  32    5.012238450282e-05
  33    5.5215229569179e-05
  34    0.00036952551015626
  35    -0.0046436604662588
  36    -0.0001080111199259
  37    1.7053553107144e-05
  38    0.00014723052683934
  39    -0.00091711271666006
  40    0.0019673178919928
  41    0.00029269263447842
  42    -4.0922966114619e-06
  43    0.00011994467068867
  44    -4.6882145794703e-05
  45    5.1056514968838e-06
  46    8.3638390756849e-05
  47    -2.082824097701e-05
  48    -0.00030025622092295
  49    4.8394634192646e-06
  50    0.00012662025318762
  51    0.0037634109936264
  52    0.00024330724032538
  53    -0.0002278210577342
  54    -0.00021341935620406
  55    -0.0024112135350312
  56    0.0026103649566354
  57    0.0019646340654676
  58    -5.828878794707e-05
  59    2.4164113079069e-05
  60    0.00019757146102601
  61    4.9196231463317e-05
  62    -0.00012204711886826
  63    0.00030842591954203
  64    8.8374158941701e-05
  65    -1.9009724216294e-07
  66    -3.3384614683457e-07
  67    -3.8866706233194e-08
  68    -5.7327097859224e-07
  69    2.7906477835308e-06
  70    2.0197631164287e-07
  71    -3.1665112671217e-07
  72    1.7561939470748e-07
  73    2.1550028863542e-07
  74    1.6764367271451e-06
  75    -3.5864308039423e-08
  76    -7.5350654382129e-08
  77    -1.3449121744531e-07
  78    4.0445777836782e-08
  79    5.842827852251e-08
  80    -1.2402737514035e-07
  81    1.0224269739875e-07
  82    1.7207421594879e-07
  83    4.4227185174656e-09
  84    -4.1490605208769e-07
  85    -1.5662979821265e-05
  86    7.7012314740624e-07
  87    -3.9778553022746e-08
  88    9.9535360266799e-07
  89    3.360314135307e-06
  90    -4.4914210750273e-06
  91    4.247246485265e-06
  92    1.9579891532413e-07
  93    -2.8517843587056e-07
  94    3.6331844714618e-07
  95    8.7639490143405e-08
  96    -1.8719739452786e-07
  97    6.7605365231905e-07
  98    7.6106486142997e-07
  99    7.5334029138087e-08
 100    -9.5545605402137e-07
 101    2.7940709835126e-09
 102    -4.7885578099526e-07
 103    7.6093164736103e-06
 104    4.4705556998264e-07
 105    -1.0480065210246e-06
 106    -7.1553613396218e-07
 107    -1.9566612806092e-05
 108    1.8598325975506e-05
 109    3.8027180649731e-05
 110    -6.7573631447177e-07
 111    -6.9902327067545e-07
 112    2.8711552756506e-07
 113    2.2587984087478e-07
 114    -5.100541834932e-07
 115    -5.2628701166698e-07
 116    -4.7435862383532e-06
 117    4.0090708947998e-05
 118    -7.4633399316602e-07
 119    9.5306189721929e-07
 120    1.0090451193723e-06
 121    -1.0286151444318e-05
 122    2.8910347232554e-06
 123    3.9788720467452e-06
 124    -1.5004994780884e-07
 125    -3.2532959442546e-07
 126    -4.0906733121816e-08
 127    2.1733128264986e-07
 128    -4.5393076633664e-07
 129    -1.0965165029941e-06
 130    -9.5352841473222e-06
 131    6.221209826387e-05
 132    -6.3128174663945e-09
 133    1.9681997554483e-07
 134    3.6970293564229e-06
 135    -2.0179040370124e-05
 136    -3.4443019581573e-06
 137    -9.6102826717071e-05
 138    2.8410077963427e-06
 139    1.8697693222708e-06
 140    1.2854246501155e-07
 141    4.8958738570434e-07
 142    -9.0175602821871e-08
 143    -5.7819322153477e-07
 144    -5.2073942655213e-06
 145    2.9511908381406e-05
 146    1.4430045035431e-07
 147    3.2383072852239e-07
 148    2.6950787676616e-07
 149    1.6635473274923e-05
 150    -7.040915415969e-06
 151    -4.4308353462534e-06
 152    -1.0119599167461e-06
 153    -4.7763177141416e-07
 154    -8.1853651897094e-08
 155    8.1632921057856e-07
 156    -9.1754192443196e-07
 157    1.0597038156641e-07
 158    8.0280038247535e-07
 159    2.1843245946031e-07
 160    6.755161847376e-07
 161    -2.4529347280364e-08
 162    -1.8108125736157e-07
 163    -7.2587924685128e-06
 164    4.171683611712e-07
 165    8.2906855316148e-07
 166    5.4802283211053e-07
 167    -2.884021882841e-07
 168    3.844447084226e-08
 169    -1.3955412858564e-07
 170    3.6992892760171e-07
 171    1.9158052190227e-08
 172    -4.6885543635976e-07
 173    -8.7993201697145e-07
 174    -5.9823472499632e-07
 175    -1.9188119604987e-07
 176    7.236946919744e-07
 177    -8.3952960421673e-07
 178    2.2145176153225e-06
 179    -1.6427912140534e-06
 180    1.3697430309428e-07
 181    1.8107201615864e-07
 182    9.1707199697236e-08
 183    -4.484230339035e-07
 184    1.6518354679891e-07
 185    -2.8875000833607e-07
 186    -3.0717587289439e-06
 187    1.8560623299182e-07
 188    -1.6289212240873e-07
 189    1.6127378716783e-07
 190    1.3833658666781e-06
 191    2.3212499102449e-06
 192    8.0874932316589e-07
 193    -4.8609621155676e-06
 194    2.3567438018974e-07
 195    -7.9646902643516e-08
 196    2.2356113631467e-07
 197    1.4911224063759e-07
 198    -1.2574110063368e-07
 199    -6.702669760067e-07
 200    -1.1191083911374e-06
 201    6.137195547238e-08
 202    3.5930188199147e-06
 203    -1.6629015860167e-06
 204    -1.3294771503136e-06
 205    -4.200255391536e-07
 206    -2.5767247268768e-06
 207    6.8686959667547e-07
 208    -1.0000574457957e-05
 209    1.2182459185808e-06
 210    -4.9589847655178e-06
 211    5.9289651405187e-07
 212    3.0533140019178e-06
 213    -2.9389304112288e-07
 214    -2.2025040330777e-06
 215    -3.7047987872452e-07
 216    1.8130925775384e-07
 217    1.9626024524027e-07
 218    5.9569321470505e-07
 219    3.3223777969793e-07
 220    1.3378867620068e-06
 221    -5.96830578514e-07
 222    -7.2483130624687e-06
 223    -3.0352450869688e-05
 224    7.4794897652771e-07
 225    -1.7225305889384e-06
 226    4.4416595663916e-06
 227    2.4010395539534e-06
 228    2.8782579657495e-05
 229    -0.00010126372647751
 230    -1.5108927136796e-06
 231    -4.4104423070791e-06
 232    -1.6895691372388e-06
 233    1.9209962897295e-06
 234    2.8050954359789e-06
 235    -1.0660422614644e-06
 236    -1.0920844474262e-05
 237    3.6622192836202e-05
 238    -4.1704164758818e-07
 239    3.5006770780498e-06
 240    3.8982476405982e-06
 241    -3.2890607122509e-05
 242    -9.0555846245739e-06
 243    -8.1024931623759e-05
 244    1.1592598247575e-06
 245    6.7953379293539e-06
 246    1.0835357666605e-06
 247    2.8952998342069e-06
 248    7.9750649603177e-07
 249    -5.0770925607349e-06
 250    1.0975337029632e-05
 251    -4.4243734755706e-06
 252    -3.6053069262219e-05
 253    0.00030346520865922
 254    2.0949302112415e-06
 255    -7.5816716859991e-06
 256    8.6006141534673e-06
 257    0.00012329377528145
 258    8.9589391111744e-05
 259    -0.00028256150158497
 260    3.5766317877731e-06
 261    -1.3628679876262e-05
 262    -4.5503175193834e-06
 263    9.3492289112733e-06
 264    3.766434810495e-06
 265    -3.3214401596711e-06
 266    3.038266127873e-05
 267    -9.7538373372757e-06
 268    3.5390323584013e-05
 269    -5.4983899548237e-05
 270    -0.00013928961882819
 271    0.0032752884407538
 272    5.5913719211687e-05
 273    -0.00019200944894959
 274    1.6951083662967e-05
 275    0.0023541961959364
 276    0.00064339655168829
 277    -0.0034445128633815
 278    0.00016833067629927
 279    -0.00025497173501121
 280    0.00018376169046298