[Molden Format]
made by pyscf v[2.0.1]
[Atoms] (AU)
C   1   6     0.69100024066471     0.64692934207205    -3.48223131169301
H   2   1     2.68052439830868     1.13355088658700    -3.25784032593313
C   3   6    -0.36286361513219     0.85440132524594    -5.97030179418974
H   4   1    -2.35448549047279     0.36322488579172    -6.17995817793143
C   5   6     0.93697958957450     1.61209284601821    -8.05828437677121
H   6   1    -0.10682308805726     2.30253989392639    -9.69373588628611
C   7   6     3.64263503193718     1.55467149193689    -8.23832629511906
H   8   1     4.66272936056768     0.85936926442728    -6.58433578959761
H   9   1     1.55630230933075    -1.92953025305990    12.99630010416247
C   10   6     0.75233899775814    -2.21270439606481    11.10705728102219
H   11   1    -0.43433408177274    -3.90944857546550    11.22216085340412
C   12   6     2.86362581178706    -2.63237380607947     9.17926416456045
H   13   1     4.39038949912609    -1.24955421540245     9.49899813497433
H   14   1     3.74629220191363    -4.48798724300892     9.47414880959024
C   15   6     2.02478325613682    -2.42177285709634     6.44560829588644
C   16   6     3.88048732735477    -3.58795445234514     4.61402886975252
C   17   6    -0.18412382258602    -1.30464291234259     5.76021113872346
C   18   6    -2.10044360464350    -0.26837831858460     7.71610340967100
C   19   6    -3.08956938670431     2.35282328359417     6.88693925039594
C   20   6    -4.37372924086464    -2.09766595989678     7.93610724222001
C   21   6    -0.83850430601230     0.06372213486173    10.33002307638377
H   22   1     0.38411922151109     1.74281358582432    10.27380136542181
H   23   1    -2.30980003007874     0.45460143924521    11.73986301809809
H   24   1     4.58527064644668    -5.38706904487420     5.36778158031719
H   25   1     5.54944938085014    -2.37631462192748     4.35398898413318
H   26   1     3.06633019150423    -3.94118377050688     2.75255466040884
H   27   1    -4.17727778763735     2.26573369139522     5.12914900961283
H   28   1    -1.52662344944051     3.68001877445626     6.59540397144508
H   29   1    -4.32916174397830     3.13643051467482     8.35225460090378
H   30   1    -5.32329548508442    -2.36691813602939     6.11583672749896
H   31   1    -5.77989366602257    -1.33896741843465     9.25748940450990
H   32   1    -3.79310905208926    -3.96389819310853     8.61386170102686
C   33   6    -1.01100794811226    -1.06331657314144     3.11929490449947
C   34   6     0.37686231036534    -0.33275864505552     1.09165013605873
H   35   1    -3.01671213906703    -1.40297922279997     2.77827895090944
C   36   6    -0.64382707979370    -0.11591880174385    -1.42063131251064
H   37   1     2.35569259782137     0.17174499283897     1.33641070251401
H   38   1    -2.63317482980319    -0.60229203511219    -1.66119700387645
C   39   6     5.01588399354044     2.28654094702299   -10.27677863573407
C   40   6     7.77080404832789     2.15450646451281   -10.27454889780196
H   41   1     4.11782812209845     2.99683739506263   -11.98462609656630
O   42   8     9.12060555425099     2.77825484064970   -12.03801083010553
H   43   1     8.60983853061047     1.41663292301779    -8.48800399433497
[GTO]
1 0
 s    6 1.00
             3047.5249  0.0018347001629433
             457.36951    0.01403730124668
             103.94869   0.068842606114048
             29.210155    0.23218442062076
              9.286663    0.46794134155879
              3.163927    0.36231203217765
 s    3 1.00
             7.8682724   -0.11933240861517
             1.8812885   -0.16085421161283
             0.5442493     1.1434564825515
 s    1 1.00
             0.1687144                   1
 p    3 1.00
             7.8682724   0.068999095584993
             1.8812885    0.31642397975315
             0.5442493    0.74430825237435
 p    1 1.00
             0.1687144                   1
 d    1 1.00
                   0.8                   1

2 0
 s    3 1.00
             18.731137    0.03349459952309
             2.8253937    0.23472694665786
             0.6401217    0.81375731841339
 s    1 1.00
             0.1612778                   1

3 0
 s    6 1.00
             3047.5249  0.0018347001629433
             457.36951    0.01403730124668
             103.94869   0.068842606114048
             29.210155    0.23218442062076
              9.286663    0.46794134155879
              3.163927    0.36231203217765
 s    3 1.00
             7.8682724   -0.11933240861517
             1.8812885   -0.16085421161283
             0.5442493     1.1434564825515
 s    1 1.00
             0.1687144                   1
 p    3 1.00
             7.8682724   0.068999095584993
             1.8812885    0.31642397975315
             0.5442493    0.74430825237435
 p    1 1.00
             0.1687144                   1
 d    1 1.00
                   0.8                   1

4 0
 s    3 1.00
             18.731137    0.03349459952309
             2.8253937    0.23472694665786
             0.6401217    0.81375731841339
 s    1 1.00
             0.1612778                   1

5 0
 s    6 1.00
             3047.5249  0.0018347001629433
             457.36951    0.01403730124668
             103.94869   0.068842606114048
             29.210155    0.23218442062076
              9.286663    0.46794134155879
              3.163927    0.36231203217765
 s    3 1.00
             7.8682724   -0.11933240861517
             1.8812885   -0.16085421161283
             0.5442493     1.1434564825515
 s    1 1.00
             0.1687144                   1
 p    3 1.00
             7.8682724   0.068999095584993
             1.8812885    0.31642397975315
             0.5442493    0.74430825237435
 p    1 1.00
             0.1687144                   1
 d    1 1.00
                   0.8                   1

6 0
 s    3 1.00
             18.731137    0.03349459952309
             2.8253937    0.23472694665786
             0.6401217    0.81375731841339
 s    1 1.00
             0.1612778                   1

7 0
 s    6 1.00
             3047.5249  0.0018347001629433
             457.36951    0.01403730124668
             103.94869   0.068842606114048
             29.210155    0.23218442062076
              9.286663    0.46794134155879
              3.163927    0.36231203217765
 s    3 1.00
             7.8682724   -0.11933240861517
             1.8812885   -0.16085421161283
             0.5442493     1.1434564825515
 s    1 1.00
             0.1687144                   1
 p    3 1.00
             7.8682724   0.068999095584993
             1.8812885    0.31642397975315
             0.5442493    0.74430825237435
 p    1 1.00
             0.1687144                   1
 d    1 1.00
                   0.8                   1

8 0
 s    3 1.00
             18.731137    0.03349459952309
             2.8253937    0.23472694665786
             0.6401217    0.81375731841339
 s    1 1.00
             0.1612778                   1

9 0
 s    3 1.00
             18.731137    0.03349459952309
             2.8253937    0.23472694665786
             0.6401217    0.81375731841339
 s    1 1.00
             0.1612778                   1

10 0
 s    6 1.00
             3047.5249  0.0018347001629433
             457.36951    0.01403730124668
             103.94869   0.068842606114048
             29.210155    0.23218442062076
              9.286663    0.46794134155879
              3.163927    0.36231203217765
 s    3 1.00
             7.8682724   -0.11933240861517
             1.8812885   -0.16085421161283
             0.5442493     1.1434564825515
 s    1 1.00
             0.1687144                   1
 p    3 1.00
             7.8682724   0.068999095584993
             1.8812885    0.31642397975315
             0.5442493    0.74430825237435
 p    1 1.00
             0.1687144                   1
 d    1 1.00
                   0.8                   1

11 0
 s    3 1.00
             18.731137    0.03349459952309
             2.8253937    0.23472694665786
             0.6401217    0.81375731841339
 s    1 1.00
             0.1612778                   1

12 0
 s    6 1.00
             3047.5249  0.0018347001629433
             457.36951    0.01403730124668
             103.94869   0.068842606114048
             29.210155    0.23218442062076
              9.286663    0.46794134155879
              3.163927    0.36231203217765
 s    3 1.00
             7.8682724   -0.11933240861517
             1.8812885   -0.16085421161283
             0.5442493     1.1434564825515
 s    1 1.00
             0.1687144                   1
 p    3 1.00
             7.8682724   0.068999095584993
             1.8812885    0.31642397975315
             0.5442493    0.74430825237435
 p    1 1.00
             0.1687144                   1
 d    1 1.00
                   0.8                   1

13 0
 s    3 1.00
             18.731137    0.03349459952309
             2.8253937    0.23472694665786
             0.6401217    0.81375731841339
 s    1 1.00
             0.1612778                   1

14 0
 s    3 1.00
             18.731137    0.03349459952309
             2.8253937    0.23472694665786
             0.6401217    0.81375731841339
 s    1 1.00
             0.1612778                   1

15 0
 s    6 1.00
             3047.5249  0.0018347001629433
             457.36951    0.01403730124668
             103.94869   0.068842606114048
             29.210155    0.23218442062076
              9.286663    0.46794134155879
              3.163927    0.36231203217765
 s    3 1.00
             7.8682724   -0.11933240861517
             1.8812885   -0.16085421161283
             0.5442493     1.1434564825515
 s    1 1.00
             0.1687144                   1
 p    3 1.00
             7.8682724   0.068999095584993
             1.8812885    0.31642397975315
             0.5442493    0.74430825237435
 p    1 1.00
             0.1687144                   1
 d    1 1.00
                   0.8                   1

16 0
 s    6 1.00
             3047.5249  0.0018347001629433
             457.36951    0.01403730124668
             103.94869   0.068842606114048
             29.210155    0.23218442062076
              9.286663    0.46794134155879
              3.163927    0.36231203217765
 s    3 1.00
             7.8682724   -0.11933240861517
             1.8812885   -0.16085421161283
             0.5442493     1.1434564825515
 s    1 1.00
             0.1687144                   1
 p    3 1.00
             7.8682724   0.068999095584993
             1.8812885    0.31642397975315
             0.5442493    0.74430825237435
 p    1 1.00
             0.1687144                   1
 d    1 1.00
                   0.8                   1

17 0
 s    6 1.00
             3047.5249  0.0018347001629433
             457.36951    0.01403730124668
             103.94869   0.068842606114048
             29.210155    0.23218442062076
              9.286663    0.46794134155879
              3.163927    0.36231203217765
 s    3 1.00
             7.8682724   -0.11933240861517
             1.8812885   -0.16085421161283
             0.5442493     1.1434564825515
 s    1 1.00
             0.1687144                   1
 p    3 1.00
             7.8682724   0.068999095584993
             1.8812885    0.31642397975315
             0.5442493    0.74430825237435
 p    1 1.00
             0.1687144                   1
 d    1 1.00
                   0.8                   1

18 0
 s    6 1.00
             3047.5249  0.0018347001629433
             457.36951    0.01403730124668
             103.94869   0.068842606114048
             29.210155    0.23218442062076
              9.286663    0.46794134155879
              3.163927    0.36231203217765
 s    3 1.00
             7.8682724   -0.11933240861517
             1.8812885   -0.16085421161283
             0.5442493     1.1434564825515
 s    1 1.00
             0.1687144                   1
 p    3 1.00
             7.8682724   0.068999095584993
             1.8812885    0.31642397975315
             0.5442493    0.74430825237435
 p    1 1.00
             0.1687144                   1
 d    1 1.00
                   0.8                   1

19 0
 s    6 1.00
             3047.5249  0.0018347001629433
             457.36951    0.01403730124668
             103.94869   0.068842606114048
             29.210155    0.23218442062076
              9.286663    0.46794134155879
              3.163927    0.36231203217765
 s    3 1.00
             7.8682724   -0.11933240861517
             1.8812885   -0.16085421161283
             0.5442493     1.1434564825515
 s    1 1.00
             0.1687144                   1
 p    3 1.00
             7.8682724   0.068999095584993
             1.8812885    0.31642397975315
             0.5442493    0.74430825237435
 p    1 1.00
             0.1687144                   1
 d    1 1.00
                   0.8                   1

20 0
 s    6 1.00
             3047.5249  0.0018347001629433
             457.36951    0.01403730124668
             103.94869   0.068842606114048
             29.210155    0.23218442062076
              9.286663    0.46794134155879
              3.163927    0.36231203217765
 s    3 1.00
             7.8682724   -0.11933240861517
             1.8812885   -0.16085421161283
             0.5442493     1.1434564825515
 s    1 1.00
             0.1687144                   1
 p    3 1.00
             7.8682724   0.068999095584993
             1.8812885    0.31642397975315
             0.5442493    0.74430825237435
 p    1 1.00
             0.1687144                   1
 d    1 1.00
                   0.8                   1

21 0
 s    6 1.00
             3047.5249  0.0018347001629433
             457.36951    0.01403730124668
             103.94869   0.068842606114048
             29.210155    0.23218442062076
              9.286663    0.46794134155879
              3.163927    0.36231203217765
 s    3 1.00
             7.8682724   -0.11933240861517
             1.8812885   -0.16085421161283
             0.5442493     1.1434564825515
 s    1 1.00
             0.1687144                   1
 p    3 1.00
             7.8682724   0.068999095584993
             1.8812885    0.31642397975315
             0.5442493    0.74430825237435
 p    1 1.00
             0.1687144                   1
 d    1 1.00
                   0.8                   1

22 0
 s    3 1.00
             18.731137    0.03349459952309
             2.8253937    0.23472694665786
             0.6401217    0.81375731841339
 s    1 1.00
             0.1612778                   1

23 0
 s    3 1.00
             18.731137    0.03349459952309
             2.8253937    0.23472694665786
             0.6401217    0.81375731841339
 s    1 1.00
             0.1612778                   1

24 0
 s    3 1.00
             18.731137    0.03349459952309
             2.8253937    0.23472694665786
             0.6401217    0.81375731841339
 s    1 1.00
             0.1612778                   1

25 0
 s    3 1.00
             18.731137    0.03349459952309
             2.8253937    0.23472694665786
             0.6401217    0.81375731841339
 s    1 1.00
             0.1612778                   1

26 0
 s    3 1.00
             18.731137    0.03349459952309
             2.8253937    0.23472694665786
             0.6401217    0.81375731841339
 s    1 1.00
             0.1612778                   1

27 0
 s    3 1.00
             18.731137    0.03349459952309
             2.8253937    0.23472694665786
             0.6401217    0.81375731841339
 s    1 1.00
             0.1612778                   1

28 0
 s    3 1.00
             18.731137    0.03349459952309
             2.8253937    0.23472694665786
             0.6401217    0.81375731841339
 s    1 1.00
             0.1612778                   1

29 0
 s    3 1.00
             18.731137    0.03349459952309
             2.8253937    0.23472694665786
             0.6401217    0.81375731841339
 s    1 1.00
             0.1612778                   1

30 0
 s    3 1.00
             18.731137    0.03349459952309
             2.8253937    0.23472694665786
             0.6401217    0.81375731841339
 s    1 1.00
             0.1612778                   1

31 0
 s    3 1.00
             18.731137    0.03349459952309
             2.8253937    0.23472694665786
             0.6401217    0.81375731841339
 s    1 1.00
             0.1612778                   1

32 0
 s    3 1.00
             18.731137    0.03349459952309
             2.8253937    0.23472694665786
             0.6401217    0.81375731841339
 s    1 1.00
             0.1612778                   1

33 0
 s    6 1.00
             3047.5249  0.0018347001629433
             457.36951    0.01403730124668
             103.94869   0.068842606114048
             29.210155    0.23218442062076
              9.286663    0.46794134155879
              3.163927    0.36231203217765
 s    3 1.00
             7.8682724   -0.11933240861517
             1.8812885   -0.16085421161283
             0.5442493     1.1434564825515
 s    1 1.00
             0.1687144                   1
 p    3 1.00
             7.8682724   0.068999095584993
             1.8812885    0.31642397975315
             0.5442493    0.74430825237435
 p    1 1.00
             0.1687144                   1
 d    1 1.00
                   0.8                   1

34 0
 s    6 1.00
             3047.5249  0.0018347001629433
             457.36951    0.01403730124668
             103.94869   0.068842606114048
             29.210155    0.23218442062076
              9.286663    0.46794134155879
              3.163927    0.36231203217765
 s    3 1.00
             7.8682724   -0.11933240861517
             1.8812885   -0.16085421161283
             0.5442493     1.1434564825515
 s    1 1.00
             0.1687144                   1
 p    3 1.00
             7.8682724   0.068999095584993
             1.8812885    0.31642397975315
             0.5442493    0.74430825237435
 p    1 1.00
             0.1687144                   1
 d    1 1.00
                   0.8                   1

35 0
 s    3 1.00
             18.731137    0.03349459952309
             2.8253937    0.23472694665786
             0.6401217    0.81375731841339
 s    1 1.00
             0.1612778                   1

36 0
 s    6 1.00
             3047.5249  0.0018347001629433
             457.36951    0.01403730124668
             103.94869   0.068842606114048
             29.210155    0.23218442062076
              9.286663    0.46794134155879
              3.163927    0.36231203217765
 s    3 1.00
             7.8682724   -0.11933240861517
             1.8812885   -0.16085421161283
             0.5442493     1.1434564825515
 s    1 1.00
             0.1687144                   1
 p    3 1.00
             7.8682724   0.068999095584993
             1.8812885    0.31642397975315
             0.5442493    0.74430825237435
 p    1 1.00
             0.1687144                   1
 d    1 1.00
                   0.8                   1

37 0
 s    3 1.00
             18.731137    0.03349459952309
             2.8253937    0.23472694665786
             0.6401217    0.81375731841339
 s    1 1.00
             0.1612778                   1

38 0
 s    3 1.00
             18.731137    0.03349459952309
             2.8253937    0.23472694665786
             0.6401217    0.81375731841339
 s    1 1.00
             0.1612778                   1

39 0
 s    6 1.00
             3047.5249  0.0018347001629433
             457.36951    0.01403730124668
             103.94869   0.068842606114048
             29.210155    0.23218442062076
              9.286663    0.46794134155879
              3.163927    0.36231203217765
 s    3 1.00
             7.8682724   -0.11933240861517
             1.8812885   -0.16085421161283
             0.5442493     1.1434564825515
 s    1 1.00
             0.1687144                   1
 p    3 1.00
             7.8682724   0.068999095584993
             1.8812885    0.31642397975315
             0.5442493    0.74430825237435
 p    1 1.00
             0.1687144                   1
 d    1 1.00
                   0.8                   1

40 0
 s    6 1.00
             3047.5249  0.0018347001629433
             457.36951    0.01403730124668
             103.94869   0.068842606114048
             29.210155    0.23218442062076
              9.286663    0.46794134155879
              3.163927    0.36231203217765
 s    3 1.00
             7.8682724   -0.11933240861517
             1.8812885   -0.16085421161283
             0.5442493     1.1434564825515
 s    1 1.00
             0.1687144                   1
 p    3 1.00
             7.8682724   0.068999095584993
             1.8812885    0.31642397975315
             0.5442493    0.74430825237435
 p    1 1.00
             0.1687144                   1
 d    1 1.00
                   0.8                   1

41 0
 s    3 1.00
             18.731137    0.03349459952309
             2.8253937    0.23472694665786
             0.6401217    0.81375731841339
 s    1 1.00
             0.1612778                   1

42 0
 s    6 1.00
             5484.6717   0.001831099805527
             825.23495   0.013950098518422
             188.04696    0.06844509273075
               52.9645    0.23271427528445
              16.89757    0.47019295006289
             5.7996353    0.35852086192309
 s    3 1.00
             15.539616   -0.11077750382508
             3.5999336   -0.14802630511126
             1.0137618     1.1307670390447
 s    1 1.00
             0.2700058                   1
 p    3 1.00
             15.539616   0.070874299543311
             3.5999336    0.33975279781076
             1.0137618    0.72715859531445
 p    1 1.00
             0.2700058                   1
 d    1 1.00
                   0.8                   1

43 0
 s    3 1.00
             18.731137    0.03349459952309
             2.8253937    0.23472694665786
             0.6401217    0.81375731841339
 s    1 1.00
             0.1612778                   1

[5d]
[7f]
[9g]

[MO]
 Sym= A
 Ene=               0
 Spin= Alpha
 Occup=    1.00000
   1    -1.3788411556325e-05
   2    -0.00010377497544441
   3    0.0013853966419187
   4    -4.1240229499671e-05
   5    1.6798290762107e-05
   6    9.5876643780775e-06
   7    -5.67636596855e-05
   8    0.00010499119724298
   9    -0.0013478065494583
  10    4.1734970493841e-05
  11    4.0340124867377e-05
  12    5.1548576614885e-06
  13    4.4033809497393e-06
  14    -1.5926755609527e-06
  15    -4.3460242076581e-05
  16    1.7203189160979e-06
  17    2.9644565827901e-05
  18    0.00015752186141565
  19    -0.0028357405254932
  20    -2.1255406534345e-05
  21    -1.5139694235609e-05
  22    7.9233268650136e-05
  23    -0.001821812534449
  24    -0.00017517875648894
  25    -0.00048283865031395
  26    -4.8072690038689e-05
  27    2.9086612821813e-05
  28    3.3831813398157e-06
  29    -3.0664852962097e-05
  30    -2.9220103185227e-05
  31    -7.274116467077e-05
  32    -0.00040809409290812
  33    -6.9378700222404e-05
  34    -0.00043577475339767
  35    0.0059995390632091
  36    0.00010857954139826
  37    3.0788564461887e-05
  38    -8.5305823228458e-05
  39    0.0027884973517128
  40    -0.00062895357041662
  41    0.0015400509115608
  42    -2.2156112660434e-05
  43    -5.124296233793e-05
  44    -4.5312143343548e-05
  45    0.00016516405180713
  46    -5.9688498720766e-06
  47    6.4503116609851e-05
  48    0.00057666109140166
  49    1.0073207038769e-06
  50    -9.3136549300785e-05
  51    -0.0044605003812069
  52    -0.0003954153992556
  53    1.6114578607203e-05
  54    4.4214333010314e-05
  55    0.0048450579754909
  56    -0.00021513729558575
  57    -0.00021737880921222
  58    0.00021539990186135
  59    -2.7903689799906e-05
  60    -0.00011338771468107
  61    -0.00012142798333009
  62    2.5396787645352e-05
  63    -0.00027653047777823
  64    -0.00026736473401894
  65    -3.6732377641524e-07
  66    1.4905844729289e-06
  67    -1.0444665330546e-07
  68    -9.3711531441384e-07
  69    -1.0628794215871e-06
  70    7.307388019089e-07
  71    -1.0172608665432e-06
  72    1.8329196083669e-08
  73    2.718972192319e-06
  74    2.313818941497e-06
  75    -1.0060849087385e-06
  76    3.4320563235357e-07
  77    2.0640513277895e-07
  78    9.2898988615653e-08
  79    1.683838672397e-07
  80    2.1029583227996e-07
  81    2.8778858841038e-07
  82    1.7871535082172e-06
  83    2.9478295242542e-07
  84    2.6928503332972e-06
  85    4.2642551097248e-06
  86    -3.3461482106219e-07
  87    8.8469394206027e-07
  88    -3.8320653782607e-08
  89    2.696974596397e-06
  90    -1.1050742210258e-05
  91    -5.076487913052e-06
  92    -1.5156802025969e-07
  93    -2.5327570615603e-07
  94    7.5652967086375e-07
  95    -4.9137763814653e-07
  96    1.0398934921455e-07
  97    1.2877914966299e-06
  98    2.1276202472973e-06
  99    -1.1049105901294e-06
 100    -2.8345421136589e-06
 101    -7.3801717890396e-07
 102    -3.8079943144326e-06
 103    8.8854690111382e-05
 104    -2.2105302456397e-06
 105    4.9741911538518e-08
 106    -9.6802860926594e-07
 107    -2.1333284614824e-05
 108    2.5367759970397e-05
 109    -4.2565675997143e-05
 110    6.6011773581324e-07
 111    1.6954821385229e-06
 112    -7.2073523023595e-07
 113    -2.4458664565421e-08
 114    -1.1884559577255e-06
 115    3.6003277883292e-07
 116    3.0753162397994e-06
 117    -1.9148728941557e-05
 118    1.801212046331e-07
 119    1.5411673693072e-06
 120    -1.6102025735436e-06
 121    1.140067296757e-05
 122    -1.8120794773695e-05
 123    4.5696414775513e-06
 124    7.9148863911626e-07
 125    -9.6967239282898e-08
 126    -1.2093868342254e-06
 127    -5.9461820072658e-07
 128    2.0620868223482e-07
 129    1.1020483594446e-06
 130    5.7211033814138e-06
 131    -3.4874888184656e-05
 132    4.8191572443976e-06
 133    -1.2779631941177e-06
 134    -2.6134263468727e-06
 135    -0.0001050550713682
 136    2.0067341803101e-05
 137    6.3322810605189e-05
 138    -2.1790088130871e-06
 139    -3.6323776990821e-07
 140    2.8200714177753e-06
 141    -2.3257502198619e-07
 142    2.7414819983706e-06
 143    6.3838077301536e-07
 144    3.6949656819574e-06
 145    -7.3348451300242e-05
 146    7.0414041685577e-07
 147    3.7436636250927e-08
 148    5.1575839731578e-06
 149    -3.599767326841e-05
 150    3.7078182498384e-05
 151    -1.8729035810701e-05
 152    -4.0562599972284e-07
 153    1.7828155045731e-07
 154    -1.9499686861701e-06
 155    -7.0381160265335e-07
 156    1.534837209824e-08
 157    6.8529766415172e-07
 158    6.127005853978e-06
 159    -3.2198606405327e-05
 160    8.3459853860336e-07
 161    3.6548076689552e-07
 162    -9.027567332498e-07
 163    -6.2705820025407e-06
 164    1.2908851818058e-05
 165    4.1831031500056e-06
 166    6.2291192574421e-07
 167    9.1713089174544e-08
 168    -2.8839388682026e-08
 169    8.3514878505773e-07
 170    2.0620376289927e-07
 171    -1.3569739767184e-08
 172    -6.7228663450903e-07
 173    1.1020411740066e-07
 174    -1.0951972920104e-06
 175    -6.8523374249198e-08
 176    2.1108349963717e-06
 177    1.6451364240059e-05
 178    -6.8992966787865e-07
 179    3.3140090271968e-06
 180    -1.9413050187095e-07
 181    1.5804998584931e-06
 182    -2.2029692128629e-07
 183    1.1217914514299e-06
 184    1.1420786469844e-06
 185    -6.470678425156e-07
 186    -4.7661396906927e-06
 187    3.7805613402191e-05
 188    -1.2577778816171e-06
 189    -3.590995080243e-07
 190    -1.4715374646979e-06
 191    -3.7811130660317e-06
 192    -8.6338369934371e-06
 193    -1.635842859986e-05
 194    8.4578951025442e-07
 195    1.0260191614226e-06
 196    1.1693707749269e-06
 197    -6.7255763605385e-07
 198    5.9056654202008e-07
 199    -1.799042261525e-06
 200    1.2098745739238e-06
 201    -5.9768038036668e-07
 202    -9.4270422925398e-07
 203    -1.1525918151289e-06
 204    -7.3191722317893e-06
 205    2.9574609203991e-06
 206    -1.5402334793388e-07
 207    3.2216523943961e-06
 208    -4.2756820652603e-07
 209    2.2803060828235e-06
 210    3.9368215294476e-06
 211    1.5346638966002e-06
 212    2.7370418965926e-06
 213    7.8649906033773e-07
 214    -4.1453551102068e-06
 215    -3.7335596587001e-06
 216    1.923811072865e-05
 217    1.3056678362524e-06
 218    3.4433613776899e-06
 219    9.0552756881811e-08
 220    -4.3361171239572e-06
 221    -4.910076988725e-06
 222    -3.187960839814e-05
 223    0.00043455634566093
 224    3.2734338391143e-06
 225    4.5340995766496e-06
 226    -6.2418827494534e-06
 227    0.00012639747069584
 228    5.2015248071321e-05
 229    -0.00020262859957778
 230    8.3895496681261e-06
 231    -7.2380184388742e-06
 232    -7.6175035432867e-06
 233    3.4758646494663e-06
 234    3.2872456841002e-06
 235    5.0098537650319e-06
 236    2.4863459252154e-05
 237    -0.000683671062617
 238    -8.2039222108826e-06
 239    -8.9594297460414e-06
 240    2.3190230665108e-05
 241    0.00026758777073804
 242    7.7808635930466e-05
 243    -6.4354530576637e-05
 244    -1.2517966564477e-05
 245    7.2860128518715e-06
 246    8.4693748662803e-06
 247    -5.5142371454756e-07
 248    4.2821833949334e-09
 249    -2.7052224179454e-06
 250    -1.3029884219667e-05
 251    -3.0726254699076e-06
 252    -1.787094381549e-05
 253    0.00057936409001932
 254    -1.171707247334e-05
 255    -2.691951426547e-06
 256    -2.6401601586779e-05
 257    0.00035551912254054
 258    9.5839190231104e-05
 259    0.00027346727697627
 260    4.3585024813313e-06
 261     2.26042959938e-06
 262    -6.5909014122258e-06
 263    1.1278349440999e-07
 264    8.9198991975873e-06
 265    -1.983325206053e-05
 266    -7.1564249991537e-06
 267    2.5201318053199e-05
 268    0.0001141263117293
 269    5.6902680120126e-05
 270    0.00015345472998528
 271    -0.0035477219226507
 272    -0.00013170428913693
 273    5.1720482370928e-05
 274    -0.00012139735614536
 275    -0.0028942310263275
 276    -0.00098095071507577
 277    0.0029312005078574
 278    0.00013758066202229
 279    0.0003492288949327
 280    -4.90353725866e-05