[Molden Format]
made by pyscf v[2.0.1]
[Atoms] (AU)
C   1   6     0.69100024066471     0.64692934207205    -3.48223131169301
H   2   1     2.68052439830868     1.13355088658700    -3.25784032593313
C   3   6    -0.36286361513219     0.85440132524594    -5.97030179418974
H   4   1    -2.35448549047279     0.36322488579172    -6.17995817793143
C   5   6     0.93697958957450     1.61209284601821    -8.05828437677121
H   6   1     2.28684852848462     3.15852966115860    -7.89296704602693
C   7   6     0.63106041134958     0.47904579632082   -10.50346361691732
H   8   1    -0.72718870892227    -1.06897620367389   -10.63951300078030
H   9   1     1.55630230933075    -1.92953025305990    12.99630010416247
C   10   6     0.75233899775814    -2.21270439606481    11.10705728102219
H   11   1    -0.43433408177274    -3.90944857546550    11.22216085340412
C   12   6     2.86362581178706    -2.63237380607947     9.17926416456045
H   13   1     4.39038949912609    -1.24955421540245     9.49899813497433
H   14   1     3.74629220191363    -4.48798724300892     9.47414880959024
C   15   6     2.02478325613682    -2.42177285709634     6.44560829588644
C   16   6     3.88048732735477    -3.58795445234514     4.61402886975252
C   17   6    -0.18412382258602    -1.30464291234259     5.76021113872346
C   18   6    -2.10044360464350    -0.26837831858460     7.71610340967100
C   19   6    -3.08956938670431     2.35282328359417     6.88693925039594
C   20   6    -4.37372924086464    -2.09766595989678     7.93610724222001
C   21   6    -0.83850430601230     0.06372213486173    10.33002307638377
H   22   1     0.38411922151109     1.74281358582432    10.27380136542181
H   23   1    -2.30980003007874     0.45460143924521    11.73986301809809
H   24   1     4.58527064644668    -5.38706904487420     5.36778158031719
H   25   1     5.54944938085014    -2.37631462192748     4.35398898413318
H   26   1     3.06633019150423    -3.94118377050688     2.75255466040884
H   27   1    -4.17727778763735     2.26573369139522     5.12914900961283
H   28   1    -1.52662344944051     3.68001877445626     6.59540397144508
H   29   1    -4.32916174397830     3.13643051467482     8.35225460090378
H   30   1    -5.32329548508442    -2.36691813602939     6.11583672749896
H   31   1    -5.77989366602257    -1.33896741843465     9.25748940450990
H   32   1    -3.79310905208926    -3.96389819310853     8.61386170102686
C   33   6    -1.01100794811226    -1.06331657314144     3.11929490449947
C   34   6     0.37686231036534    -0.33275864505552     1.09165013605873
H   35   1    -3.01671213906703    -1.40297922279997     2.77827895090944
C   36   6    -0.64382707979370    -0.11591880174385    -1.42063131251064
H   37   1     2.35569259782137     0.17174499283897     1.33641070251401
H   38   1    -2.63317482980319    -0.60229203511219    -1.66119700387645
C   39   6     1.88057107480096     1.17167710004378   -12.63318625924474
C   40   6     1.43424299107759    -0.10242214041261   -15.03828188134704
H   41   1     3.25774949416826     2.69847908646217   -12.62832443574420
O   42   8     2.48751113017790     0.42264932688836   -17.02215443525925
H   43   1     0.01015752982003    -1.65333508727432   -14.95564685399208
[GTO]
1 0
 s    6 1.00
             3047.5249  0.0018347001629433
             457.36951    0.01403730124668
             103.94869   0.068842606114048
             29.210155    0.23218442062076
              9.286663    0.46794134155879
              3.163927    0.36231203217765
 s    3 1.00
             7.8682724   -0.11933240861517
             1.8812885   -0.16085421161283
             0.5442493     1.1434564825515
 s    1 1.00
             0.1687144                   1
 p    3 1.00
             7.8682724   0.068999095584993
             1.8812885    0.31642397975315
             0.5442493    0.74430825237435
 p    1 1.00
             0.1687144                   1
 d    1 1.00
                   0.8                   1

2 0
 s    3 1.00
             18.731137    0.03349459952309
             2.8253937    0.23472694665786
             0.6401217    0.81375731841339
 s    1 1.00
             0.1612778                   1

3 0
 s    6 1.00
             3047.5249  0.0018347001629433
             457.36951    0.01403730124668
             103.94869   0.068842606114048
             29.210155    0.23218442062076
              9.286663    0.46794134155879
              3.163927    0.36231203217765
 s    3 1.00
             7.8682724   -0.11933240861517
             1.8812885   -0.16085421161283
             0.5442493     1.1434564825515
 s    1 1.00
             0.1687144                   1
 p    3 1.00
             7.8682724   0.068999095584993
             1.8812885    0.31642397975315
             0.5442493    0.74430825237435
 p    1 1.00
             0.1687144                   1
 d    1 1.00
                   0.8                   1

4 0
 s    3 1.00
             18.731137    0.03349459952309
             2.8253937    0.23472694665786
             0.6401217    0.81375731841339
 s    1 1.00
             0.1612778                   1

5 0
 s    6 1.00
             3047.5249  0.0018347001629433
             457.36951    0.01403730124668
             103.94869   0.068842606114048
             29.210155    0.23218442062076
              9.286663    0.46794134155879
              3.163927    0.36231203217765
 s    3 1.00
             7.8682724   -0.11933240861517
             1.8812885   -0.16085421161283
             0.5442493     1.1434564825515
 s    1 1.00
             0.1687144                   1
 p    3 1.00
             7.8682724   0.068999095584993
             1.8812885    0.31642397975315
             0.5442493    0.74430825237435
 p    1 1.00
             0.1687144                   1
 d    1 1.00
                   0.8                   1

6 0
 s    3 1.00
             18.731137    0.03349459952309
             2.8253937    0.23472694665786
             0.6401217    0.81375731841339
 s    1 1.00
             0.1612778                   1

7 0
 s    6 1.00
             3047.5249  0.0018347001629433
             457.36951    0.01403730124668
             103.94869   0.068842606114048
             29.210155    0.23218442062076
              9.286663    0.46794134155879
              3.163927    0.36231203217765
 s    3 1.00
             7.8682724   -0.11933240861517
             1.8812885   -0.16085421161283
             0.5442493     1.1434564825515
 s    1 1.00
             0.1687144                   1
 p    3 1.00
             7.8682724   0.068999095584993
             1.8812885    0.31642397975315
             0.5442493    0.74430825237435
 p    1 1.00
             0.1687144                   1
 d    1 1.00
                   0.8                   1

8 0
 s    3 1.00
             18.731137    0.03349459952309
             2.8253937    0.23472694665786
             0.6401217    0.81375731841339
 s    1 1.00
             0.1612778                   1

9 0
 s    3 1.00
             18.731137    0.03349459952309
             2.8253937    0.23472694665786
             0.6401217    0.81375731841339
 s    1 1.00
             0.1612778                   1

10 0
 s    6 1.00
             3047.5249  0.0018347001629433
             457.36951    0.01403730124668
             103.94869   0.068842606114048
             29.210155    0.23218442062076
              9.286663    0.46794134155879
              3.163927    0.36231203217765
 s    3 1.00
             7.8682724   -0.11933240861517
             1.8812885   -0.16085421161283
             0.5442493     1.1434564825515
 s    1 1.00
             0.1687144                   1
 p    3 1.00
             7.8682724   0.068999095584993
             1.8812885    0.31642397975315
             0.5442493    0.74430825237435
 p    1 1.00
             0.1687144                   1
 d    1 1.00
                   0.8                   1

11 0
 s    3 1.00
             18.731137    0.03349459952309
             2.8253937    0.23472694665786
             0.6401217    0.81375731841339
 s    1 1.00
             0.1612778                   1

12 0
 s    6 1.00
             3047.5249  0.0018347001629433
             457.36951    0.01403730124668
             103.94869   0.068842606114048
             29.210155    0.23218442062076
              9.286663    0.46794134155879
              3.163927    0.36231203217765
 s    3 1.00
             7.8682724   -0.11933240861517
             1.8812885   -0.16085421161283
             0.5442493     1.1434564825515
 s    1 1.00
             0.1687144                   1
 p    3 1.00
             7.8682724   0.068999095584993
             1.8812885    0.31642397975315
             0.5442493    0.74430825237435
 p    1 1.00
             0.1687144                   1
 d    1 1.00
                   0.8                   1

13 0
 s    3 1.00
             18.731137    0.03349459952309
             2.8253937    0.23472694665786
             0.6401217    0.81375731841339
 s    1 1.00
             0.1612778                   1

14 0
 s    3 1.00
             18.731137    0.03349459952309
             2.8253937    0.23472694665786
             0.6401217    0.81375731841339
 s    1 1.00
             0.1612778                   1

15 0
 s    6 1.00
             3047.5249  0.0018347001629433
             457.36951    0.01403730124668
             103.94869   0.068842606114048
             29.210155    0.23218442062076
              9.286663    0.46794134155879
              3.163927    0.36231203217765
 s    3 1.00
             7.8682724   -0.11933240861517
             1.8812885   -0.16085421161283
             0.5442493     1.1434564825515
 s    1 1.00
             0.1687144                   1
 p    3 1.00
             7.8682724   0.068999095584993
             1.8812885    0.31642397975315
             0.5442493    0.74430825237435
 p    1 1.00
             0.1687144                   1
 d    1 1.00
                   0.8                   1

16 0
 s    6 1.00
             3047.5249  0.0018347001629433
             457.36951    0.01403730124668
             103.94869   0.068842606114048
             29.210155    0.23218442062076
              9.286663    0.46794134155879
              3.163927    0.36231203217765
 s    3 1.00
             7.8682724   -0.11933240861517
             1.8812885   -0.16085421161283
             0.5442493     1.1434564825515
 s    1 1.00
             0.1687144                   1
 p    3 1.00
             7.8682724   0.068999095584993
             1.8812885    0.31642397975315
             0.5442493    0.74430825237435
 p    1 1.00
             0.1687144                   1
 d    1 1.00
                   0.8                   1

17 0
 s    6 1.00
             3047.5249  0.0018347001629433
             457.36951    0.01403730124668
             103.94869   0.068842606114048
             29.210155    0.23218442062076
              9.286663    0.46794134155879
              3.163927    0.36231203217765
 s    3 1.00
             7.8682724   -0.11933240861517
             1.8812885   -0.16085421161283
             0.5442493     1.1434564825515
 s    1 1.00
             0.1687144                   1
 p    3 1.00
             7.8682724   0.068999095584993
             1.8812885    0.31642397975315
             0.5442493    0.74430825237435
 p    1 1.00
             0.1687144                   1
 d    1 1.00
                   0.8                   1

18 0
 s    6 1.00
             3047.5249  0.0018347001629433
             457.36951    0.01403730124668
             103.94869   0.068842606114048
             29.210155    0.23218442062076
              9.286663    0.46794134155879
              3.163927    0.36231203217765
 s    3 1.00
             7.8682724   -0.11933240861517
             1.8812885   -0.16085421161283
             0.5442493     1.1434564825515
 s    1 1.00
             0.1687144                   1
 p    3 1.00
             7.8682724   0.068999095584993
             1.8812885    0.31642397975315
             0.5442493    0.74430825237435
 p    1 1.00
             0.1687144                   1
 d    1 1.00
                   0.8                   1

19 0
 s    6 1.00
             3047.5249  0.0018347001629433
             457.36951    0.01403730124668
             103.94869   0.068842606114048
             29.210155    0.23218442062076
              9.286663    0.46794134155879
              3.163927    0.36231203217765
 s    3 1.00
             7.8682724   -0.11933240861517
             1.8812885   -0.16085421161283
             0.5442493     1.1434564825515
 s    1 1.00
             0.1687144                   1
 p    3 1.00
             7.8682724   0.068999095584993
             1.8812885    0.31642397975315
             0.5442493    0.74430825237435
 p    1 1.00
             0.1687144                   1
 d    1 1.00
                   0.8                   1

20 0
 s    6 1.00
             3047.5249  0.0018347001629433
             457.36951    0.01403730124668
             103.94869   0.068842606114048
             29.210155    0.23218442062076
              9.286663    0.46794134155879
              3.163927    0.36231203217765
 s    3 1.00
             7.8682724   -0.11933240861517
             1.8812885   -0.16085421161283
             0.5442493     1.1434564825515
 s    1 1.00
             0.1687144                   1
 p    3 1.00
             7.8682724   0.068999095584993
             1.8812885    0.31642397975315
             0.5442493    0.74430825237435
 p    1 1.00
             0.1687144                   1
 d    1 1.00
                   0.8                   1

21 0
 s    6 1.00
             3047.5249  0.0018347001629433
             457.36951    0.01403730124668
             103.94869   0.068842606114048
             29.210155    0.23218442062076
              9.286663    0.46794134155879
              3.163927    0.36231203217765
 s    3 1.00
             7.8682724   -0.11933240861517
             1.8812885   -0.16085421161283
             0.5442493     1.1434564825515
 s    1 1.00
             0.1687144                   1
 p    3 1.00
             7.8682724   0.068999095584993
             1.8812885    0.31642397975315
             0.5442493    0.74430825237435
 p    1 1.00
             0.1687144                   1
 d    1 1.00
                   0.8                   1

22 0
 s    3 1.00
             18.731137    0.03349459952309
             2.8253937    0.23472694665786
             0.6401217    0.81375731841339
 s    1 1.00
             0.1612778                   1

23 0
 s    3 1.00
             18.731137    0.03349459952309
             2.8253937    0.23472694665786
             0.6401217    0.81375731841339
 s    1 1.00
             0.1612778                   1

24 0
 s    3 1.00
             18.731137    0.03349459952309
             2.8253937    0.23472694665786
             0.6401217    0.81375731841339
 s    1 1.00
             0.1612778                   1

25 0
 s    3 1.00
             18.731137    0.03349459952309
             2.8253937    0.23472694665786
             0.6401217    0.81375731841339
 s    1 1.00
             0.1612778                   1

26 0
 s    3 1.00
             18.731137    0.03349459952309
             2.8253937    0.23472694665786
             0.6401217    0.81375731841339
 s    1 1.00
             0.1612778                   1

27 0
 s    3 1.00
             18.731137    0.03349459952309
             2.8253937    0.23472694665786
             0.6401217    0.81375731841339
 s    1 1.00
             0.1612778                   1

28 0
 s    3 1.00
             18.731137    0.03349459952309
             2.8253937    0.23472694665786
             0.6401217    0.81375731841339
 s    1 1.00
             0.1612778                   1

29 0
 s    3 1.00
             18.731137    0.03349459952309
             2.8253937    0.23472694665786
             0.6401217    0.81375731841339
 s    1 1.00
             0.1612778                   1

30 0
 s    3 1.00
             18.731137    0.03349459952309
             2.8253937    0.23472694665786
             0.6401217    0.81375731841339
 s    1 1.00
             0.1612778                   1

31 0
 s    3 1.00
             18.731137    0.03349459952309
             2.8253937    0.23472694665786
             0.6401217    0.81375731841339
 s    1 1.00
             0.1612778                   1

32 0
 s    3 1.00
             18.731137    0.03349459952309
             2.8253937    0.23472694665786
             0.6401217    0.81375731841339
 s    1 1.00
             0.1612778                   1

33 0
 s    6 1.00
             3047.5249  0.0018347001629433
             457.36951    0.01403730124668
             103.94869   0.068842606114048
             29.210155    0.23218442062076
              9.286663    0.46794134155879
              3.163927    0.36231203217765
 s    3 1.00
             7.8682724   -0.11933240861517
             1.8812885   -0.16085421161283
             0.5442493     1.1434564825515
 s    1 1.00
             0.1687144                   1
 p    3 1.00
             7.8682724   0.068999095584993
             1.8812885    0.31642397975315
             0.5442493    0.74430825237435
 p    1 1.00
             0.1687144                   1
 d    1 1.00
                   0.8                   1

34 0
 s    6 1.00
             3047.5249  0.0018347001629433
             457.36951    0.01403730124668
             103.94869   0.068842606114048
             29.210155    0.23218442062076
              9.286663    0.46794134155879
              3.163927    0.36231203217765
 s    3 1.00
             7.8682724   -0.11933240861517
             1.8812885   -0.16085421161283
             0.5442493     1.1434564825515
 s    1 1.00
             0.1687144                   1
 p    3 1.00
             7.8682724   0.068999095584993
             1.8812885    0.31642397975315
             0.5442493    0.74430825237435
 p    1 1.00
             0.1687144                   1
 d    1 1.00
                   0.8                   1

35 0
 s    3 1.00
             18.731137    0.03349459952309
             2.8253937    0.23472694665786
             0.6401217    0.81375731841339
 s    1 1.00
             0.1612778                   1

36 0
 s    6 1.00
             3047.5249  0.0018347001629433
             457.36951    0.01403730124668
             103.94869   0.068842606114048
             29.210155    0.23218442062076
              9.286663    0.46794134155879
              3.163927    0.36231203217765
 s    3 1.00
             7.8682724   -0.11933240861517
             1.8812885   -0.16085421161283
             0.5442493     1.1434564825515
 s    1 1.00
             0.1687144                   1
 p    3 1.00
             7.8682724   0.068999095584993
             1.8812885    0.31642397975315
             0.5442493    0.74430825237435
 p    1 1.00
             0.1687144                   1
 d    1 1.00
                   0.8                   1

37 0
 s    3 1.00
             18.731137    0.03349459952309
             2.8253937    0.23472694665786
             0.6401217    0.81375731841339
 s    1 1.00
             0.1612778                   1

38 0
 s    3 1.00
             18.731137    0.03349459952309
             2.8253937    0.23472694665786
             0.6401217    0.81375731841339
 s    1 1.00
             0.1612778                   1

39 0
 s    6 1.00
             3047.5249  0.0018347001629433
             457.36951    0.01403730124668
             103.94869   0.068842606114048
             29.210155    0.23218442062076
              9.286663    0.46794134155879
              3.163927    0.36231203217765
 s    3 1.00
             7.8682724   -0.11933240861517
             1.8812885   -0.16085421161283
             0.5442493     1.1434564825515
 s    1 1.00
             0.1687144                   1
 p    3 1.00
             7.8682724   0.068999095584993
             1.8812885    0.31642397975315
             0.5442493    0.74430825237435
 p    1 1.00
             0.1687144                   1
 d    1 1.00
                   0.8                   1

40 0
 s    6 1.00
             3047.5249  0.0018347001629433
             457.36951    0.01403730124668
             103.94869   0.068842606114048
             29.210155    0.23218442062076
              9.286663    0.46794134155879
              3.163927    0.36231203217765
 s    3 1.00
             7.8682724   -0.11933240861517
             1.8812885   -0.16085421161283
             0.5442493     1.1434564825515
 s    1 1.00
             0.1687144                   1
 p    3 1.00
             7.8682724   0.068999095584993
             1.8812885    0.31642397975315
             0.5442493    0.74430825237435
 p    1 1.00
             0.1687144                   1
 d    1 1.00
                   0.8                   1

41 0
 s    3 1.00
             18.731137    0.03349459952309
             2.8253937    0.23472694665786
             0.6401217    0.81375731841339
 s    1 1.00
             0.1612778                   1

42 0
 s    6 1.00
             5484.6717   0.001831099805527
             825.23495   0.013950098518422
             188.04696    0.06844509273075
               52.9645    0.23271427528445
              16.89757    0.47019295006289
             5.7996353    0.35852086192309
 s    3 1.00
             15.539616   -0.11077750382508
             3.5999336   -0.14802630511126
             1.0137618     1.1307670390447
 s    1 1.00
             0.2700058                   1
 p    3 1.00
             15.539616   0.070874299543311
             3.5999336    0.33975279781076
             1.0137618    0.72715859531445
 p    1 1.00
             0.2700058                   1
 d    1 1.00
                   0.8                   1

43 0
 s    3 1.00
             18.731137    0.03349459952309
             2.8253937    0.23472694665786
             0.6401217    0.81375731841339
 s    1 1.00
             0.1612778                   1

[5d]
[7f]
[9g]

[MO]
 Sym= A
 Ene=               0
 Spin= Alpha
 Occup=    1.00000
   1    -2.345251916794e-06
   2    -1.0897207805521e-05
   3    -0.00015676881838543
   4    -4.5565634850807e-06
   5    -3.5929736235419e-05
   6    1.0265708007907e-05
   7    0.00018356835735603
   8    0.00021149167192955
   9    -0.00039072837795823
  10    1.2713656851331e-05
  11    1.2425048769227e-05
  12    -1.1615204158905e-06
  13    -2.9198763662233e-06
  14    2.505496766498e-06
  15    -2.4411758021575e-05
  16    -3.5994950159634e-05
  17    8.1597148716472e-06
  18    -1.7861886612272e-05
  19    -0.001425076193369
  20    -2.7320071056914e-05
  21    1.2940106063913e-05
  22    6.9175228088829e-05
  23    -0.00031785631434179
  24    -8.977545671519e-05
  25    0.00076647204382641
  26    -4.4164407341399e-05
  27    2.1079177518881e-05
  28    1.8047918445211e-05
  29    -3.0584599121387e-05
  30    3.2911029998128e-05
  31    4.6811992179385e-06
  32    4.5549207153593e-05
  33    -5.6970894806749e-05
  34    -0.00035054523905468
  35    0.0051300709927587
  36    5.4738413963358e-05
  37    -7.1171565115187e-06
  38    -0.0001412796965267
  39    -0.0011346984856171
  40    -0.0015808556727891
  41    -0.0012760839300431
  42    0.00013640461946279
  43    -1.5710646378495e-05
  44    8.6830593889691e-05
  45    -1.6271783067805e-05
  46    4.6190641353439e-05
  47    3.0883751905654e-05
  48    0.00032666310518694
  49    -2.1390085282171e-06
  50    -0.0001118559558997
  51    -0.0039949816243309
  52    3.3684126809449e-05
  53    0.00016129956410208
  54    0.00035513011447009
  55    -0.00063010903341613
  56    -0.0019257431219746
  57    -0.0036265769657427
  58    -8.6463547256788e-05
  59    -0.00012699414566023
  60    -0.00016085498887899
  61    3.6269052152351e-05
  62    0.00011008503880667
  63    -0.00030891468745898
  64    -0.00010024278725922
  65    5.4766945221959e-08
  66    1.2100062715326e-06
  67    -4.8975154082881e-08
  68    -5.3206585642866e-07
  69    -1.6878185062335e-06
  70    3.3053585557816e-07
  71    -3.8594298423671e-07
  72    2.4424138173096e-07
  73    1.2120209808677e-06
  74    -3.4510162825159e-07
  75    -1.6667767387673e-06
  76    1.5119456243019e-07
  77    9.3548088805323e-08
  78    5.6641931927529e-08
  79    1.8956267466219e-08
  80    7.9179713363775e-08
  81    6.9480190680894e-08
  82    3.4410823392856e-07
  83    1.3278232759375e-07
  84    9.5871167501247e-07
  85    -2.3060806880099e-06
  86    1.1864929886549e-07
  87    -8.1762695867895e-08
  88    1.4464864089639e-07
  89    1.5483526681078e-06
  90    -2.6779774284731e-06
  91    -2.4091977259816e-07
  92    -1.1230651128408e-07
  93    -1.7442427790349e-07
  94    4.013636684304e-07
  95    -1.6273411936899e-07
  96    3.8473409524484e-08
  97    5.3421998100906e-07
  98    -7.9474953297404e-08
  99    -7.6949172271378e-08
 100    -3.5617203693465e-07
 101    -2.5267461958458e-07
 102    -5.5711685032763e-07
 103    3.4606719432518e-05
 104    -4.1713703996829e-07
 105    4.0474656880456e-07
 106    -1.213289182217e-06
 107    -1.1810431394906e-05
 108    1.3458246228383e-05
 109    -8.0340305620227e-06
 110    5.522669159254e-07
 111    7.6918657281309e-07
 112    -3.4681422403138e-07
 113    -6.4852745443018e-07
 114    -7.4047092347574e-07
 115    3.8327931318658e-07
 116    4.0924640466815e-06
 117    -1.6295070999783e-05
 118    -2.5326975402636e-08
 119    3.4507890443168e-07
 120    -1.015458741959e-06
 121    3.4676112465675e-06
 122    -4.1380626189894e-06
 123    1.0261222429406e-05
 124    2.7506714809193e-07
 125    -3.8996124681919e-07
 126    -2.1001632539743e-07
 127    4.0533284916181e-08
 128    -5.7066791070536e-08
 129    4.8045144372524e-07
 130    4.8756554217454e-06
 131     1.66267287814e-05
 132    2.9549586699713e-06
 133    1.549328220614e-06
 134    -3.51062795396e-06
 135    -5.0190880078068e-05
 136    5.7779466906791e-08
 137    2.5785041259345e-08
 138    -1.0856032986114e-07
 139    2.4204218200048e-07
 140    1.2803792446081e-06
 141    -3.048359259234e-07
 142    8.3965917320085e-07
 143    -3.0800935662119e-08
 144    -1.2143213277182e-06
 145    -1.7583408261282e-05
 146    -4.0156182164129e-07
 147    -1.1997081513905e-06
 148    2.7290928163237e-06
 149    -6.6890343317986e-06
 150    2.3905189611905e-05
 151    -1.1491313491117e-05
 152    -1.200903726013e-07
 153    1.2380124530144e-07
 154    -1.1078499714648e-06
 155    -2.8876669266116e-07
 156    -4.8030658521905e-07
 157    3.4185726095331e-07
 158    2.6492022234724e-06
 159    -1.9514623584571e-05
 160    -1.3200763399736e-07
 161    6.4843028971675e-07
 162    -6.8657118228182e-07
 163    -4.5001524575209e-06
 164    7.4516259668685e-06
 165    9.2924472902377e-07
 166    5.6511297942285e-07
 167    -2.6585644392915e-07
 168    1.3277030979089e-07
 169    3.0177213729609e-07
 170    4.3207581313184e-07
 171    1.5701011406204e-08
 172    2.4926067517139e-07
 173    3.4931857133546e-06
 174    1.908838316248e-07
 175    -1.179975402344e-07
 176    5.1723898993072e-07
 177    6.8084549407042e-06
 178    2.2419307129727e-06
 179    4.1909062303497e-06
 180    -2.6914337740188e-07
 181    7.0584257173202e-07
 182    9.3526230835371e-08
 183    5.2679347997093e-07
 184    5.2076648440479e-07
 185    -2.7821189551282e-07
 186    -2.2348585571835e-06
 187    1.381588384971e-05
 188    -4.9288732420335e-07
 189    -7.6782197710244e-08
 190    -3.4207863081674e-07
 191    -1.4009507857308e-06
 192    -6.2572576969555e-06
 193    -4.7199373647517e-06
 194    1.0378606436198e-07
 195    4.4812128684372e-07
 196    8.6877162851524e-07
 197    -2.3112201368498e-07
 198    2.0717316508011e-07
 199    -6.2933717982327e-07
 200    1.5926258521476e-06
 201    -2.9255456071041e-07
 202    -2.5937018725636e-07
 203    2.5227621218626e-07
 204    -2.1166525512587e-06
 205    1.6845802486399e-06
 206    1.0602718744446e-06
 207    -1.479261906287e-06
 208    1.7567747869235e-05
 209    1.0307687318009e-06
 210    1.3821676802056e-06
 211    1.0717745790746e-06
 212    9.4099604258413e-07
 213    3.2333100424746e-07
 214    -1.1413398235485e-06
 215    -1.2781295031064e-06
 216    9.4936748585145e-06
 217    2.3087955146845e-07
 218    -4.140701603722e-07
 219    3.9827247379533e-07
 220    -1.6342752957697e-06
 221    -1.619444012241e-06
 222    -8.5165617461726e-06
 223    0.00012537298942905
 224    4.0148286271286e-06
 225    -7.5129897709986e-07
 226    -4.9698505285107e-07
 227     9.46958148303e-06
 228    2.0785702604618e-05
 229    -0.00012457068611633
 230    3.5247903612932e-06
 231    -3.9465884909317e-06
 232    -2.4651132670682e-06
 233    1.2865175931037e-06
 234    8.2648245572347e-08
 235    4.825738374561e-06
 236    2.9949815354058e-05
 237    -0.00042715555888519
 238    -1.5916634778294e-06
 239    -4.9550842712709e-06
 240    8.6365767757191e-06
 241    0.00013101760365426
 242    3.9678367139366e-05
 243    0.00010858513255472
 244    -1.2919166170429e-05
 245    -8.5041427359028e-07
 246    1.2421150168111e-06
 247    -1.5176545564054e-06
 248    -3.8587923677066e-06
 249    -5.5895157048678e-06
 250    -1.6583462589937e-05
 251    -3.7635300689494e-06
 252    -2.0793047252059e-05
 253    0.00057459679953556
 254    -9.9303489217269e-06
 255    1.5685883580783e-05
 256    -2.1629569424078e-05
 257    0.00025137697449594
 258    -2.5573017584122e-05
 259    0.00011809090392391
 260    1.2001746419637e-05
 261    1.8782385733365e-07
 262    3.9785532733881e-07
 263    2.9170811225552e-06
 264    -4.4002153216337e-06
 265    -1.791555008386e-06
 266    -1.4131266222311e-05
 267    1.7902061081868e-05
 268    2.2083319794593e-05
 269    5.3806971044473e-05
 270    0.00013105765361392
 271    -0.0032177183693183
 272    0.00011187897619655
 273    0.00014671052898714
 274    7.0861796675007e-05
 275    -0.0018204912637187
 276    -0.00076443057159159
 277    0.0038207486588894
 278    -0.00037246124166818
 279    0.00011419422592893
 280    -2.8549209367489e-05