[Molden Format]
made by pyscf v[2.0.1]
[Atoms] (AU)
C   1   6     0.69100024066471     0.64692934207205    -3.48223131169301
H   2   1     2.68052439830868     1.13355088658700    -3.25784032593313
C   3   6    -0.36286361513219     0.85440132524594    -5.97030179418974
H   4   1    -2.35448549047279     0.36322488579172    -6.17995817793143
C   5   6     0.93697958957450     1.61209284601821    -8.05828437677121
H   6   1    -0.04002876534153     1.70579051152009    -9.86870372539436
C   7   6     3.55882871340184     2.30532870411993    -8.01809862923490
H   8   1     4.51217335653741     2.20318273111775    -6.19041637810672
H   9   1     1.55630230933075    -1.92953025305990    12.99630010416247
C   10   6     0.75233899775814    -2.21270439606481    11.10705728102219
H   11   1    -0.43433408177274    -3.90944857546550    11.22216085340412
C   12   6     2.86362581178706    -2.63237380607947     9.17926416456045
H   13   1     4.39038949912609    -1.24955421540245     9.49899813497433
H   14   1     3.74629220191363    -4.48798724300892     9.47414880959024
C   15   6     2.02478325613682    -2.42177285709634     6.44560829588644
C   16   6     3.88048732735477    -3.58795445234514     4.61402886975252
C   17   6    -0.18412382258602    -1.30464291234259     5.76021113872346
C   18   6    -2.10044360464350    -0.26837831858460     7.71610340967100
C   19   6    -3.08956938670431     2.35282328359417     6.88693925039594
C   20   6    -4.37372924086464    -2.09766595989678     7.93610724222001
C   21   6    -0.83850430601230     0.06372213486173    10.33002307638377
H   22   1     0.38411922151109     1.74281358582432    10.27380136542181
H   23   1    -2.30980003007874     0.45460143924521    11.73986301809809
H   24   1     4.58527064644668    -5.38706904487420     5.36778158031719
H   25   1     5.54944938085014    -2.37631462192748     4.35398898413318
H   26   1     3.06633019150423    -3.94118377050688     2.75255466040884
H   27   1    -4.17727778763735     2.26573369139522     5.12914900961283
H   28   1    -1.52662344944051     3.68001877445626     6.59540397144508
H   29   1    -4.32916174397830     3.13643051467482     8.35225460090378
H   30   1    -5.32329548508442    -2.36691813602939     6.11583672749896
H   31   1    -5.77989366602257    -1.33896741843465     9.25748940450990
H   32   1    -3.79310905208926    -3.96389819310853     8.61386170102686
C   33   6    -1.01100794811226    -1.06331657314144     3.11929490449947
C   34   6     0.37686231036534    -0.33275864505552     1.09165013605873
H   35   1    -3.01671213906703    -1.40297922279997     2.77827895090944
C   36   6    -0.64382707979370    -0.11591880174385    -1.42063131251064
H   37   1     2.35569259782137     0.17174499283897     1.33641070251401
H   38   1    -2.63317482980319    -0.60229203511219    -1.66119700387645
C   39   6     4.92949292707610     3.06752929189425   -10.04715344157890
C   40   6     7.59555456141448     3.73329481661799    -9.81073387339210
H   41   1     4.09542353861424     3.21030697797155   -11.92110945203513
O   42   8     8.93835728030826     4.43020973545744   -11.55200196938216
H   43   1     8.37079058468688     3.56000927179912    -7.85902689076443
[GTO]
1 0
 s    6 1.00
             3047.5249  0.0018347001629433
             457.36951    0.01403730124668
             103.94869   0.068842606114048
             29.210155    0.23218442062076
              9.286663    0.46794134155879
              3.163927    0.36231203217765
 s    3 1.00
             7.8682724   -0.11933240861517
             1.8812885   -0.16085421161283
             0.5442493     1.1434564825515
 s    1 1.00
             0.1687144                   1
 p    3 1.00
             7.8682724   0.068999095584993
             1.8812885    0.31642397975315
             0.5442493    0.74430825237435
 p    1 1.00
             0.1687144                   1
 d    1 1.00
                   0.8                   1

2 0
 s    3 1.00
             18.731137    0.03349459952309
             2.8253937    0.23472694665786
             0.6401217    0.81375731841339
 s    1 1.00
             0.1612778                   1

3 0
 s    6 1.00
             3047.5249  0.0018347001629433
             457.36951    0.01403730124668
             103.94869   0.068842606114048
             29.210155    0.23218442062076
              9.286663    0.46794134155879
              3.163927    0.36231203217765
 s    3 1.00
             7.8682724   -0.11933240861517
             1.8812885   -0.16085421161283
             0.5442493     1.1434564825515
 s    1 1.00
             0.1687144                   1
 p    3 1.00
             7.8682724   0.068999095584993
             1.8812885    0.31642397975315
             0.5442493    0.74430825237435
 p    1 1.00
             0.1687144                   1
 d    1 1.00
                   0.8                   1

4 0
 s    3 1.00
             18.731137    0.03349459952309
             2.8253937    0.23472694665786
             0.6401217    0.81375731841339
 s    1 1.00
             0.1612778                   1

5 0
 s    6 1.00
             3047.5249  0.0018347001629433
             457.36951    0.01403730124668
             103.94869   0.068842606114048
             29.210155    0.23218442062076
              9.286663    0.46794134155879
              3.163927    0.36231203217765
 s    3 1.00
             7.8682724   -0.11933240861517
             1.8812885   -0.16085421161283
             0.5442493     1.1434564825515
 s    1 1.00
             0.1687144                   1
 p    3 1.00
             7.8682724   0.068999095584993
             1.8812885    0.31642397975315
             0.5442493    0.74430825237435
 p    1 1.00
             0.1687144                   1
 d    1 1.00
                   0.8                   1

6 0
 s    3 1.00
             18.731137    0.03349459952309
             2.8253937    0.23472694665786
             0.6401217    0.81375731841339
 s    1 1.00
             0.1612778                   1

7 0
 s    6 1.00
             3047.5249  0.0018347001629433
             457.36951    0.01403730124668
             103.94869   0.068842606114048
             29.210155    0.23218442062076
              9.286663    0.46794134155879
              3.163927    0.36231203217765
 s    3 1.00
             7.8682724   -0.11933240861517
             1.8812885   -0.16085421161283
             0.5442493     1.1434564825515
 s    1 1.00
             0.1687144                   1
 p    3 1.00
             7.8682724   0.068999095584993
             1.8812885    0.31642397975315
             0.5442493    0.74430825237435
 p    1 1.00
             0.1687144                   1
 d    1 1.00
                   0.8                   1

8 0
 s    3 1.00
             18.731137    0.03349459952309
             2.8253937    0.23472694665786
             0.6401217    0.81375731841339
 s    1 1.00
             0.1612778                   1

9 0
 s    3 1.00
             18.731137    0.03349459952309
             2.8253937    0.23472694665786
             0.6401217    0.81375731841339
 s    1 1.00
             0.1612778                   1

10 0
 s    6 1.00
             3047.5249  0.0018347001629433
             457.36951    0.01403730124668
             103.94869   0.068842606114048
             29.210155    0.23218442062076
              9.286663    0.46794134155879
              3.163927    0.36231203217765
 s    3 1.00
             7.8682724   -0.11933240861517
             1.8812885   -0.16085421161283
             0.5442493     1.1434564825515
 s    1 1.00
             0.1687144                   1
 p    3 1.00
             7.8682724   0.068999095584993
             1.8812885    0.31642397975315
             0.5442493    0.74430825237435
 p    1 1.00
             0.1687144                   1
 d    1 1.00
                   0.8                   1

11 0
 s    3 1.00
             18.731137    0.03349459952309
             2.8253937    0.23472694665786
             0.6401217    0.81375731841339
 s    1 1.00
             0.1612778                   1

12 0
 s    6 1.00
             3047.5249  0.0018347001629433
             457.36951    0.01403730124668
             103.94869   0.068842606114048
             29.210155    0.23218442062076
              9.286663    0.46794134155879
              3.163927    0.36231203217765
 s    3 1.00
             7.8682724   -0.11933240861517
             1.8812885   -0.16085421161283
             0.5442493     1.1434564825515
 s    1 1.00
             0.1687144                   1
 p    3 1.00
             7.8682724   0.068999095584993
             1.8812885    0.31642397975315
             0.5442493    0.74430825237435
 p    1 1.00
             0.1687144                   1
 d    1 1.00
                   0.8                   1

13 0
 s    3 1.00
             18.731137    0.03349459952309
             2.8253937    0.23472694665786
             0.6401217    0.81375731841339
 s    1 1.00
             0.1612778                   1

14 0
 s    3 1.00
             18.731137    0.03349459952309
             2.8253937    0.23472694665786
             0.6401217    0.81375731841339
 s    1 1.00
             0.1612778                   1

15 0
 s    6 1.00
             3047.5249  0.0018347001629433
             457.36951    0.01403730124668
             103.94869   0.068842606114048
             29.210155    0.23218442062076
              9.286663    0.46794134155879
              3.163927    0.36231203217765
 s    3 1.00
             7.8682724   -0.11933240861517
             1.8812885   -0.16085421161283
             0.5442493     1.1434564825515
 s    1 1.00
             0.1687144                   1
 p    3 1.00
             7.8682724   0.068999095584993
             1.8812885    0.31642397975315
             0.5442493    0.74430825237435
 p    1 1.00
             0.1687144                   1
 d    1 1.00
                   0.8                   1

16 0
 s    6 1.00
             3047.5249  0.0018347001629433
             457.36951    0.01403730124668
             103.94869   0.068842606114048
             29.210155    0.23218442062076
              9.286663    0.46794134155879
              3.163927    0.36231203217765
 s    3 1.00
             7.8682724   -0.11933240861517
             1.8812885   -0.16085421161283
             0.5442493     1.1434564825515
 s    1 1.00
             0.1687144                   1
 p    3 1.00
             7.8682724   0.068999095584993
             1.8812885    0.31642397975315
             0.5442493    0.74430825237435
 p    1 1.00
             0.1687144                   1
 d    1 1.00
                   0.8                   1

17 0
 s    6 1.00
             3047.5249  0.0018347001629433
             457.36951    0.01403730124668
             103.94869   0.068842606114048
             29.210155    0.23218442062076
              9.286663    0.46794134155879
              3.163927    0.36231203217765
 s    3 1.00
             7.8682724   -0.11933240861517
             1.8812885   -0.16085421161283
             0.5442493     1.1434564825515
 s    1 1.00
             0.1687144                   1
 p    3 1.00
             7.8682724   0.068999095584993
             1.8812885    0.31642397975315
             0.5442493    0.74430825237435
 p    1 1.00
             0.1687144                   1
 d    1 1.00
                   0.8                   1

18 0
 s    6 1.00
             3047.5249  0.0018347001629433
             457.36951    0.01403730124668
             103.94869   0.068842606114048
             29.210155    0.23218442062076
              9.286663    0.46794134155879
              3.163927    0.36231203217765
 s    3 1.00
             7.8682724   -0.11933240861517
             1.8812885   -0.16085421161283
             0.5442493     1.1434564825515
 s    1 1.00
             0.1687144                   1
 p    3 1.00
             7.8682724   0.068999095584993
             1.8812885    0.31642397975315
             0.5442493    0.74430825237435
 p    1 1.00
             0.1687144                   1
 d    1 1.00
                   0.8                   1

19 0
 s    6 1.00
             3047.5249  0.0018347001629433
             457.36951    0.01403730124668
             103.94869   0.068842606114048
             29.210155    0.23218442062076
              9.286663    0.46794134155879
              3.163927    0.36231203217765
 s    3 1.00
             7.8682724   -0.11933240861517
             1.8812885   -0.16085421161283
             0.5442493     1.1434564825515
 s    1 1.00
             0.1687144                   1
 p    3 1.00
             7.8682724   0.068999095584993
             1.8812885    0.31642397975315
             0.5442493    0.74430825237435
 p    1 1.00
             0.1687144                   1
 d    1 1.00
                   0.8                   1

20 0
 s    6 1.00
             3047.5249  0.0018347001629433
             457.36951    0.01403730124668
             103.94869   0.068842606114048
             29.210155    0.23218442062076
              9.286663    0.46794134155879
              3.163927    0.36231203217765
 s    3 1.00
             7.8682724   -0.11933240861517
             1.8812885   -0.16085421161283
             0.5442493     1.1434564825515
 s    1 1.00
             0.1687144                   1
 p    3 1.00
             7.8682724   0.068999095584993
             1.8812885    0.31642397975315
             0.5442493    0.74430825237435
 p    1 1.00
             0.1687144                   1
 d    1 1.00
                   0.8                   1

21 0
 s    6 1.00
             3047.5249  0.0018347001629433
             457.36951    0.01403730124668
             103.94869   0.068842606114048
             29.210155    0.23218442062076
              9.286663    0.46794134155879
              3.163927    0.36231203217765
 s    3 1.00
             7.8682724   -0.11933240861517
             1.8812885   -0.16085421161283
             0.5442493     1.1434564825515
 s    1 1.00
             0.1687144                   1
 p    3 1.00
             7.8682724   0.068999095584993
             1.8812885    0.31642397975315
             0.5442493    0.74430825237435
 p    1 1.00
             0.1687144                   1
 d    1 1.00
                   0.8                   1

22 0
 s    3 1.00
             18.731137    0.03349459952309
             2.8253937    0.23472694665786
             0.6401217    0.81375731841339
 s    1 1.00
             0.1612778                   1

23 0
 s    3 1.00
             18.731137    0.03349459952309
             2.8253937    0.23472694665786
             0.6401217    0.81375731841339
 s    1 1.00
             0.1612778                   1

24 0
 s    3 1.00
             18.731137    0.03349459952309
             2.8253937    0.23472694665786
             0.6401217    0.81375731841339
 s    1 1.00
             0.1612778                   1

25 0
 s    3 1.00
             18.731137    0.03349459952309
             2.8253937    0.23472694665786
             0.6401217    0.81375731841339
 s    1 1.00
             0.1612778                   1

26 0
 s    3 1.00
             18.731137    0.03349459952309
             2.8253937    0.23472694665786
             0.6401217    0.81375731841339
 s    1 1.00
             0.1612778                   1

27 0
 s    3 1.00
             18.731137    0.03349459952309
             2.8253937    0.23472694665786
             0.6401217    0.81375731841339
 s    1 1.00
             0.1612778                   1

28 0
 s    3 1.00
             18.731137    0.03349459952309
             2.8253937    0.23472694665786
             0.6401217    0.81375731841339
 s    1 1.00
             0.1612778                   1

29 0
 s    3 1.00
             18.731137    0.03349459952309
             2.8253937    0.23472694665786
             0.6401217    0.81375731841339
 s    1 1.00
             0.1612778                   1

30 0
 s    3 1.00
             18.731137    0.03349459952309
             2.8253937    0.23472694665786
             0.6401217    0.81375731841339
 s    1 1.00
             0.1612778                   1

31 0
 s    3 1.00
             18.731137    0.03349459952309
             2.8253937    0.23472694665786
             0.6401217    0.81375731841339
 s    1 1.00
             0.1612778                   1

32 0
 s    3 1.00
             18.731137    0.03349459952309
             2.8253937    0.23472694665786
             0.6401217    0.81375731841339
 s    1 1.00
             0.1612778                   1

33 0
 s    6 1.00
             3047.5249  0.0018347001629433
             457.36951    0.01403730124668
             103.94869   0.068842606114048
             29.210155    0.23218442062076
              9.286663    0.46794134155879
              3.163927    0.36231203217765
 s    3 1.00
             7.8682724   -0.11933240861517
             1.8812885   -0.16085421161283
             0.5442493     1.1434564825515
 s    1 1.00
             0.1687144                   1
 p    3 1.00
             7.8682724   0.068999095584993
             1.8812885    0.31642397975315
             0.5442493    0.74430825237435
 p    1 1.00
             0.1687144                   1
 d    1 1.00
                   0.8                   1

34 0
 s    6 1.00
             3047.5249  0.0018347001629433
             457.36951    0.01403730124668
             103.94869   0.068842606114048
             29.210155    0.23218442062076
              9.286663    0.46794134155879
              3.163927    0.36231203217765
 s    3 1.00
             7.8682724   -0.11933240861517
             1.8812885   -0.16085421161283
             0.5442493     1.1434564825515
 s    1 1.00
             0.1687144                   1
 p    3 1.00
             7.8682724   0.068999095584993
             1.8812885    0.31642397975315
             0.5442493    0.74430825237435
 p    1 1.00
             0.1687144                   1
 d    1 1.00
                   0.8                   1

35 0
 s    3 1.00
             18.731137    0.03349459952309
             2.8253937    0.23472694665786
             0.6401217    0.81375731841339
 s    1 1.00
             0.1612778                   1

36 0
 s    6 1.00
             3047.5249  0.0018347001629433
             457.36951    0.01403730124668
             103.94869   0.068842606114048
             29.210155    0.23218442062076
              9.286663    0.46794134155879
              3.163927    0.36231203217765
 s    3 1.00
             7.8682724   -0.11933240861517
             1.8812885   -0.16085421161283
             0.5442493     1.1434564825515
 s    1 1.00
             0.1687144                   1
 p    3 1.00
             7.8682724   0.068999095584993
             1.8812885    0.31642397975315
             0.5442493    0.74430825237435
 p    1 1.00
             0.1687144                   1
 d    1 1.00
                   0.8                   1

37 0
 s    3 1.00
             18.731137    0.03349459952309
             2.8253937    0.23472694665786
             0.6401217    0.81375731841339
 s    1 1.00
             0.1612778                   1

38 0
 s    3 1.00
             18.731137    0.03349459952309
             2.8253937    0.23472694665786
             0.6401217    0.81375731841339
 s    1 1.00
             0.1612778                   1

39 0
 s    6 1.00
             3047.5249  0.0018347001629433
             457.36951    0.01403730124668
             103.94869   0.068842606114048
             29.210155    0.23218442062076
              9.286663    0.46794134155879
              3.163927    0.36231203217765
 s    3 1.00
             7.8682724   -0.11933240861517
             1.8812885   -0.16085421161283
             0.5442493     1.1434564825515
 s    1 1.00
             0.1687144                   1
 p    3 1.00
             7.8682724   0.068999095584993
             1.8812885    0.31642397975315
             0.5442493    0.74430825237435
 p    1 1.00
             0.1687144                   1
 d    1 1.00
                   0.8                   1

40 0
 s    6 1.00
             3047.5249  0.0018347001629433
             457.36951    0.01403730124668
             103.94869   0.068842606114048
             29.210155    0.23218442062076
              9.286663    0.46794134155879
              3.163927    0.36231203217765
 s    3 1.00
             7.8682724   -0.11933240861517
             1.8812885   -0.16085421161283
             0.5442493     1.1434564825515
 s    1 1.00
             0.1687144                   1
 p    3 1.00
             7.8682724   0.068999095584993
             1.8812885    0.31642397975315
             0.5442493    0.74430825237435
 p    1 1.00
             0.1687144                   1
 d    1 1.00
                   0.8                   1

41 0
 s    3 1.00
             18.731137    0.03349459952309
             2.8253937    0.23472694665786
             0.6401217    0.81375731841339
 s    1 1.00
             0.1612778                   1

42 0
 s    6 1.00
             5484.6717   0.001831099805527
             825.23495   0.013950098518422
             188.04696    0.06844509273075
               52.9645    0.23271427528445
              16.89757    0.47019295006289
             5.7996353    0.35852086192309
 s    3 1.00
             15.539616   -0.11077750382508
             3.5999336   -0.14802630511126
             1.0137618     1.1307670390447
 s    1 1.00
             0.2700058                   1
 p    3 1.00
             15.539616   0.070874299543311
             3.5999336    0.33975279781076
             1.0137618    0.72715859531445
 p    1 1.00
             0.2700058                   1
 d    1 1.00
                   0.8                   1

43 0
 s    3 1.00
             18.731137    0.03349459952309
             2.8253937    0.23472694665786
             0.6401217    0.81375731841339
 s    1 1.00
             0.1612778                   1

[5d]
[7f]
[9g]

[MO]
 Sym= A
 Ene=               0
 Spin= Alpha
 Occup=    1.00000
   1    1.6273316863552e-05
   2    0.00011684361819372
   3    -0.0016281095266548
   4    4.0251373655258e-05
   5    1.3111279821651e-05
   6    -1.1683787747652e-05
   7    0.00012298516313873
   8    -0.00033889905466119
   9    0.0018918157515878
  10    -5.0095333502999e-05
  11    -5.8137626817911e-05
  12    2.7003289221631e-06
  13    -7.2307565992559e-06
  14    7.9072893831388e-06
  15    6.2788819911654e-05
  16    -9.7308556484702e-05
  17    -3.9777516907817e-05
  18    -0.00023631871010268
  19    0.0036046574406466
  20    1.0154919151781e-05
  21    1.9601483310109e-05
  22    -8.6280706081044e-05
  23    0.0022728440004187
  24    0.0004559619963765
  25    0.00077276732678393
  26    5.0517744724344e-05
  27    -2.523453143945e-05
  28    -3.3030812918472e-05
  29    3.2563030788682e-05
  30    2.5934765329757e-05
  31    9.779047617609e-05
  32    0.00053942187400218
  33    7.7793660472741e-05
  34    0.00049380547394069
  35    -0.006685599432911
  36    -9.5619837670823e-05
  37    -4.1812415293837e-05
  38    8.3245772746745e-05
  39    -0.0030332830826152
  40    -0.00038583850949973
  41    -0.0021687776209681
  42    1.4761101913906e-05
  43    2.6828236537476e-05
  44    3.981932162959e-05
  45    -0.00015728743613409
  46    -9.8579188625715e-05
  47    -8.487653694558e-05
  48    -0.00070618578546856
  49    -3.0771108699319e-06
  50    8.2792192665638e-05
  51    0.0046810179024998
  52    0.00038835918395938
  53    0.00010668593140832
  54    -1.3738052439545e-05
  55    -0.0051435524303255
  56    -0.001360115392382
  57    -7.8330825308231e-05
  58    -0.00024741886506946
  59    5.751078978429e-05
  60    7.8808901623887e-05
  61    0.00010656163744132
  62    4.5066885875625e-05
  63    0.00025709419936511
  64    0.00037578095545054
  65    4.0235980601118e-07
  66    -2.058326953108e-06
  67    1.5277605247842e-07
  68    1.4569430545431e-06
  69    1.133173694153e-06
  70    -9.1130467782018e-07
  71    1.3507577258202e-06
  72    -2.1440459215969e-07
  73    -3.3923680637096e-06
  74    -3.3089880717564e-06
  75    2.0780718462702e-06
  76    -4.2214266232085e-07
  77    -2.3629038582857e-07
  78    -8.466045543172e-08
  79    -1.9111344586063e-07
  80    -2.0871706691607e-07
  81    -4.12954670715e-07
  82    -2.2462547545147e-06
  83    -3.5422192493739e-07
  84    -2.9813699482083e-06
  85    3.1810836744138e-06
  86    8.2006920189302e-09
  87    -9.0544646646128e-07
  88    -3.2747592114369e-07
  89    -3.8062715449175e-06
  90    1.4375091314588e-05
  91    2.9958293906876e-06
  92    1.5591234455297e-07
  93    3.3051405703868e-07
  94    -1.0813500602975e-06
  95    5.1211755443116e-07
  96    -3.0054789186493e-08
  97    -1.8807699727171e-06
  98    -2.5938161261108e-06
  99    1.2000863356686e-06
 100    3.3744236743214e-06
 101    7.5051978520478e-07
 102    3.6417754696907e-06
 103    -9.6176536135129e-05
 104    2.265469191835e-06
 105    4.016323346052e-07
 106    1.6858796234204e-06
 107    2.6891222303587e-05
 108    -3.6868899626818e-05
 109    3.0172897951611e-05
 110    -6.3080785810346e-07
 111    -1.706694187979e-06
 112    7.5709811410775e-07
 113    4.8689181891117e-07
 114    1.5950283310927e-06
 115    -3.053968016044e-07
 116    -2.7887981062873e-06
 117    1.1150550278944e-05
 118    -6.1044865804037e-08
 119    -1.9865635534295e-06
 120    1.4574020901758e-06
 121    -7.2292925855055e-06
 122    1.8869765038865e-05
 123    -8.5449444313411e-06
 124    -7.991912565995e-07
 125    4.1848937214196e-07
 126    1.3548618477767e-06
 127    3.621686173297e-07
 128    1.4124430293979e-08
 129    -9.6955942868706e-07
 130    -4.3893820687247e-06
 131    7.4660906407369e-07
 132    -5.8558991216923e-06
 133    1.6177519005433e-07
 134      2.6305881042e-06
 135    0.00012630060147346
 136    -9.9491993493737e-06
 137    -3.2675833536263e-05
 138     1.73142930258e-06
 139    -5.7023697886343e-07
 140    -3.5505537097838e-06
 141    1.8607358798448e-08
 142    -3.1378396159337e-06
 143    -2.9682501659013e-07
 144    -3.9302228536919e-07
 145    6.4792015908347e-05
 146    -7.1791069124504e-07
 147    6.1799821723102e-07
 148    -6.6694301346595e-06
 149    3.2538539428531e-05
 150    -5.0690539134021e-05
 151    3.2388512619907e-05
 152    5.2975687873733e-07
 153    1.0353530026135e-07
 154    2.6253670438145e-06
 155    6.5361150670133e-07
 156    6.4411035712806e-07
 157    -1.0001955698064e-06
 158    -8.7530824598614e-06
 159    4.7769043778322e-05
 160    -1.1361715900706e-06
 161    -7.5252137980534e-07
 162    1.7110846203142e-06
 163    1.3095658597172e-05
 164    -1.9340643071206e-05
 165    -6.1748610072213e-06
 166    -1.2292817905624e-06
 167    3.5750389291809e-07
 168    -5.3747288360443e-08
 169    -1.1041576715307e-06
 170    -5.7709677390519e-07
 171    4.0239179197159e-08
 172    1.1094404455235e-06
 173    -1.7454850884741e-06
 174    1.5810541323688e-06
 175    2.5744725763085e-07
 176    -2.8511944194175e-06
 177    -2.279192688111e-05
 178    -1.3546490605109e-06
 179    -5.4357807989038e-06
 180    3.0029459392348e-07
 181    -2.067070447841e-06
 182    1.1820551615736e-07
 183    -1.3556881041908e-06
 184    -1.6271445210807e-06
 185    8.7265630150976e-07
 186    6.8273393307862e-06
 187    -4.5584648729234e-05
 188    1.5799466179218e-06
 189    4.4145989461973e-07
 190    1.2152907583748e-06
 191    4.8777321405391e-06
 192    1.1873163588268e-05
 193    2.0303562085027e-05
 194    -8.8325540273318e-07
 195    -1.2676851159405e-06
 196    -1.8115476643144e-06
 197    7.0248561808257e-07
 198    -7.0833504934101e-07
 199    2.2760934712193e-06
 200    -1.849013518495e-06
 201    7.8889476301141e-07
 202    2.2002758434724e-07
 203    1.6152999332206e-06
 204    8.1123560985936e-06
 205    -3.3172998696622e-06
 206    -6.309017699249e-07
 207    -2.8495138993737e-06
 208    -1.5769817923987e-06
 209    -3.8137899538677e-06
 210    -2.7434312192989e-06
 211    -2.5615938227981e-06
 212    -5.2206031192849e-06
 213    -8.3300132074502e-07
 214    6.3363375537882e-06
 215    5.1578207490776e-06
 216    -2.7698106194856e-05
 217    -1.6297839559505e-06
 218    -4.5375059506101e-06
 219    -3.5795182913307e-07
 220    5.3992746046391e-06
 221    6.4512766856038e-06
 222    4.2611246879934e-05
 223    -0.0005350439345324
 224    -6.6512279472693e-06
 225    -2.7688409360414e-06
 226    6.2330661788223e-06
 227    -0.00013445028788112
 228    -8.2504025455571e-05
 229    0.00031290146298422
 230    -1.0611554007339e-05
 231    1.1348086890173e-05
 232    9.9665519201034e-06
 233    -4.9207977915552e-06
 234    -4.9097889772386e-06
 235    -6.7858626567645e-06
 236    -3.2315670671943e-05
 237    0.00092802321075312
 238    1.1770284598643e-05
 239    9.3828206392097e-06
 240    -3.2204054201845e-05
 241    -0.00035353335862535
 242    -0.00010227685239937
 243    5.3515235974701e-05
 244    1.8666612949311e-05
 245    -1.0803363018885e-05
 246    -8.9483380586208e-06
 247    -5.7857741296364e-07
 248    1.9495226559977e-06
 249    7.4886440453461e-06
 250    2.5948725254958e-05
 251    6.5823224489705e-06
 252    4.2307509508015e-05
 253    -0.00096189830235083
 254    1.8311945316095e-05
 255    -1.2763666921031e-06
 256    3.2792203198154e-05
 257    -0.00058753636470465
 258    -0.00010408893890871
 259    -0.00027913869123654
 260    -9.9510863822207e-06
 261    4.7300848150771e-06
 262    6.9327295623559e-06
 263    -9.0934237922887e-06
 264    -6.7812574460111e-06
 265    2.3532811609141e-05
 266    1.6217531834779e-05
 267    -3.2531238911381e-05
 268    -0.00018028428824866
 269    -5.9440377420723e-05
 270    -0.00017179128665647
 271      0.00382931737226
 272    0.00011496313661168
 273    3.7835899136525e-06
 274    0.00013733208792892
 275    0.0029487793071865
 276    0.0013050195123444
 277    -0.0026578433698933
 278    -0.00019103240625099
 279    -0.00032914634357983
 280    -5.8958574642254e-05