[Molden Format]
made by pyscf v[2.0.1]
[Atoms] (AU)
C   1   6     0.69100024066471     0.64692934207205    -3.48223131169301
H   2   1     2.68052439830868     1.13355088658700    -3.25784032593313
C   3   6    -0.36286361513219     0.85440132524594    -5.97030179418974
H   4   1    -2.35448549047279     0.36322488579172    -6.17995817793143
C   5   6     0.93697958957450     1.61209284601821    -8.05828437677121
H   6   1     0.50725181311820     3.44287068169954    -8.89764684313250
C   7   6     2.86970100877903     0.12057508237944    -9.23991306333710
H   8   1     3.28022106466413    -1.70875314533660    -8.37692190559989
H   9   1     1.55630230933075    -1.92953025305990    12.99630010416247
C   10   6     0.75233899775814    -2.21270439606481    11.10705728102219
H   11   1    -0.43433408177274    -3.90944857546550    11.22216085340412
C   12   6     2.86362581178706    -2.63237380607947     9.17926416456045
H   13   1     4.39038949912609    -1.24955421540245     9.49899813497433
H   14   1     3.74629220191363    -4.48798724300892     9.47414880959024
C   15   6     2.02478325613682    -2.42177285709634     6.44560829588644
C   16   6     3.88048732735477    -3.58795445234514     4.61402886975252
C   17   6    -0.18412382258602    -1.30464291234259     5.76021113872346
C   18   6    -2.10044360464350    -0.26837831858460     7.71610340967100
C   19   6    -3.08956938670431     2.35282328359417     6.88693925039594
C   20   6    -4.37372924086464    -2.09766595989678     7.93610724222001
C   21   6    -0.83850430601230     0.06372213486173    10.33002307638377
H   22   1     0.38411922151109     1.74281358582432    10.27380136542181
H   23   1    -2.30980003007874     0.45460143924521    11.73986301809809
H   24   1     4.58527064644668    -5.38706904487420     5.36778158031719
H   25   1     5.54944938085014    -2.37631462192748     4.35398898413318
H   26   1     3.06633019150423    -3.94118377050688     2.75255466040884
H   27   1    -4.17727778763735     2.26573369139522     5.12914900961283
H   28   1    -1.52662344944051     3.68001877445626     6.59540397144508
H   29   1    -4.32916174397830     3.13643051467482     8.35225460090378
H   30   1    -5.32329548508442    -2.36691813602939     6.11583672749896
H   31   1    -5.77989366602257    -1.33896741843465     9.25748940450990
H   32   1    -3.79310905208926    -3.96389819310853     8.61386170102686
C   33   6    -1.01100794811226    -1.06331657314144     3.11929490449947
C   34   6     0.37686231036534    -0.33275864505552     1.09165013605873
H   35   1    -3.01671213906703    -1.40297922279997     2.77827895090944
C   36   6    -0.64382707979370    -0.11591880174385    -1.42063131251064
H   37   1     2.35569259782137     0.17174499283897     1.33641070251401
H   38   1    -2.63317482980319    -0.60229203511219    -1.66119700387645
C   39   6     4.20991814769739     0.79575668965015   -11.31949989075694
C   40   6     6.14288813089389    -0.86010693489370   -12.38193355267250
H   41   1     3.89481568247576     2.59125541029260   -12.27063769452772
O   42   8     7.41472391465697    -0.37430332261595   -14.24398959848541
H   43   1     6.40229959564941    -2.67780216203268   -11.34807250251721
[GTO]
1 0
 s    6 1.00
             3047.5249  0.0018347001629433
             457.36951    0.01403730124668
             103.94869   0.068842606114048
             29.210155    0.23218442062076
              9.286663    0.46794134155879
              3.163927    0.36231203217765
 s    3 1.00
             7.8682724   -0.11933240861517
             1.8812885   -0.16085421161283
             0.5442493     1.1434564825515
 s    1 1.00
             0.1687144                   1
 p    3 1.00
             7.8682724   0.068999095584993
             1.8812885    0.31642397975315
             0.5442493    0.74430825237435
 p    1 1.00
             0.1687144                   1
 d    1 1.00
                   0.8                   1

2 0
 s    3 1.00
             18.731137    0.03349459952309
             2.8253937    0.23472694665786
             0.6401217    0.81375731841339
 s    1 1.00
             0.1612778                   1

3 0
 s    6 1.00
             3047.5249  0.0018347001629433
             457.36951    0.01403730124668
             103.94869   0.068842606114048
             29.210155    0.23218442062076
              9.286663    0.46794134155879
              3.163927    0.36231203217765
 s    3 1.00
             7.8682724   -0.11933240861517
             1.8812885   -0.16085421161283
             0.5442493     1.1434564825515
 s    1 1.00
             0.1687144                   1
 p    3 1.00
             7.8682724   0.068999095584993
             1.8812885    0.31642397975315
             0.5442493    0.74430825237435
 p    1 1.00
             0.1687144                   1
 d    1 1.00
                   0.8                   1

4 0
 s    3 1.00
             18.731137    0.03349459952309
             2.8253937    0.23472694665786
             0.6401217    0.81375731841339
 s    1 1.00
             0.1612778                   1

5 0
 s    6 1.00
             3047.5249  0.0018347001629433
             457.36951    0.01403730124668
             103.94869   0.068842606114048
             29.210155    0.23218442062076
              9.286663    0.46794134155879
              3.163927    0.36231203217765
 s    3 1.00
             7.8682724   -0.11933240861517
             1.8812885   -0.16085421161283
             0.5442493     1.1434564825515
 s    1 1.00
             0.1687144                   1
 p    3 1.00
             7.8682724   0.068999095584993
             1.8812885    0.31642397975315
             0.5442493    0.74430825237435
 p    1 1.00
             0.1687144                   1
 d    1 1.00
                   0.8                   1

6 0
 s    3 1.00
             18.731137    0.03349459952309
             2.8253937    0.23472694665786
             0.6401217    0.81375731841339
 s    1 1.00
             0.1612778                   1

7 0
 s    6 1.00
             3047.5249  0.0018347001629433
             457.36951    0.01403730124668
             103.94869   0.068842606114048
             29.210155    0.23218442062076
              9.286663    0.46794134155879
              3.163927    0.36231203217765
 s    3 1.00
             7.8682724   -0.11933240861517
             1.8812885   -0.16085421161283
             0.5442493     1.1434564825515
 s    1 1.00
             0.1687144                   1
 p    3 1.00
             7.8682724   0.068999095584993
             1.8812885    0.31642397975315
             0.5442493    0.74430825237435
 p    1 1.00
             0.1687144                   1
 d    1 1.00
                   0.8                   1

8 0
 s    3 1.00
             18.731137    0.03349459952309
             2.8253937    0.23472694665786
             0.6401217    0.81375731841339
 s    1 1.00
             0.1612778                   1

9 0
 s    3 1.00
             18.731137    0.03349459952309
             2.8253937    0.23472694665786
             0.6401217    0.81375731841339
 s    1 1.00
             0.1612778                   1

10 0
 s    6 1.00
             3047.5249  0.0018347001629433
             457.36951    0.01403730124668
             103.94869   0.068842606114048
             29.210155    0.23218442062076
              9.286663    0.46794134155879
              3.163927    0.36231203217765
 s    3 1.00
             7.8682724   -0.11933240861517
             1.8812885   -0.16085421161283
             0.5442493     1.1434564825515
 s    1 1.00
             0.1687144                   1
 p    3 1.00
             7.8682724   0.068999095584993
             1.8812885    0.31642397975315
             0.5442493    0.74430825237435
 p    1 1.00
             0.1687144                   1
 d    1 1.00
                   0.8                   1

11 0
 s    3 1.00
             18.731137    0.03349459952309
             2.8253937    0.23472694665786
             0.6401217    0.81375731841339
 s    1 1.00
             0.1612778                   1

12 0
 s    6 1.00
             3047.5249  0.0018347001629433
             457.36951    0.01403730124668
             103.94869   0.068842606114048
             29.210155    0.23218442062076
              9.286663    0.46794134155879
              3.163927    0.36231203217765
 s    3 1.00
             7.8682724   -0.11933240861517
             1.8812885   -0.16085421161283
             0.5442493     1.1434564825515
 s    1 1.00
             0.1687144                   1
 p    3 1.00
             7.8682724   0.068999095584993
             1.8812885    0.31642397975315
             0.5442493    0.74430825237435
 p    1 1.00
             0.1687144                   1
 d    1 1.00
                   0.8                   1

13 0
 s    3 1.00
             18.731137    0.03349459952309
             2.8253937    0.23472694665786
             0.6401217    0.81375731841339
 s    1 1.00
             0.1612778                   1

14 0
 s    3 1.00
             18.731137    0.03349459952309
             2.8253937    0.23472694665786
             0.6401217    0.81375731841339
 s    1 1.00
             0.1612778                   1

15 0
 s    6 1.00
             3047.5249  0.0018347001629433
             457.36951    0.01403730124668
             103.94869   0.068842606114048
             29.210155    0.23218442062076
              9.286663    0.46794134155879
              3.163927    0.36231203217765
 s    3 1.00
             7.8682724   -0.11933240861517
             1.8812885   -0.16085421161283
             0.5442493     1.1434564825515
 s    1 1.00
             0.1687144                   1
 p    3 1.00
             7.8682724   0.068999095584993
             1.8812885    0.31642397975315
             0.5442493    0.74430825237435
 p    1 1.00
             0.1687144                   1
 d    1 1.00
                   0.8                   1

16 0
 s    6 1.00
             3047.5249  0.0018347001629433
             457.36951    0.01403730124668
             103.94869   0.068842606114048
             29.210155    0.23218442062076
              9.286663    0.46794134155879
              3.163927    0.36231203217765
 s    3 1.00
             7.8682724   -0.11933240861517
             1.8812885   -0.16085421161283
             0.5442493     1.1434564825515
 s    1 1.00
             0.1687144                   1
 p    3 1.00
             7.8682724   0.068999095584993
             1.8812885    0.31642397975315
             0.5442493    0.74430825237435
 p    1 1.00
             0.1687144                   1
 d    1 1.00
                   0.8                   1

17 0
 s    6 1.00
             3047.5249  0.0018347001629433
             457.36951    0.01403730124668
             103.94869   0.068842606114048
             29.210155    0.23218442062076
              9.286663    0.46794134155879
              3.163927    0.36231203217765
 s    3 1.00
             7.8682724   -0.11933240861517
             1.8812885   -0.16085421161283
             0.5442493     1.1434564825515
 s    1 1.00
             0.1687144                   1
 p    3 1.00
             7.8682724   0.068999095584993
             1.8812885    0.31642397975315
             0.5442493    0.74430825237435
 p    1 1.00
             0.1687144                   1
 d    1 1.00
                   0.8                   1

18 0
 s    6 1.00
             3047.5249  0.0018347001629433
             457.36951    0.01403730124668
             103.94869   0.068842606114048
             29.210155    0.23218442062076
              9.286663    0.46794134155879
              3.163927    0.36231203217765
 s    3 1.00
             7.8682724   -0.11933240861517
             1.8812885   -0.16085421161283
             0.5442493     1.1434564825515
 s    1 1.00
             0.1687144                   1
 p    3 1.00
             7.8682724   0.068999095584993
             1.8812885    0.31642397975315
             0.5442493    0.74430825237435
 p    1 1.00
             0.1687144                   1
 d    1 1.00
                   0.8                   1

19 0
 s    6 1.00
             3047.5249  0.0018347001629433
             457.36951    0.01403730124668
             103.94869   0.068842606114048
             29.210155    0.23218442062076
              9.286663    0.46794134155879
              3.163927    0.36231203217765
 s    3 1.00
             7.8682724   -0.11933240861517
             1.8812885   -0.16085421161283
             0.5442493     1.1434564825515
 s    1 1.00
             0.1687144                   1
 p    3 1.00
             7.8682724   0.068999095584993
             1.8812885    0.31642397975315
             0.5442493    0.74430825237435
 p    1 1.00
             0.1687144                   1
 d    1 1.00
                   0.8                   1

20 0
 s    6 1.00
             3047.5249  0.0018347001629433
             457.36951    0.01403730124668
             103.94869   0.068842606114048
             29.210155    0.23218442062076
              9.286663    0.46794134155879
              3.163927    0.36231203217765
 s    3 1.00
             7.8682724   -0.11933240861517
             1.8812885   -0.16085421161283
             0.5442493     1.1434564825515
 s    1 1.00
             0.1687144                   1
 p    3 1.00
             7.8682724   0.068999095584993
             1.8812885    0.31642397975315
             0.5442493    0.74430825237435
 p    1 1.00
             0.1687144                   1
 d    1 1.00
                   0.8                   1

21 0
 s    6 1.00
             3047.5249  0.0018347001629433
             457.36951    0.01403730124668
             103.94869   0.068842606114048
             29.210155    0.23218442062076
              9.286663    0.46794134155879
              3.163927    0.36231203217765
 s    3 1.00
             7.8682724   -0.11933240861517
             1.8812885   -0.16085421161283
             0.5442493     1.1434564825515
 s    1 1.00
             0.1687144                   1
 p    3 1.00
             7.8682724   0.068999095584993
             1.8812885    0.31642397975315
             0.5442493    0.74430825237435
 p    1 1.00
             0.1687144                   1
 d    1 1.00
                   0.8                   1

22 0
 s    3 1.00
             18.731137    0.03349459952309
             2.8253937    0.23472694665786
             0.6401217    0.81375731841339
 s    1 1.00
             0.1612778                   1

23 0
 s    3 1.00
             18.731137    0.03349459952309
             2.8253937    0.23472694665786
             0.6401217    0.81375731841339
 s    1 1.00
             0.1612778                   1

24 0
 s    3 1.00
             18.731137    0.03349459952309
             2.8253937    0.23472694665786
             0.6401217    0.81375731841339
 s    1 1.00
             0.1612778                   1

25 0
 s    3 1.00
             18.731137    0.03349459952309
             2.8253937    0.23472694665786
             0.6401217    0.81375731841339
 s    1 1.00
             0.1612778                   1

26 0
 s    3 1.00
             18.731137    0.03349459952309
             2.8253937    0.23472694665786
             0.6401217    0.81375731841339
 s    1 1.00
             0.1612778                   1

27 0
 s    3 1.00
             18.731137    0.03349459952309
             2.8253937    0.23472694665786
             0.6401217    0.81375731841339
 s    1 1.00
             0.1612778                   1

28 0
 s    3 1.00
             18.731137    0.03349459952309
             2.8253937    0.23472694665786
             0.6401217    0.81375731841339
 s    1 1.00
             0.1612778                   1

29 0
 s    3 1.00
             18.731137    0.03349459952309
             2.8253937    0.23472694665786
             0.6401217    0.81375731841339
 s    1 1.00
             0.1612778                   1

30 0
 s    3 1.00
             18.731137    0.03349459952309
             2.8253937    0.23472694665786
             0.6401217    0.81375731841339
 s    1 1.00
             0.1612778                   1

31 0
 s    3 1.00
             18.731137    0.03349459952309
             2.8253937    0.23472694665786
             0.6401217    0.81375731841339
 s    1 1.00
             0.1612778                   1

32 0
 s    3 1.00
             18.731137    0.03349459952309
             2.8253937    0.23472694665786
             0.6401217    0.81375731841339
 s    1 1.00
             0.1612778                   1

33 0
 s    6 1.00
             3047.5249  0.0018347001629433
             457.36951    0.01403730124668
             103.94869   0.068842606114048
             29.210155    0.23218442062076
              9.286663    0.46794134155879
              3.163927    0.36231203217765
 s    3 1.00
             7.8682724   -0.11933240861517
             1.8812885   -0.16085421161283
             0.5442493     1.1434564825515
 s    1 1.00
             0.1687144                   1
 p    3 1.00
             7.8682724   0.068999095584993
             1.8812885    0.31642397975315
             0.5442493    0.74430825237435
 p    1 1.00
             0.1687144                   1
 d    1 1.00
                   0.8                   1

34 0
 s    6 1.00
             3047.5249  0.0018347001629433
             457.36951    0.01403730124668
             103.94869   0.068842606114048
             29.210155    0.23218442062076
              9.286663    0.46794134155879
              3.163927    0.36231203217765
 s    3 1.00
             7.8682724   -0.11933240861517
             1.8812885   -0.16085421161283
             0.5442493     1.1434564825515
 s    1 1.00
             0.1687144                   1
 p    3 1.00
             7.8682724   0.068999095584993
             1.8812885    0.31642397975315
             0.5442493    0.74430825237435
 p    1 1.00
             0.1687144                   1
 d    1 1.00
                   0.8                   1

35 0
 s    3 1.00
             18.731137    0.03349459952309
             2.8253937    0.23472694665786
             0.6401217    0.81375731841339
 s    1 1.00
             0.1612778                   1

36 0
 s    6 1.00
             3047.5249  0.0018347001629433
             457.36951    0.01403730124668
             103.94869   0.068842606114048
             29.210155    0.23218442062076
              9.286663    0.46794134155879
              3.163927    0.36231203217765
 s    3 1.00
             7.8682724   -0.11933240861517
             1.8812885   -0.16085421161283
             0.5442493     1.1434564825515
 s    1 1.00
             0.1687144                   1
 p    3 1.00
             7.8682724   0.068999095584993
             1.8812885    0.31642397975315
             0.5442493    0.74430825237435
 p    1 1.00
             0.1687144                   1
 d    1 1.00
                   0.8                   1

37 0
 s    3 1.00
             18.731137    0.03349459952309
             2.8253937    0.23472694665786
             0.6401217    0.81375731841339
 s    1 1.00
             0.1612778                   1

38 0
 s    3 1.00
             18.731137    0.03349459952309
             2.8253937    0.23472694665786
             0.6401217    0.81375731841339
 s    1 1.00
             0.1612778                   1

39 0
 s    6 1.00
             3047.5249  0.0018347001629433
             457.36951    0.01403730124668
             103.94869   0.068842606114048
             29.210155    0.23218442062076
              9.286663    0.46794134155879
              3.163927    0.36231203217765
 s    3 1.00
             7.8682724   -0.11933240861517
             1.8812885   -0.16085421161283
             0.5442493     1.1434564825515
 s    1 1.00
             0.1687144                   1
 p    3 1.00
             7.8682724   0.068999095584993
             1.8812885    0.31642397975315
             0.5442493    0.74430825237435
 p    1 1.00
             0.1687144                   1
 d    1 1.00
                   0.8                   1

40 0
 s    6 1.00
             3047.5249  0.0018347001629433
             457.36951    0.01403730124668
             103.94869   0.068842606114048
             29.210155    0.23218442062076
              9.286663    0.46794134155879
              3.163927    0.36231203217765
 s    3 1.00
             7.8682724   -0.11933240861517
             1.8812885   -0.16085421161283
             0.5442493     1.1434564825515
 s    1 1.00
             0.1687144                   1
 p    3 1.00
             7.8682724   0.068999095584993
             1.8812885    0.31642397975315
             0.5442493    0.74430825237435
 p    1 1.00
             0.1687144                   1
 d    1 1.00
                   0.8                   1

41 0
 s    3 1.00
             18.731137    0.03349459952309
             2.8253937    0.23472694665786
             0.6401217    0.81375731841339
 s    1 1.00
             0.1612778                   1

42 0
 s    6 1.00
             5484.6717   0.001831099805527
             825.23495   0.013950098518422
             188.04696    0.06844509273075
               52.9645    0.23271427528445
              16.89757    0.47019295006289
             5.7996353    0.35852086192309
 s    3 1.00
             15.539616   -0.11077750382508
             3.5999336   -0.14802630511126
             1.0137618     1.1307670390447
 s    1 1.00
             0.2700058                   1
 p    3 1.00
             15.539616   0.070874299543311
             3.5999336    0.33975279781076
             1.0137618    0.72715859531445
 p    1 1.00
             0.2700058                   1
 d    1 1.00
                   0.8                   1

43 0
 s    3 1.00
             18.731137    0.03349459952309
             2.8253937    0.23472694665786
             0.6401217    0.81375731841339
 s    1 1.00
             0.1612778                   1

[5d]
[7f]
[9g]

[MO]
 Sym= A
 Ene=               0
 Spin= Alpha
 Occup=    1.00000
   1    -6.5231438942049e-07
   2    -4.8192388449941e-06
   3    0.00027322140992153
   4    -1.9580540831809e-06
   5    2.1296299488827e-05
   6    -7.9652094778689e-06
   7    -8.6321899332926e-05
   8    -0.00017629779810411
   9    0.00021515227045551
  10    4.6935267982623e-06
  11    -4.7270311503599e-06
  12    2.8347474898762e-06
  13    -1.2293190076806e-05
  14    7.6504300746688e-06
  15    9.0006335409593e-06
  16    -7.4947064992852e-07
  17    -3.2597141653439e-06
  18    -0.00013050321042639
  19    -0.00069515304411948
  20    -5.9021410242185e-05
  21    -1.6471152910231e-06
  22    7.0363039789635e-05
  23    -0.00039295866231837
  24    0.00013841546825833
  25    0.00042027595265896
  26    -2.5065579309054e-05
  27    2.7364581239988e-05
  28    -2.068019417987e-05
  29    -3.8798620895041e-05
  30    -1.6115768879338e-05
  31    5.6673521142031e-06
  32    -7.2822488322508e-05
  33    -5.5002012025872e-05
  34    -0.00036265872537318
  35    0.0046527275092637
  36    0.00011570447751161
  37    -1.2562812432804e-05
  38    -0.00013602616616431
  39    0.0012274658317941
  40     -0.00184899823483
  41    -6.2670481923935e-05
  42    -9.5152985691219e-06
  43    -0.00011625565131318
  44    2.5004074622692e-05
  45    2.2295254595073e-05
  46    -9.6204689445868e-05
  47    2.2886399551148e-05
  48    0.00031096986363378
  49    -4.6648830448175e-06
  50    -0.00012650725856602
  51    -0.0037992889082902
  52    -0.00028335354870751
  53    0.00020868477252825
  54    0.00017879157742057
  55    0.0028546608195502
  56    -0.002413201779783
  57    -0.0015939401125444
  58    8.6021309152973e-05
  59    -1.5452779899924e-05
  60    -0.00018898723637125
  61    -6.4725214547712e-05
  62    0.00011349191202058
  63    -0.00030910878824799
  64    -9.6044612901499e-05
  65    1.222739549807e-07
  66    4.0111833314061e-07
  67    2.6301054890535e-08
  68    4.5242147784183e-07
  69    -2.4818032141198e-06
  70    -1.0848992016018e-07
  71    2.0173359558098e-07
  72    -1.9080249772894e-07
  73    1.9367022746921e-08
  74    -1.3428677473169e-06
  75    5.5130793278456e-08
  76    1.0134831885517e-07
  77    1.3951756085543e-07
  78    -2.2307938806488e-08
  79    -3.0808547182198e-08
  80    1.3679714397439e-07
  81    -8.0233493429235e-08
  82    -1.6890817483168e-08
  83    2.7164667002774e-08
  84    6.9385766118381e-07
  85    1.5656019161771e-05
  86    -7.9493733730799e-07
  87    1.6094080078822e-07
  88    -9.4853294242346e-07
  89    -2.7600192002392e-06
  90    3.0545868051195e-06
  91    -4.7792041074013e-06
  92    -1.9744646816967e-07
  93    2.3579903271339e-07
  94    -2.7965486035279e-07
  95    -1.4197727565008e-07
  96    1.9214217149031e-07
  97    -5.248182744979e-07
  98    -4.7538479203686e-07
  99    -2.0659272989768e-07
 100    5.5520031649096e-07
 101    -1.0144986777751e-07
 102    -1.3698045269917e-07
 103    3.7916322027476e-06
 104    -7.0262299752514e-07
 105    1.0044889917237e-06
 106    6.3456110961808e-07
 107    1.5784600293677e-05
 108    -1.5306961893094e-05
 109    -4.1573160425162e-05
 110    6.9709654523221e-07
 111    8.4226422776879e-07
 112    -3.3872830504899e-07
 113    -1.069904026272e-07
 114    3.6934874805302e-07
 115    5.1633063438816e-07
 116    4.5776005190742e-06
 117    -3.923898471723e-05
 118    7.2519978085473e-07
 119    -7.0933927734106e-07
 120    -1.1012510911099e-06
 121    1.1214492922357e-05
 122    -4.9692197223642e-06
 123    -4.0887490542688e-06
 124    2.3789275492474e-07
 125    3.486332388084e-07
 126    -1.0154130144026e-07
 127    -3.1360535290041e-07
 128    4.8217341288101e-07
 129    1.1376364909632e-06
 130     9.37469032415e-06
 131    -6.5255794319781e-05
 132    4.5501481553698e-07
 133    -5.9646623114741e-07
 134    -3.6001593638377e-06
 135    7.7721808835829e-06
 136    7.6652027928679e-06
 137    9.9353590508866e-05
 138    -2.8942472050901e-06
 139    -1.8984466687453e-06
 140    1.4306574615457e-07
 141    -5.0495561689438e-07
 142    3.6971780019658e-07
 143     6.71909423301e-07
 144    5.8124415865345e-06
 145    -3.7995647499551e-05
 146    -1.8350417408945e-08
 147    -1.4217827072441e-07
 148    1.7277737726145e-07
 149    -2.0414475148732e-05
 150    8.7222271622752e-06
 151    3.9795644444775e-06
 152    8.638857709242e-07
 153    5.0822558898045e-07
 154    -6.9181440419532e-08
 155    -8.315876657293e-07
 156    9.4134648870887e-07
 157    -5.6612141576731e-08
 158    -3.3193809987827e-07
 159    -1.6993906148064e-06
 160    -5.2362325948168e-07
 161    -1.091902264543e-08
 162    1.8761514097464e-07
 163    6.812344227455e-06
 164    1.7930578031394e-07
 165    -5.0888986475632e-07
 166    -5.1963692648259e-07
 167    3.5442290574938e-07
 168    -5.3380258747436e-08
 169    1.9035922270656e-07
 170    -3.7304349927288e-07
 171    -1.2060817716098e-08
 172    4.256525619898e-07
 173    2.5940618868289e-07
 174    4.4056745447615e-07
 175    1.9201874325594e-07
 176    -4.8805589616822e-07
 177    1.9991534695226e-06
 178    -2.426141208964e-06
 179    1.5453316701012e-06
 180    -1.2749626172148e-07
 181    -3.9784696843658e-08
 182    -1.4075723524132e-07
 183    5.0948310884182e-07
 184    -7.0731830031612e-08
 185    2.0901164834073e-07
 186    2.4537205848099e-06
 187    3.5708024871845e-06
 188    2.1318480549437e-08
 189    -1.8197883483709e-07
 190    -1.4800373232171e-06
 191    -2.3100801241237e-06
 192    -1.2122712596518e-06
 193    2.7482001312703e-06
 194    -9.3746714402997e-08
 195     1.62822149788e-07
 196    -1.6120821304698e-07
 197    -2.2116938231584e-07
 198    1.7153239991349e-07
 199    4.2828109738106e-07
 200    9.8038837376188e-07
 201    -9.1837092261614e-08
 202    -3.4311244906388e-06
 203    1.3961413660484e-06
 204    3.6011740199012e-07
 205    6.2824938759793e-07
 206    2.3807937854429e-06
 207    -4.5765190158977e-08
 208    7.6442306626387e-06
 209    -1.0426988601328e-06
 210    5.1336383502227e-06
 211    -5.1814641267911e-07
 212    -2.7190157042783e-06
 213    3.6146508367617e-07
 214    1.7620732832608e-06
 215    3.139843501777e-08
 216    1.2480944119514e-06
 217    -3.422972745251e-08
 218    -1.9077325773438e-07
 219    -3.3104196392147e-07
 220    -1.586188833653e-06
 221    1.2724582020576e-07
 222    3.8921754688114e-06
 223    6.9612988907849e-05
 224    -7.7515898011551e-07
 225    2.5449730042257e-06
 226    -4.8538569790228e-06
 227    1.2794325720322e-05
 228    -2.3710557257939e-05
 229    8.1601976007492e-05
 230    2.1167477994296e-06
 231    3.6870126128298e-06
 232    8.3801578641468e-07
 233    -1.5478416418493e-06
 234    -2.2961408340808e-06
 235    1.242864448395e-06
 236    1.1067128328996e-05
 237    -8.2587786336263e-05
 238    -4.3503687579248e-07
 239    -4.1354346608632e-06
 240    -1.794477162974e-06
 241    5.3346334826819e-05
 242    1.3488653217809e-05
 243    6.130246224853e-05
 244    -1.4668334767063e-06
 245    -5.5803880824905e-06
 246    2.3020656057829e-07
 247    -2.8215710704715e-06
 248    -2.0483225729182e-07
 249    5.0327753138541e-06
 250    -1.0287584806656e-05
 251    4.0947209229523e-06
 252    3.3539521032706e-05
 253    -0.00027126182745569
 254    -2.1948505395749e-06
 255    4.7161419196351e-06
 256    -9.7862483625658e-06
 257    -9.9684094575978e-05
 258    -6.5623755422304e-05
 259    0.00029562657260194
 260    -3.8879028687116e-06
 261    1.3299714470986e-05
 262    2.9278293922049e-06
 263    -9.5527535906548e-06
 264    -1.3230955924784e-06
 265    9.3396731205767e-07
 266    -2.8877365028541e-05
 267    1.1066863859594e-05
 268    -2.3656331759245e-05
 269    5.468470213556e-05
 270    0.0001372459730801
 271    -0.0032490776886821
 272    -8.0799036232798e-05
 273    0.00017996907399568
 274    -3.6091077975366e-05
 275    -0.0024471579375086
 276    -0.00068300110777859
 277    0.0033920369417897
 278    -0.00011548407221353
 279    0.00027919147436955