[Molden Format]
made by pyscf v[2.0.1]
[Atoms] (AU)
C   1   6     0.69100024066471     0.64692934207205    -3.48223131169301
H   2   1     2.68052439830868     1.13355088658700    -3.25784032593313
C   3   6    -0.36286361513219     0.85440132524594    -5.97030179418974
H   4   1    -2.35448549047279     0.36322488579172    -6.17995817793143
C   5   6     0.93697958957450     1.61209284601821    -8.05828437677121
H   6   1     0.01358296644616     2.85086245433209    -9.41980240085128
C   7   6     3.49095983212942     0.86501358647737    -8.58301400036413
H   8   1     4.39173101664678    -0.37544723242066    -7.20113468241566
H   9   1     1.55630230933075    -1.92953025305990    12.99630010416247
C   10   6     0.75233899775814    -2.21270439606481    11.10705728102219
H   11   1    -0.43433408177274    -3.90944857546550    11.22216085340412
C   12   6     2.86362581178706    -2.63237380607947     9.17926416456045
H   13   1     4.39038949912609    -1.24955421540245     9.49899813497433
H   14   1     3.74629220191363    -4.48798724300892     9.47414880959024
C   15   6     2.02478325613682    -2.42177285709634     6.44560829588644
C   16   6     3.88048732735477    -3.58795445234514     4.61402886975252
C   17   6    -0.18412382258602    -1.30464291234259     5.76021113872346
C   18   6    -2.10044360464350    -0.26837831858460     7.71610340967100
C   19   6    -3.08956938670431     2.35282328359417     6.88693925039594
C   20   6    -4.37372924086464    -2.09766595989678     7.93610724222001
C   21   6    -0.83850430601230     0.06372213486173    10.33002307638377
H   22   1     0.38411922151109     1.74281358582432    10.27380136542181
H   23   1    -2.30980003007874     0.45460143924521    11.73986301809809
H   24   1     4.58527064644668    -5.38706904487420     5.36778158031719
H   25   1     5.54944938085014    -2.37631462192748     4.35398898413318
H   26   1     3.06633019150423    -3.94118377050688     2.75255466040884
H   27   1    -4.17727778763735     2.26573369139522     5.12914900961283
H   28   1    -1.52662344944051     3.68001877445626     6.59540397144508
H   29   1    -4.32916174397830     3.13643051467482     8.35225460090378
H   30   1    -5.32329548508442    -2.36691813602939     6.11583672749896
H   31   1    -5.77989366602257    -1.33896741843465     9.25748940450990
H   32   1    -3.79310905208926    -3.96389819310853     8.61386170102686
C   33   6    -1.01100794811226    -1.06331657314144     3.11929490449947
C   34   6     0.37686231036534    -0.33275864505552     1.09165013605873
H   35   1    -3.01671213906703    -1.40297922279997     2.77827895090944
C   36   6    -0.64382707979370    -0.11591880174385    -1.42063131251064
H   37   1     2.35569259782137     0.17174499283897     1.33641070251401
H   38   1    -2.63317482980319    -0.60229203511219    -1.66119700387645
C   39   6     4.85727779250226     1.56932506344372   -10.63578143211247
C   40   6     7.45078580641309     0.70440198785573   -10.99998857146552
H   41   1     4.07326566832422     2.80126406203857   -12.08333786763668
O   42   8     8.78463246786107     1.26137953491899   -12.79761289932761
H   43   1     8.17650804893433    -0.55247504818230    -9.47232163774676
[GTO]
1 0
 s    6 1.00
             3047.5249  0.0018347001629433
             457.36951    0.01403730124668
             103.94869   0.068842606114048
             29.210155    0.23218442062076
              9.286663    0.46794134155879
              3.163927    0.36231203217765
 s    3 1.00
             7.8682724   -0.11933240861517
             1.8812885   -0.16085421161283
             0.5442493     1.1434564825515
 s    1 1.00
             0.1687144                   1
 p    3 1.00
             7.8682724   0.068999095584993
             1.8812885    0.31642397975315
             0.5442493    0.74430825237435
 p    1 1.00
             0.1687144                   1
 d    1 1.00
                   0.8                   1

2 0
 s    3 1.00
             18.731137    0.03349459952309
             2.8253937    0.23472694665786
             0.6401217    0.81375731841339
 s    1 1.00
             0.1612778                   1

3 0
 s    6 1.00
             3047.5249  0.0018347001629433
             457.36951    0.01403730124668
             103.94869   0.068842606114048
             29.210155    0.23218442062076
              9.286663    0.46794134155879
              3.163927    0.36231203217765
 s    3 1.00
             7.8682724   -0.11933240861517
             1.8812885   -0.16085421161283
             0.5442493     1.1434564825515
 s    1 1.00
             0.1687144                   1
 p    3 1.00
             7.8682724   0.068999095584993
             1.8812885    0.31642397975315
             0.5442493    0.74430825237435
 p    1 1.00
             0.1687144                   1
 d    1 1.00
                   0.8                   1

4 0
 s    3 1.00
             18.731137    0.03349459952309
             2.8253937    0.23472694665786
             0.6401217    0.81375731841339
 s    1 1.00
             0.1612778                   1

5 0
 s    6 1.00
             3047.5249  0.0018347001629433
             457.36951    0.01403730124668
             103.94869   0.068842606114048
             29.210155    0.23218442062076
              9.286663    0.46794134155879
              3.163927    0.36231203217765
 s    3 1.00
             7.8682724   -0.11933240861517
             1.8812885   -0.16085421161283
             0.5442493     1.1434564825515
 s    1 1.00
             0.1687144                   1
 p    3 1.00
             7.8682724   0.068999095584993
             1.8812885    0.31642397975315
             0.5442493    0.74430825237435
 p    1 1.00
             0.1687144                   1
 d    1 1.00
                   0.8                   1

6 0
 s    3 1.00
             18.731137    0.03349459952309
             2.8253937    0.23472694665786
             0.6401217    0.81375731841339
 s    1 1.00
             0.1612778                   1

7 0
 s    6 1.00
             3047.5249  0.0018347001629433
             457.36951    0.01403730124668
             103.94869   0.068842606114048
             29.210155    0.23218442062076
              9.286663    0.46794134155879
              3.163927    0.36231203217765
 s    3 1.00
             7.8682724   -0.11933240861517
             1.8812885   -0.16085421161283
             0.5442493     1.1434564825515
 s    1 1.00
             0.1687144                   1
 p    3 1.00
             7.8682724   0.068999095584993
             1.8812885    0.31642397975315
             0.5442493    0.74430825237435
 p    1 1.00
             0.1687144                   1
 d    1 1.00
                   0.8                   1

8 0
 s    3 1.00
             18.731137    0.03349459952309
             2.8253937    0.23472694665786
             0.6401217    0.81375731841339
 s    1 1.00
             0.1612778                   1

9 0
 s    3 1.00
             18.731137    0.03349459952309
             2.8253937    0.23472694665786
             0.6401217    0.81375731841339
 s    1 1.00
             0.1612778                   1

10 0
 s    6 1.00
             3047.5249  0.0018347001629433
             457.36951    0.01403730124668
             103.94869   0.068842606114048
             29.210155    0.23218442062076
              9.286663    0.46794134155879
              3.163927    0.36231203217765
 s    3 1.00
             7.8682724   -0.11933240861517
             1.8812885   -0.16085421161283
             0.5442493     1.1434564825515
 s    1 1.00
             0.1687144                   1
 p    3 1.00
             7.8682724   0.068999095584993
             1.8812885    0.31642397975315
             0.5442493    0.74430825237435
 p    1 1.00
             0.1687144                   1
 d    1 1.00
                   0.8                   1

11 0
 s    3 1.00
             18.731137    0.03349459952309
             2.8253937    0.23472694665786
             0.6401217    0.81375731841339
 s    1 1.00
             0.1612778                   1

12 0
 s    6 1.00
             3047.5249  0.0018347001629433
             457.36951    0.01403730124668
             103.94869   0.068842606114048
             29.210155    0.23218442062076
              9.286663    0.46794134155879
              3.163927    0.36231203217765
 s    3 1.00
             7.8682724   -0.11933240861517
             1.8812885   -0.16085421161283
             0.5442493     1.1434564825515
 s    1 1.00
             0.1687144                   1
 p    3 1.00
             7.8682724   0.068999095584993
             1.8812885    0.31642397975315
             0.5442493    0.74430825237435
 p    1 1.00
             0.1687144                   1
 d    1 1.00
                   0.8                   1

13 0
 s    3 1.00
             18.731137    0.03349459952309
             2.8253937    0.23472694665786
             0.6401217    0.81375731841339
 s    1 1.00
             0.1612778                   1

14 0
 s    3 1.00
             18.731137    0.03349459952309
             2.8253937    0.23472694665786
             0.6401217    0.81375731841339
 s    1 1.00
             0.1612778                   1

15 0
 s    6 1.00
             3047.5249  0.0018347001629433
             457.36951    0.01403730124668
             103.94869   0.068842606114048
             29.210155    0.23218442062076
              9.286663    0.46794134155879
              3.163927    0.36231203217765
 s    3 1.00
             7.8682724   -0.11933240861517
             1.8812885   -0.16085421161283
             0.5442493     1.1434564825515
 s    1 1.00
             0.1687144                   1
 p    3 1.00
             7.8682724   0.068999095584993
             1.8812885    0.31642397975315
             0.5442493    0.74430825237435
 p    1 1.00
             0.1687144                   1
 d    1 1.00
                   0.8                   1

16 0
 s    6 1.00
             3047.5249  0.0018347001629433
             457.36951    0.01403730124668
             103.94869   0.068842606114048
             29.210155    0.23218442062076
              9.286663    0.46794134155879
              3.163927    0.36231203217765
 s    3 1.00
             7.8682724   -0.11933240861517
             1.8812885   -0.16085421161283
             0.5442493     1.1434564825515
 s    1 1.00
             0.1687144                   1
 p    3 1.00
             7.8682724   0.068999095584993
             1.8812885    0.31642397975315
             0.5442493    0.74430825237435
 p    1 1.00
             0.1687144                   1
 d    1 1.00
                   0.8                   1

17 0
 s    6 1.00
             3047.5249  0.0018347001629433
             457.36951    0.01403730124668
             103.94869   0.068842606114048
             29.210155    0.23218442062076
              9.286663    0.46794134155879
              3.163927    0.36231203217765
 s    3 1.00
             7.8682724   -0.11933240861517
             1.8812885   -0.16085421161283
             0.5442493     1.1434564825515
 s    1 1.00
             0.1687144                   1
 p    3 1.00
             7.8682724   0.068999095584993
             1.8812885    0.31642397975315
             0.5442493    0.74430825237435
 p    1 1.00
             0.1687144                   1
 d    1 1.00
                   0.8                   1

18 0
 s    6 1.00
             3047.5249  0.0018347001629433
             457.36951    0.01403730124668
             103.94869   0.068842606114048
             29.210155    0.23218442062076
              9.286663    0.46794134155879
              3.163927    0.36231203217765
 s    3 1.00
             7.8682724   -0.11933240861517
             1.8812885   -0.16085421161283
             0.5442493     1.1434564825515
 s    1 1.00
             0.1687144                   1
 p    3 1.00
             7.8682724   0.068999095584993
             1.8812885    0.31642397975315
             0.5442493    0.74430825237435
 p    1 1.00
             0.1687144                   1
 d    1 1.00
                   0.8                   1

19 0
 s    6 1.00
             3047.5249  0.0018347001629433
             457.36951    0.01403730124668
             103.94869   0.068842606114048
             29.210155    0.23218442062076
              9.286663    0.46794134155879
              3.163927    0.36231203217765
 s    3 1.00
             7.8682724   -0.11933240861517
             1.8812885   -0.16085421161283
             0.5442493     1.1434564825515
 s    1 1.00
             0.1687144                   1
 p    3 1.00
             7.8682724   0.068999095584993
             1.8812885    0.31642397975315
             0.5442493    0.74430825237435
 p    1 1.00
             0.1687144                   1
 d    1 1.00
                   0.8                   1

20 0
 s    6 1.00
             3047.5249  0.0018347001629433
             457.36951    0.01403730124668
             103.94869   0.068842606114048
             29.210155    0.23218442062076
              9.286663    0.46794134155879
              3.163927    0.36231203217765
 s    3 1.00
             7.8682724   -0.11933240861517
             1.8812885   -0.16085421161283
             0.5442493     1.1434564825515
 s    1 1.00
             0.1687144                   1
 p    3 1.00
             7.8682724   0.068999095584993
             1.8812885    0.31642397975315
             0.5442493    0.74430825237435
 p    1 1.00
             0.1687144                   1
 d    1 1.00
                   0.8                   1

21 0
 s    6 1.00
             3047.5249  0.0018347001629433
             457.36951    0.01403730124668
             103.94869   0.068842606114048
             29.210155    0.23218442062076
              9.286663    0.46794134155879
              3.163927    0.36231203217765
 s    3 1.00
             7.8682724   -0.11933240861517
             1.8812885   -0.16085421161283
             0.5442493     1.1434564825515
 s    1 1.00
             0.1687144                   1
 p    3 1.00
             7.8682724   0.068999095584993
             1.8812885    0.31642397975315
             0.5442493    0.74430825237435
 p    1 1.00
             0.1687144                   1
 d    1 1.00
                   0.8                   1

22 0
 s    3 1.00
             18.731137    0.03349459952309
             2.8253937    0.23472694665786
             0.6401217    0.81375731841339
 s    1 1.00
             0.1612778                   1

23 0
 s    3 1.00
             18.731137    0.03349459952309
             2.8253937    0.23472694665786
             0.6401217    0.81375731841339
 s    1 1.00
             0.1612778                   1

24 0
 s    3 1.00
             18.731137    0.03349459952309
             2.8253937    0.23472694665786
             0.6401217    0.81375731841339
 s    1 1.00
             0.1612778                   1

25 0
 s    3 1.00
             18.731137    0.03349459952309
             2.8253937    0.23472694665786
             0.6401217    0.81375731841339
 s    1 1.00
             0.1612778                   1

26 0
 s    3 1.00
             18.731137    0.03349459952309
             2.8253937    0.23472694665786
             0.6401217    0.81375731841339
 s    1 1.00
             0.1612778                   1

27 0
 s    3 1.00
             18.731137    0.03349459952309
             2.8253937    0.23472694665786
             0.6401217    0.81375731841339
 s    1 1.00
             0.1612778                   1

28 0
 s    3 1.00
             18.731137    0.03349459952309
             2.8253937    0.23472694665786
             0.6401217    0.81375731841339
 s    1 1.00
             0.1612778                   1

29 0
 s    3 1.00
             18.731137    0.03349459952309
             2.8253937    0.23472694665786
             0.6401217    0.81375731841339
 s    1 1.00
             0.1612778                   1

30 0
 s    3 1.00
             18.731137    0.03349459952309
             2.8253937    0.23472694665786
             0.6401217    0.81375731841339
 s    1 1.00
             0.1612778                   1

31 0
 s    3 1.00
             18.731137    0.03349459952309
             2.8253937    0.23472694665786
             0.6401217    0.81375731841339
 s    1 1.00
             0.1612778                   1

32 0
 s    3 1.00
             18.731137    0.03349459952309
             2.8253937    0.23472694665786
             0.6401217    0.81375731841339
 s    1 1.00
             0.1612778                   1

33 0
 s    6 1.00
             3047.5249  0.0018347001629433
             457.36951    0.01403730124668
             103.94869   0.068842606114048
             29.210155    0.23218442062076
              9.286663    0.46794134155879
              3.163927    0.36231203217765
 s    3 1.00
             7.8682724   -0.11933240861517
             1.8812885   -0.16085421161283
             0.5442493     1.1434564825515
 s    1 1.00
             0.1687144                   1
 p    3 1.00
             7.8682724   0.068999095584993
             1.8812885    0.31642397975315
             0.5442493    0.74430825237435
 p    1 1.00
             0.1687144                   1
 d    1 1.00
                   0.8                   1

34 0
 s    6 1.00
             3047.5249  0.0018347001629433
             457.36951    0.01403730124668
             103.94869   0.068842606114048
             29.210155    0.23218442062076
              9.286663    0.46794134155879
              3.163927    0.36231203217765
 s    3 1.00
             7.8682724   -0.11933240861517
             1.8812885   -0.16085421161283
             0.5442493     1.1434564825515
 s    1 1.00
             0.1687144                   1
 p    3 1.00
             7.8682724   0.068999095584993
             1.8812885    0.31642397975315
             0.5442493    0.74430825237435
 p    1 1.00
             0.1687144                   1
 d    1 1.00
                   0.8                   1

35 0
 s    3 1.00
             18.731137    0.03349459952309
             2.8253937    0.23472694665786
             0.6401217    0.81375731841339
 s    1 1.00
             0.1612778                   1

36 0
 s    6 1.00
             3047.5249  0.0018347001629433
             457.36951    0.01403730124668
             103.94869   0.068842606114048
             29.210155    0.23218442062076
              9.286663    0.46794134155879
              3.163927    0.36231203217765
 s    3 1.00
             7.8682724   -0.11933240861517
             1.8812885   -0.16085421161283
             0.5442493     1.1434564825515
 s    1 1.00
             0.1687144                   1
 p    3 1.00
             7.8682724   0.068999095584993
             1.8812885    0.31642397975315
             0.5442493    0.74430825237435
 p    1 1.00
             0.1687144                   1
 d    1 1.00
                   0.8                   1

37 0
 s    3 1.00
             18.731137    0.03349459952309
             2.8253937    0.23472694665786
             0.6401217    0.81375731841339
 s    1 1.00
             0.1612778                   1

38 0
 s    3 1.00
             18.731137    0.03349459952309
             2.8253937    0.23472694665786
             0.6401217    0.81375731841339
 s    1 1.00
             0.1612778                   1

39 0
 s    6 1.00
             3047.5249  0.0018347001629433
             457.36951    0.01403730124668
             103.94869   0.068842606114048
             29.210155    0.23218442062076
              9.286663    0.46794134155879
              3.163927    0.36231203217765
 s    3 1.00
             7.8682724   -0.11933240861517
             1.8812885   -0.16085421161283
             0.5442493     1.1434564825515
 s    1 1.00
             0.1687144                   1
 p    3 1.00
             7.8682724   0.068999095584993
             1.8812885    0.31642397975315
             0.5442493    0.74430825237435
 p    1 1.00
             0.1687144                   1
 d    1 1.00
                   0.8                   1

40 0
 s    6 1.00
             3047.5249  0.0018347001629433
             457.36951    0.01403730124668
             103.94869   0.068842606114048
             29.210155    0.23218442062076
              9.286663    0.46794134155879
              3.163927    0.36231203217765
 s    3 1.00
             7.8682724   -0.11933240861517
             1.8812885   -0.16085421161283
             0.5442493     1.1434564825515
 s    1 1.00
             0.1687144                   1
 p    3 1.00
             7.8682724   0.068999095584993
             1.8812885    0.31642397975315
             0.5442493    0.74430825237435
 p    1 1.00
             0.1687144                   1
 d    1 1.00
                   0.8                   1

41 0
 s    3 1.00
             18.731137    0.03349459952309
             2.8253937    0.23472694665786
             0.6401217    0.81375731841339
 s    1 1.00
             0.1612778                   1

42 0
 s    6 1.00
             5484.6717   0.001831099805527
             825.23495   0.013950098518422
             188.04696    0.06844509273075
               52.9645    0.23271427528445
              16.89757    0.47019295006289
             5.7996353    0.35852086192309
 s    3 1.00
             15.539616   -0.11077750382508
             3.5999336   -0.14802630511126
             1.0137618     1.1307670390447
 s    1 1.00
             0.2700058                   1
 p    3 1.00
             15.539616   0.070874299543311
             3.5999336    0.33975279781076
             1.0137618    0.72715859531445
 p    1 1.00
             0.2700058                   1
 d    1 1.00
                   0.8                   1

43 0
 s    3 1.00
             18.731137    0.03349459952309
             2.8253937    0.23472694665786
             0.6401217    0.81375731841339
 s    1 1.00
             0.1612778                   1

[5d]
[7f]
[9g]

[MO]
 Sym= A
 Ene=               0
 Spin= Alpha
 Occup=    1.00000
   1    8.1818580332886e-06
   2    6.5256169392613e-05
   3    -0.00089888950578992
   4    2.5462150187825e-05
   5    -2.7479948014267e-05
   6    -2.5173650612436e-06
   7    6.5756904419357e-05
   8    8.2467554067687e-05
   9    0.0005513242615026
  10    -2.4330676156337e-05
  11    -1.7301198912822e-05
  12    -7.0167718137328e-06
  13    2.5469120147826e-06
  14    -3.5136705239926e-06
  15    1.4957422518675e-05
  16    3.0212610388961e-05
  17    -1.3705930992152e-05
  18    -2.5571639389315e-05
  19    0.0017195605568344
  20    3.9384080331008e-05
  21    1.1947189627024e-05
  22    -6.9611271559488e-05
  23    0.0010903709784567
  24    -3.2608596357381e-05
  25    7.2217985454766e-05
  26    3.6828641589968e-05
  27    -2.9097125166762e-05
  28    1.5306755968559e-05
  29    2.9607395319947e-05
  30    2.7804329852294e-05
  31    3.223037065656e-05
  32    0.00022114241260783
  33    5.8970262401704e-05
  34    0.00036933420348815
  35    -0.0051154224284722
  36    -0.00012205944522391
  37    -1.13075191377e-05
  38    9.861873569965e-05
  39    -0.0021348337056814
  40    0.0012607039397148
  41    -0.00076312690911985
  42    2.5829497054188e-05
  43    8.1056752544086e-05
  44    2.8000724612443e-05
  45    -0.00011603992469499
  46    7.5301051313695e-05
  47    -3.7736320710784e-05
  48    -0.00040887493027022
  49    2.5002360110651e-06
  50    0.0001146178024701
  51    0.0040905052247405
  52    0.00036841014310968
  53    -0.0001120517509017
  54    -8.6164441398601e-05
  55    -0.0040404737111399
  56    0.0013764678448858
  57    0.00061091269765409
  58    -0.00016655600915624
  59    1.0258773203403e-05
  60    0.00014820407688483
  61    0.00010182830333233
  62    -7.1579197182273e-05
  63    0.00029990761219709
  64    0.00017167796787934
  65    1.688966810221e-07
  66    -8.4842896863243e-07
  67    3.530931062503e-08
  68    1.9421195181993e-07
  69    1.6893429206505e-06
  70    -3.2966758051795e-07
  71    4.3349192428994e-07
  72    1.3867873800792e-07
  73    -1.4635601837974e-06
  74    -6.9170129965326e-07
  75    1.7335388015091e-07
  76    -2.2335300450813e-07
  77    -1.7611277643635e-07
  78    -4.2431637741836e-08
  79    -8.1453078290946e-08
  80    -1.8535890072962e-07
  81    -1.1608190538434e-07
  82    -1.0126152286327e-06
  83    -1.6796508373662e-07
  84    -1.8139021331641e-06
  85    -1.1434093962931e-05
  86    6.3298317400643e-07
  87    -6.2023912875356e-07
  88    5.3877537277656e-07
  89    -1.1956980286761e-08
  90    4.5484042192148e-06
  91    5.6756762910907e-06
  92    1.6686436864336e-07
  93    2.1156721066945e-08
  94    -2.400318315099e-07
  95    3.4610439789824e-07
  96    -1.6124606048947e-07
  97    -3.8973266093988e-07
  98    -1.0319646739336e-06
  99    7.4715846752648e-07
 100    1.3700248642157e-06
 101    4.7097389562071e-07
 102    2.3764718272863e-06
 103    -5.1713784882846e-05
 104    1.622467689869e-06
 105    -5.260672867276e-07
 106    4.7015106084571e-08
 107    4.0200144028703e-06
 108    -5.3459319388293e-06
 109    4.6585158219236e-05
 110    -6.5992306176912e-07
 111    -1.3474559013529e-06
 112    5.5908647382649e-07
 113    -8.1352397004759e-08
 114    4.1615456651971e-07
 115    -4.2862248194591e-07
 116    -3.6275887767739e-06
 117    2.9443432690983e-05
 118    -4.5126805428287e-07
 119    -4.9840040300275e-07
 120    1.436262765425e-06
 121    -1.2636751367376e-05
 122    1.2747148969414e-05
 123    5.5176592148496e-07
 124    -5.6732472354904e-07
 125    -1.8674561443481e-07
 126    7.4371401505595e-07
 127    5.5707594307429e-07
 128    -3.848200004444e-07
 129    -1.1711898284851e-06
 130    -7.5290031307718e-06
 131    6.0161097698976e-05
 132    -2.6797776918295e-06
 133    1.4076824952418e-06
 134    2.8517791470736e-06
 135    5.2302185811019e-05
 136    -1.7698739954549e-05
 137    -8.9793414919351e-05
 138    2.7292873052368e-06
 139    1.2586066404288e-06
 140    -1.5318811916305e-06
 141    3.7422227775938e-07
 142    -1.7044410529532e-06
 143    -7.5785393630308e-07
 144    -5.5940123125874e-06
 145    6.1932660181484e-05
 146    -4.4890930057937e-07
 147    -1.9672637350453e-07
 148    -2.6819426887674e-06
 149    3.1234172599888e-05
 150    -2.1750530734286e-05
 151    5.9266441921736e-06
 152    -1.7539016325057e-07
 153    -3.7355614751667e-07
 154    9.8897356632455e-07
 155    7.8431247363559e-07
 156    -6.0926731789017e-07
 157    -2.9989613861965e-07
 158    -2.831358507159e-06
 159    1.558641617505e-05
 160    -2.2706089251496e-07
 161    -8.1613400522692e-08
 162    2.447645145062e-07
 163    -9.6276220983367e-07
 164    -6.0540303135353e-06
 165    -1.8271271947922e-06
 166    2.0436965313407e-08
 167    -3.2803907199098e-07
 168    6.8721601240367e-08
 169    -5.1496921876839e-07
 170    1.5202921814299e-07
 171    1.4403385794987e-08
 172    2.1126725728513e-07
 173    1.400329077815e-07
 174    3.6813535573512e-07
 175    -1.0047620950075e-07
 176    -8.8866403418905e-07
 177    -8.8957704820427e-06
 178    2.1705942333254e-06
 179    -1.7918719665499e-06
 180    1.2547224301031e-07
 181    -7.9491155366124e-07
 182    2.2104629807747e-07
 183    -8.1908460445093e-07
 184    -5.1482236473389e-07
 185    2.3271174716946e-07
 186    1.2125325247559e-06
 187    -2.1922668228476e-05
 188    6.4153463164168e-07
 189    2.7358843289852e-07
 190    1.5759970072768e-06
 191    3.0649265672478e-06
 192    4.6685101926574e-06
 193    7.5620598333866e-06
 194    -4.5493206510983e-07
 195    -6.1442539887403e-07
 196    -4.3808472000752e-07
 197    4.8291279367028e-07
 198    -3.9746436357817e-07
 199    7.5407617015829e-07
 200    -9.6009354736611e-07
 201    3.5061460305219e-07
 202    2.2380064508718e-06
 203    2.0743449809986e-08
 204    3.9801305889123e-06
 205    -1.9119594540188e-06
 206    -5.168957889166e-07
 207    -2.1523243968746e-06
 208    -1.4663773705668e-06
 209    -5.3504921089116e-07
 210    -4.7756351874215e-06
 211    -4.1234015513005e-07
 212    1.5046792996468e-07
 213    -6.0260291781089e-07
 214    1.207591898364e-06
 215    1.8232605651063e-06
 216    -9.317411774345e-06
 217    -6.7739692218309e-07
 218    -1.8002132905458e-06
 219    1.9126712295434e-07
 220    3.014490099036e-06
 221    2.4862367730784e-06
 222    1.4771657350383e-05
 223    -0.00026519695503664
 224    -4.7333297004132e-07
 225    -4.2802428589002e-06
 226    5.9606092785704e-06
 227    -8.2730904575862e-05
 228    -1.3386683797222e-05
 229    5.2949832240525e-05
 230    -5.2912171155951e-06
 231    1.6322651093664e-06
 232    3.5847968300285e-06
 233    -1.0675939449937e-06
 234    -6.5988442890348e-07
 235    -2.8616974581168e-06
 236    -1.6397102518522e-05
 237    0.00036354090062066
 238    4.1626235652669e-06
 239    6.7910241418628e-06
 240    -1.0616586177794e-05
 241    -0.00015579541947719
 242    -4.5700035328392e-05
 243    2.7354454519922e-05
 244    5.9002250772557e-06
 245    -1.4074232514891e-06
 246    -5.0528177897384e-06
 247    1.7594525908087e-06
 248    -5.2931721571264e-07
 249    -2.0678550744252e-06
 250    6.6905724675409e-06
 251    -1.0114713692185e-06
 252    -1.0864854249348e-05
 253    -9.6707295756977e-05
 254    5.6281097652193e-06
 255    1.4740621311938e-06
 256    1.7178888423762e-05
 257    -9.3508268088463e-05
 258    -2.6759075028939e-05
 259    -0.00028277059868792
 260    1.0390421616926e-06
 261    -8.6302400984073e-06
 262    2.5499894637833e-06
 263    6.2736354144199e-06
 264    -5.4419120754789e-06
 265    1.0936003146011e-05
 266    1.2230250892075e-05
 267    -1.7165599062251e-05
 268    -3.7566843021956e-05
 269    -5.4624450933268e-05
 270    -0.00013698030162318
 271    0.0032700693913847
 272    0.00013078087652041
 273    -0.00011234016220681
 274    9.2416704531133e-05
 275    0.0027193396012811
 276    0.00083239220849561
 277    -0.0032027731419619
 278    -4.8920595572539e-05
 279    -0.00033756036252125
 280    0.00013775189362368