[Molden Format]
made by pyscf v[2.0.1]
[Atoms] (AU)
C   1   6     0.69100024066471     0.64692934207205    -3.48223131169301
H   2   1     2.68052439830868     1.13355088658700    -3.25784032593313
C   3   6    -0.36286361513219     0.85440132524594    -5.97030179418974
H   4   1    -2.35448549047279     0.36322488579172    -6.17995817793143
C   5   6     0.93697958957450     1.61209284601821    -8.05828437677121
H   6   1     2.28684852848462     3.15852966115860    -7.89296704602693
C   7   6     0.63106041134958     0.47904579632082   -10.50346361691732
H   8   1    -0.72718870892227    -1.06897620367389   -10.63951300078030
H   9   1     1.55630230933075    -1.92953025305990    12.99630010416247
C   10   6     0.75233899775814    -2.21270439606481    11.10705728102219
H   11   1    -0.43433408177274    -3.90944857546550    11.22216085340412
C   12   6     2.86362581178706    -2.63237380607947     9.17926416456045
H   13   1     4.39038949912609    -1.24955421540245     9.49899813497433
H   14   1     3.74629220191363    -4.48798724300892     9.47414880959024
C   15   6     2.02478325613682    -2.42177285709634     6.44560829588644
C   16   6     3.88048732735477    -3.58795445234514     4.61402886975252
C   17   6    -0.18412382258602    -1.30464291234259     5.76021113872346
C   18   6    -2.10044360464350    -0.26837831858460     7.71610340967100
C   19   6    -3.08956938670431     2.35282328359417     6.88693925039594
C   20   6    -4.37372924086464    -2.09766595989678     7.93610724222001
C   21   6    -0.83850430601230     0.06372213486173    10.33002307638377
H   22   1     0.38411922151109     1.74281358582432    10.27380136542181
H   23   1    -2.30980003007874     0.45460143924521    11.73986301809809
H   24   1     4.58527064644668    -5.38706904487420     5.36778158031719
H   25   1     5.54944938085014    -2.37631462192748     4.35398898413318
H   26   1     3.06633019150423    -3.94118377050688     2.75255466040884
H   27   1    -4.17727778763735     2.26573369139522     5.12914900961283
H   28   1    -1.52662344944051     3.68001877445626     6.59540397144508
H   29   1    -4.32916174397830     3.13643051467482     8.35225460090378
H   30   1    -5.32329548508442    -2.36691813602939     6.11583672749896
H   31   1    -5.77989366602257    -1.33896741843465     9.25748940450990
H   32   1    -3.79310905208926    -3.96389819310853     8.61386170102686
C   33   6    -1.01100794811226    -1.06331657314144     3.11929490449947
C   34   6     0.37686231036534    -0.33275864505552     1.09165013605873
H   35   1    -3.01671213906703    -1.40297922279997     2.77827895090944
C   36   6    -0.64382707979370    -0.11591880174385    -1.42063131251064
H   37   1     2.35569259782137     0.17174499283897     1.33641070251401
H   38   1    -2.63317482980319    -0.60229203511219    -1.66119700387645
C   39   6     1.88057107480096     1.17167710004378   -12.63318625924474
C   40   6     1.43424299107759    -0.10242214041261   -15.03828188134704
H   41   1     3.25774949416826     2.69847908646217   -12.62832443574420
O   42   8     2.48751113017790     0.42264932688836   -17.02215443525925
H   43   1     0.01015752982003    -1.65333508727432   -14.95564685399208
[GTO]
1 0
 s    6 1.00
             3047.5249  0.0018347001629433
             457.36951    0.01403730124668
             103.94869   0.068842606114048
             29.210155    0.23218442062076
              9.286663    0.46794134155879
              3.163927    0.36231203217765
 s    3 1.00
             7.8682724   -0.11933240861517
             1.8812885   -0.16085421161283
             0.5442493     1.1434564825515
 s    1 1.00
             0.1687144                   1
 p    3 1.00
             7.8682724   0.068999095584993
             1.8812885    0.31642397975315
             0.5442493    0.74430825237435
 p    1 1.00
             0.1687144                   1
 d    1 1.00
                   0.8                   1

2 0
 s    3 1.00
             18.731137    0.03349459952309
             2.8253937    0.23472694665786
             0.6401217    0.81375731841339
 s    1 1.00
             0.1612778                   1

3 0
 s    6 1.00
             3047.5249  0.0018347001629433
             457.36951    0.01403730124668
             103.94869   0.068842606114048
             29.210155    0.23218442062076
              9.286663    0.46794134155879
              3.163927    0.36231203217765
 s    3 1.00
             7.8682724   -0.11933240861517
             1.8812885   -0.16085421161283
             0.5442493     1.1434564825515
 s    1 1.00
             0.1687144                   1
 p    3 1.00
             7.8682724   0.068999095584993
             1.8812885    0.31642397975315
             0.5442493    0.74430825237435
 p    1 1.00
             0.1687144                   1
 d    1 1.00
                   0.8                   1

4 0
 s    3 1.00
             18.731137    0.03349459952309
             2.8253937    0.23472694665786
             0.6401217    0.81375731841339
 s    1 1.00
             0.1612778                   1

5 0
 s    6 1.00
             3047.5249  0.0018347001629433
             457.36951    0.01403730124668
             103.94869   0.068842606114048
             29.210155    0.23218442062076
              9.286663    0.46794134155879
              3.163927    0.36231203217765
 s    3 1.00
             7.8682724   -0.11933240861517
             1.8812885   -0.16085421161283
             0.5442493     1.1434564825515
 s    1 1.00
             0.1687144                   1
 p    3 1.00
             7.8682724   0.068999095584993
             1.8812885    0.31642397975315
             0.5442493    0.74430825237435
 p    1 1.00
             0.1687144                   1
 d    1 1.00
                   0.8                   1

6 0
 s    3 1.00
             18.731137    0.03349459952309
             2.8253937    0.23472694665786
             0.6401217    0.81375731841339
 s    1 1.00
             0.1612778                   1

7 0
 s    6 1.00
             3047.5249  0.0018347001629433
             457.36951    0.01403730124668
             103.94869   0.068842606114048
             29.210155    0.23218442062076
              9.286663    0.46794134155879
              3.163927    0.36231203217765
 s    3 1.00
             7.8682724   -0.11933240861517
             1.8812885   -0.16085421161283
             0.5442493     1.1434564825515
 s    1 1.00
             0.1687144                   1
 p    3 1.00
             7.8682724   0.068999095584993
             1.8812885    0.31642397975315
             0.5442493    0.74430825237435
 p    1 1.00
             0.1687144                   1
 d    1 1.00
                   0.8                   1

8 0
 s    3 1.00
             18.731137    0.03349459952309
             2.8253937    0.23472694665786
             0.6401217    0.81375731841339
 s    1 1.00
             0.1612778                   1

9 0
 s    3 1.00
             18.731137    0.03349459952309
             2.8253937    0.23472694665786
             0.6401217    0.81375731841339
 s    1 1.00
             0.1612778                   1

10 0
 s    6 1.00
             3047.5249  0.0018347001629433
             457.36951    0.01403730124668
             103.94869   0.068842606114048
             29.210155    0.23218442062076
              9.286663    0.46794134155879
              3.163927    0.36231203217765
 s    3 1.00
             7.8682724   -0.11933240861517
             1.8812885   -0.16085421161283
             0.5442493     1.1434564825515
 s    1 1.00
             0.1687144                   1
 p    3 1.00
             7.8682724   0.068999095584993
             1.8812885    0.31642397975315
             0.5442493    0.74430825237435
 p    1 1.00
             0.1687144                   1
 d    1 1.00
                   0.8                   1

11 0
 s    3 1.00
             18.731137    0.03349459952309
             2.8253937    0.23472694665786
             0.6401217    0.81375731841339
 s    1 1.00
             0.1612778                   1

12 0
 s    6 1.00
             3047.5249  0.0018347001629433
             457.36951    0.01403730124668
             103.94869   0.068842606114048
             29.210155    0.23218442062076
              9.286663    0.46794134155879
              3.163927    0.36231203217765
 s    3 1.00
             7.8682724   -0.11933240861517
             1.8812885   -0.16085421161283
             0.5442493     1.1434564825515
 s    1 1.00
             0.1687144                   1
 p    3 1.00
             7.8682724   0.068999095584993
             1.8812885    0.31642397975315
             0.5442493    0.74430825237435
 p    1 1.00
             0.1687144                   1
 d    1 1.00
                   0.8                   1

13 0
 s    3 1.00
             18.731137    0.03349459952309
             2.8253937    0.23472694665786
             0.6401217    0.81375731841339
 s    1 1.00
             0.1612778                   1

14 0
 s    3 1.00
             18.731137    0.03349459952309
             2.8253937    0.23472694665786
             0.6401217    0.81375731841339
 s    1 1.00
             0.1612778                   1

15 0
 s    6 1.00
             3047.5249  0.0018347001629433
             457.36951    0.01403730124668
             103.94869   0.068842606114048
             29.210155    0.23218442062076
              9.286663    0.46794134155879
              3.163927    0.36231203217765
 s    3 1.00
             7.8682724   -0.11933240861517
             1.8812885   -0.16085421161283
             0.5442493     1.1434564825515
 s    1 1.00
             0.1687144                   1
 p    3 1.00
             7.8682724   0.068999095584993
             1.8812885    0.31642397975315
             0.5442493    0.74430825237435
 p    1 1.00
             0.1687144                   1
 d    1 1.00
                   0.8                   1

16 0
 s    6 1.00
             3047.5249  0.0018347001629433
             457.36951    0.01403730124668
             103.94869   0.068842606114048
             29.210155    0.23218442062076
              9.286663    0.46794134155879
              3.163927    0.36231203217765
 s    3 1.00
             7.8682724   -0.11933240861517
             1.8812885   -0.16085421161283
             0.5442493     1.1434564825515
 s    1 1.00
             0.1687144                   1
 p    3 1.00
             7.8682724   0.068999095584993
             1.8812885    0.31642397975315
             0.5442493    0.74430825237435
 p    1 1.00
             0.1687144                   1
 d    1 1.00
                   0.8                   1

17 0
 s    6 1.00
             3047.5249  0.0018347001629433
             457.36951    0.01403730124668
             103.94869   0.068842606114048
             29.210155    0.23218442062076
              9.286663    0.46794134155879
              3.163927    0.36231203217765
 s    3 1.00
             7.8682724   -0.11933240861517
             1.8812885   -0.16085421161283
             0.5442493     1.1434564825515
 s    1 1.00
             0.1687144                   1
 p    3 1.00
             7.8682724   0.068999095584993
             1.8812885    0.31642397975315
             0.5442493    0.74430825237435
 p    1 1.00
             0.1687144                   1
 d    1 1.00
                   0.8                   1

18 0
 s    6 1.00
             3047.5249  0.0018347001629433
             457.36951    0.01403730124668
             103.94869   0.068842606114048
             29.210155    0.23218442062076
              9.286663    0.46794134155879
              3.163927    0.36231203217765
 s    3 1.00
             7.8682724   -0.11933240861517
             1.8812885   -0.16085421161283
             0.5442493     1.1434564825515
 s    1 1.00
             0.1687144                   1
 p    3 1.00
             7.8682724   0.068999095584993
             1.8812885    0.31642397975315
             0.5442493    0.74430825237435
 p    1 1.00
             0.1687144                   1
 d    1 1.00
                   0.8                   1

19 0
 s    6 1.00
             3047.5249  0.0018347001629433
             457.36951    0.01403730124668
             103.94869   0.068842606114048
             29.210155    0.23218442062076
              9.286663    0.46794134155879
              3.163927    0.36231203217765
 s    3 1.00
             7.8682724   -0.11933240861517
             1.8812885   -0.16085421161283
             0.5442493     1.1434564825515
 s    1 1.00
             0.1687144                   1
 p    3 1.00
             7.8682724   0.068999095584993
             1.8812885    0.31642397975315
             0.5442493    0.74430825237435
 p    1 1.00
             0.1687144                   1
 d    1 1.00
                   0.8                   1

20 0
 s    6 1.00
             3047.5249  0.0018347001629433
             457.36951    0.01403730124668
             103.94869   0.068842606114048
             29.210155    0.23218442062076
              9.286663    0.46794134155879
              3.163927    0.36231203217765
 s    3 1.00
             7.8682724   -0.11933240861517
             1.8812885   -0.16085421161283
             0.5442493     1.1434564825515
 s    1 1.00
             0.1687144                   1
 p    3 1.00
             7.8682724   0.068999095584993
             1.8812885    0.31642397975315
             0.5442493    0.74430825237435
 p    1 1.00
             0.1687144                   1
 d    1 1.00
                   0.8                   1

21 0
 s    6 1.00
             3047.5249  0.0018347001629433
             457.36951    0.01403730124668
             103.94869   0.068842606114048
             29.210155    0.23218442062076
              9.286663    0.46794134155879
              3.163927    0.36231203217765
 s    3 1.00
             7.8682724   -0.11933240861517
             1.8812885   -0.16085421161283
             0.5442493     1.1434564825515
 s    1 1.00
             0.1687144                   1
 p    3 1.00
             7.8682724   0.068999095584993
             1.8812885    0.31642397975315
             0.5442493    0.74430825237435
 p    1 1.00
             0.1687144                   1
 d    1 1.00
                   0.8                   1

22 0
 s    3 1.00
             18.731137    0.03349459952309
             2.8253937    0.23472694665786
             0.6401217    0.81375731841339
 s    1 1.00
             0.1612778                   1

23 0
 s    3 1.00
             18.731137    0.03349459952309
             2.8253937    0.23472694665786
             0.6401217    0.81375731841339
 s    1 1.00
             0.1612778                   1

24 0
 s    3 1.00
             18.731137    0.03349459952309
             2.8253937    0.23472694665786
             0.6401217    0.81375731841339
 s    1 1.00
             0.1612778                   1

25 0
 s    3 1.00
             18.731137    0.03349459952309
             2.8253937    0.23472694665786
             0.6401217    0.81375731841339
 s    1 1.00
             0.1612778                   1

26 0
 s    3 1.00
             18.731137    0.03349459952309
             2.8253937    0.23472694665786
             0.6401217    0.81375731841339
 s    1 1.00
             0.1612778                   1

27 0
 s    3 1.00
             18.731137    0.03349459952309
             2.8253937    0.23472694665786
             0.6401217    0.81375731841339
 s    1 1.00
             0.1612778                   1

28 0
 s    3 1.00
             18.731137    0.03349459952309
             2.8253937    0.23472694665786
             0.6401217    0.81375731841339
 s    1 1.00
             0.1612778                   1

29 0
 s    3 1.00
             18.731137    0.03349459952309
             2.8253937    0.23472694665786
             0.6401217    0.81375731841339
 s    1 1.00
             0.1612778                   1

30 0
 s    3 1.00
             18.731137    0.03349459952309
             2.8253937    0.23472694665786
             0.6401217    0.81375731841339
 s    1 1.00
             0.1612778                   1

31 0
 s    3 1.00
             18.731137    0.03349459952309
             2.8253937    0.23472694665786
             0.6401217    0.81375731841339
 s    1 1.00
             0.1612778                   1

32 0
 s    3 1.00
             18.731137    0.03349459952309
             2.8253937    0.23472694665786
             0.6401217    0.81375731841339
 s    1 1.00
             0.1612778                   1

33 0
 s    6 1.00
             3047.5249  0.0018347001629433
             457.36951    0.01403730124668
             103.94869   0.068842606114048
             29.210155    0.23218442062076
              9.286663    0.46794134155879
              3.163927    0.36231203217765
 s    3 1.00
             7.8682724   -0.11933240861517
             1.8812885   -0.16085421161283
             0.5442493     1.1434564825515
 s    1 1.00
             0.1687144                   1
 p    3 1.00
             7.8682724   0.068999095584993
             1.8812885    0.31642397975315
             0.5442493    0.74430825237435
 p    1 1.00
             0.1687144                   1
 d    1 1.00
                   0.8                   1

34 0
 s    6 1.00
             3047.5249  0.0018347001629433
             457.36951    0.01403730124668
             103.94869   0.068842606114048
             29.210155    0.23218442062076
              9.286663    0.46794134155879
              3.163927    0.36231203217765
 s    3 1.00
             7.8682724   -0.11933240861517
             1.8812885   -0.16085421161283
             0.5442493     1.1434564825515
 s    1 1.00
             0.1687144                   1
 p    3 1.00
             7.8682724   0.068999095584993
             1.8812885    0.31642397975315
             0.5442493    0.74430825237435
 p    1 1.00
             0.1687144                   1
 d    1 1.00
                   0.8                   1

35 0
 s    3 1.00
             18.731137    0.03349459952309
             2.8253937    0.23472694665786
             0.6401217    0.81375731841339
 s    1 1.00
             0.1612778                   1

36 0
 s    6 1.00
             3047.5249  0.0018347001629433
             457.36951    0.01403730124668
             103.94869   0.068842606114048
             29.210155    0.23218442062076
              9.286663    0.46794134155879
              3.163927    0.36231203217765
 s    3 1.00
             7.8682724   -0.11933240861517
             1.8812885   -0.16085421161283
             0.5442493     1.1434564825515
 s    1 1.00
             0.1687144                   1
 p    3 1.00
             7.8682724   0.068999095584993
             1.8812885    0.31642397975315
             0.5442493    0.74430825237435
 p    1 1.00
             0.1687144                   1
 d    1 1.00
                   0.8                   1

37 0
 s    3 1.00
             18.731137    0.03349459952309
             2.8253937    0.23472694665786
             0.6401217    0.81375731841339
 s    1 1.00
             0.1612778                   1

38 0
 s    3 1.00
             18.731137    0.03349459952309
             2.8253937    0.23472694665786
             0.6401217    0.81375731841339
 s    1 1.00
             0.1612778                   1

39 0
 s    6 1.00
             3047.5249  0.0018347001629433
             457.36951    0.01403730124668
             103.94869   0.068842606114048
             29.210155    0.23218442062076
              9.286663    0.46794134155879
              3.163927    0.36231203217765
 s    3 1.00
             7.8682724   -0.11933240861517
             1.8812885   -0.16085421161283
             0.5442493     1.1434564825515
 s    1 1.00
             0.1687144                   1
 p    3 1.00
             7.8682724   0.068999095584993
             1.8812885    0.31642397975315
             0.5442493    0.74430825237435
 p    1 1.00
             0.1687144                   1
 d    1 1.00
                   0.8                   1

40 0
 s    6 1.00
             3047.5249  0.0018347001629433
             457.36951    0.01403730124668
             103.94869   0.068842606114048
             29.210155    0.23218442062076
              9.286663    0.46794134155879
              3.163927    0.36231203217765
 s    3 1.00
             7.8682724   -0.11933240861517
             1.8812885   -0.16085421161283
             0.5442493     1.1434564825515
 s    1 1.00
             0.1687144                   1
 p    3 1.00
             7.8682724   0.068999095584993
             1.8812885    0.31642397975315
             0.5442493    0.74430825237435
 p    1 1.00
             0.1687144                   1
 d    1 1.00
                   0.8                   1

41 0
 s    3 1.00
             18.731137    0.03349459952309
             2.8253937    0.23472694665786
             0.6401217    0.81375731841339
 s    1 1.00
             0.1612778                   1

42 0
 s    6 1.00
             5484.6717   0.001831099805527
             825.23495   0.013950098518422
             188.04696    0.06844509273075
               52.9645    0.23271427528445
              16.89757    0.47019295006289
             5.7996353    0.35852086192309
 s    3 1.00
             15.539616   -0.11077750382508
             3.5999336   -0.14802630511126
             1.0137618     1.1307670390447
 s    1 1.00
             0.2700058                   1
 p    3 1.00
             15.539616   0.070874299543311
             3.5999336    0.33975279781076
             1.0137618    0.72715859531445
 p    1 1.00
             0.2700058                   1
 d    1 1.00
                   0.8                   1

43 0
 s    3 1.00
             18.731137    0.03349459952309
             2.8253937    0.23472694665786
             0.6401217    0.81375731841339
 s    1 1.00
             0.1612778                   1

[5d]
[7f]
[9g]

[MO]
 Sym= A
 Ene=               0
 Spin= Alpha
 Occup=    1.00000
   1    -2.3464100887505e-06
   2    -1.0894914567833e-05
   3    -0.00015675088017108
   4    -4.5417580032421e-06
   5    -3.5984754206415e-05
   6    1.0249007685098e-05
   7    0.00018357582065685
   8    0.00021145089659533
   9    -0.00039073511053515
  10    1.2712037316991e-05
  11    1.2426585779779e-05
  12    -1.1653371185455e-06
  13    -2.9213021308274e-06
  14    2.506292828355e-06
  15    -2.4411212826056e-05
  16    -3.5998324779125e-05
  17    8.1596202192638e-06
  18    -1.7862009078587e-05
  19    -0.0014250743062189
  20    -2.7330796765011e-05
  21    1.2977321807936e-05
  22    6.9182636468317e-05
  23    -0.00031786752389113
  24    -8.9742352214554e-05
  25    0.00076647454496514
  26    -4.416420220207e-05
  27    2.1080627476335e-05
  28    1.8044806442606e-05
  29    -3.0586108605659e-05
  30    3.2910357476574e-05
  31    4.6761897810824e-06
  32    4.5536858065117e-05
  33    -5.6970946966639e-05
  34    -0.00035054545776661
  35     0.005130072316016
  36    5.4708593507693e-05
  37    -7.0900929825736e-06
  38    -0.00014128884050929
  39    -0.0011347258866966
  40    -0.0015808279510167
  41    -0.0012760896237203
  42    0.00013640447210514
  43    -1.5712846536167e-05
  44    8.6833344107433e-05
  45    -1.6271592033067e-05
  46    4.6188983171721e-05
  47    3.087901493113e-05
  48    0.00032665187025373
  49    -2.1400863404968e-06
  50    -0.00011185376343941
  51    -0.0039949655014853
  52    3.3734982959452e-05
  53    0.0001612537745597
  54    0.00035515079056943
  55    -0.00063007254181588
  56    -0.0019257725097102
  57    -0.0036265685788319
  58    -8.646584813451e-05
  59    -0.00012699763700376
  60    -0.00016085112489629
  61    3.6270680095786e-05
  62    0.00011008394083482
  63    -0.00030891425174262
  64    -0.00010024614313674
  65    5.5105329644022e-08
  66    1.2119406645277e-06
  67    -4.873049069765e-08
  68    -5.3296648097051e-07
  69    -1.6879530041766e-06
  70    3.2922248973955e-07
  71    -3.8516929726718e-07
  72    2.4517822760862e-07
  73    1.2102352105056e-06
  74    -3.4218647597621e-07
  75    -1.668506859418e-06
  76    1.5118786040708e-07
  77    9.3668659740396e-08
  78    5.6603990130727e-08
  79    1.9010561039361e-08
  80    7.9269631623949e-08
  81    6.9654205786157e-08
  82    3.4589853734618e-07
  83    1.3321230637253e-07
  84    9.5819044949092e-07
  85    -2.3118673677182e-06
  86    1.2075816715287e-07
  87    -8.0637430636484e-08
  88    1.4613893725631e-07
  89    1.5495624882062e-06
  90    -2.6794933796134e-06
  91    -2.3695732332293e-07
  92    -1.1254600964093e-07
  93    -1.7395362534902e-07
  94    4.0193316277776e-07
  95    -1.625234918994e-07
  96    3.8897915312894e-08
  97    5.3796127193656e-07
  98    -7.1969359414567e-08
  99    -7.860697673522e-08
 100    -3.5990212892266e-07
 101    -2.5390887858478e-07
 102    -5.5464650923289e-07
 103    3.461661380248e-05
 104    -4.2810534221461e-07
 105    3.9156539519377e-07
 106    -1.2143853787149e-06
 107    -1.1816208636913e-05
 108    1.3445300389031e-05
 109    -8.0320585809475e-06
 110    5.5220638350636e-07
 111    7.6900433590149e-07
 112    -3.4681957252673e-07
 113    -6.4847574054031e-07
 114    -7.4032885092633e-07
 115    3.8300696167456e-07
 116    4.0937938340857e-06
 117    -1.6295456700773e-05
 118    -2.5590804407091e-08
 119    3.4595235952496e-07
 120    -1.0167873554821e-06
 121    3.469041353278e-06
 122    -4.1396028715536e-06
 123    1.0258390835697e-05
 124    2.7498592114294e-07
 125    -3.9041819720911e-07
 126    -2.1026635010372e-07
 127    4.1013197406973e-08
 128    -5.6622027307982e-08
 129    4.8035523880908e-07
 130    4.8757542235492e-06
 131    1.6628185686254e-05
 132    2.9567139283041e-06
 133    1.5488108302632e-06
 134    -3.5113808471941e-06
 135    -5.0190990764292e-05
 136    5.7981617825369e-08
 137    2.6067484162193e-08
 138    -1.0907346753221e-07
 139    2.4251373009727e-07
 140    1.2786785523266e-06
 141    -3.0538561821139e-07
 142    8.3874879959311e-07
 143    -2.9647281714328e-08
 144    -1.2167754654293e-06
 145    -1.7590807045008e-05
 146    -4.0503633282532e-07
 147    -1.1993802525125e-06
 148    2.7341939591281e-06
 149    -6.693300002602e-06
 150    2.3902288982092e-05
 151    -1.1487475943478e-05
 152    -1.198523325399e-07
 153    1.2387231173092e-07
 154    -1.1078497312514e-06
 155    -2.8881280759883e-07
 156    -4.8023240957184e-07
 157    3.4255668865544e-07
 158    2.6472556167118e-06
 159    -1.9516379262802e-05
 160    -1.3172957251263e-07
 161    6.4919254265945e-07
 162    -6.8370135684409e-07
 163    -4.4967493200314e-06
 164    7.4493378766104e-06
 165    9.3003540480848e-07
 166    5.653326848044e-07
 167    -2.6614585189364e-07
 168    1.3288346202485e-07
 169    3.0172767068159e-07
 170    4.3209361483163e-07
 171    1.5638364164441e-08
 172     2.49688898503e-07
 173    3.490953654862e-06
 174    1.9157271354956e-07
 175    -1.1745866056946e-07
 176    5.1645235442466e-07
 177    6.8077069467279e-06
 178    2.2427665654533e-06
 179    4.1907701356536e-06
 180    -2.6911576532603e-07
 181    7.0606569735051e-07
 182    9.359421671422e-08
 183    5.2672416360403e-07
 184    5.2077114233554e-07
 185    -2.7850026490089e-07
 186    -2.2339366192061e-06
 187    1.3816019494514e-05
 188    -4.9311175507465e-07
 189    -7.6941462234166e-08
 190    -3.4429334718167e-07
 191    -1.403274988942e-06
 192    -6.2555621601417e-06
 193    -4.7214141220554e-06
 194    1.0362387651615e-07
 195    4.4836750044922e-07
 196    8.6868623948457e-07
 197    -2.3114472927996e-07
 198    2.0727726317631e-07
 199    -6.2860888791454e-07
 200    1.5935481702515e-06
 201    -2.9419992337036e-07
 202    -2.6326831557548e-07
 203    2.5005654920125e-07
 204    -2.1217283933241e-06
 205    1.687465606397e-06
 206    1.0654475833754e-06
 207    -1.4802748238039e-06
 208    1.7564171309615e-05
 209    1.0294205948126e-06
 210    1.3832330000531e-06
 211    1.0714504017944e-06
 212    9.4170860157034e-07
 213    3.2464234692993e-07
 214    -1.1376392696328e-06
 215    -1.2773485847499e-06
 216    9.4947137991249e-06
 217    2.2996104982329e-07
 218    -4.1599896277728e-07
 219    3.9830549672897e-07
 220    -1.6330441639979e-06
 221    -1.6194200482143e-06
 222    -8.5167607212207e-06
 223    0.00012537497330362
 224    4.0063222600893e-06
 225    -7.1565917500644e-07
 226    -4.9042355504933e-07
 227    9.4630950507154e-06
 228    2.0817563500187e-05
 229    -0.00012456535007297
 230    3.5248480272943e-06
 231    -3.9465913543331e-06
 232    -2.464887769444e-06
 233    1.2864801897654e-06
 234    8.2657311180176e-08
 235    4.8257920317153e-06
 236    2.9949988579556e-05
 237    -0.00042715698320788
 238    -1.5897784314932e-06
 239    -4.9625526128074e-06
 240    8.6357451362479e-06
 241    0.00013101962068852
 242    3.9676365256626e-05
 243    0.00010858288637788
 244    -1.2917888044724e-05
 245    -8.514354682191e-07
 246    1.2461699901145e-06
 247    -1.5169116189176e-06
 248    -3.8584863053056e-06
 249    -5.5888678795421e-06
 250    -1.6583727139295e-05
 251    -3.7639621563504e-06
 252    -2.0794914780546e-05
 253    0.00057458793117577
 254    -9.9108953785236e-06
 255    1.5601834448363e-05
 256    -2.1644478136339e-05
 257    0.00025138740027004
 258    -2.5634679748599e-05
 259    0.0001180837870067
 260    1.2002334504993e-05
 261    1.8716917774144e-07
 262    3.9938829019436e-07
 263    2.9179856921283e-06
 264    -4.4014464932177e-06
 265    -1.7914017598083e-06
 266    -1.413076003023e-05
 267    1.7902272515175e-05
 268    2.2080986427392e-05
 269    5.3806612681723e-05
 270    0.00013105547888698
 271    -0.003217727673991
 272    0.00011196513875238
 273    0.0001466363706048
 274    7.0885100497364e-05
 275    -0.0018204268073396
 276    -0.00076448245789855
 277    0.0038207621249953
 278    -0.00037246076912306
 279    0.00011419479791651
 280    -2.8550344785609e-05