[Molden Format]
made by pyscf v[2.0.1]
[Atoms] (AU)
C   1   6     0.69100024066471     0.64692934207205    -3.48223131169301
H   2   1     2.68052439830868     1.13355088658700    -3.25784032593313
C   3   6    -0.36286361513219     0.85440132524594    -5.97030179418974
H   4   1    -2.35448549047279     0.36322488579172    -6.17995817793143
C   5   6     0.93697958957450     1.61209284601821    -8.05828437677121
H   6   1     0.14022243979667     3.08603065646166    -9.25562650474843
C   7   6     3.33155915073320     0.56926267114995    -8.78956929307971
H   8   1     4.10661901770469    -0.90506612570738    -7.57081623325171
H   9   1     1.55630230933075    -1.92953025305990    12.99630010416247
C   10   6     0.75233899775814    -2.21270439606481    11.10705728102219
H   11   1    -0.43433408177274    -3.90944857546550    11.22216085340412
C   12   6     2.86362581178706    -2.63237380607947     9.17926416456045
H   13   1     4.39038949912609    -1.24955421540245     9.49899813497433
H   14   1     3.74629220191363    -4.48798724300892     9.47414880959024
C   15   6     2.02478325613682    -2.42177285709634     6.44560829588644
C   16   6     3.88048732735477    -3.58795445234514     4.61402886975252
C   17   6    -0.18412382258602    -1.30464291234259     5.76021113872346
C   18   6    -2.10044360464350    -0.26837831858460     7.71610340967100
C   19   6    -3.08956938670431     2.35282328359417     6.88693925039594
C   20   6    -4.37372924086464    -2.09766595989678     7.93610724222001
C   21   6    -0.83850430601230     0.06372213486173    10.33002307638377
H   22   1     0.38411922151109     1.74281358582432    10.27380136542181
H   23   1    -2.30980003007874     0.45460143924521    11.73986301809809
H   24   1     4.58527064644668    -5.38706904487420     5.36778158031719
H   25   1     5.54944938085014    -2.37631462192748     4.35398898413318
H   26   1     3.06633019150423    -3.94118377050688     2.75255466040884
H   27   1    -4.17727778763735     2.26573369139522     5.12914900961283
H   28   1    -1.52662344944051     3.68001877445626     6.59540397144508
H   29   1    -4.32916174397830     3.13643051467482     8.35225460090378
H   30   1    -5.32329548508442    -2.36691813602939     6.11583672749896
H   31   1    -5.77989366602257    -1.33896741843465     9.25748940450990
H   32   1    -3.79310905208926    -3.96389819310853     8.61386170102686
C   33   6    -1.01100794811226    -1.06331657314144     3.11929490449947
C   34   6     0.37686231036534    -0.33275864505552     1.09165013605873
H   35   1    -3.01671213906703    -1.40297922279997     2.77827895090944
C   36   6    -0.64382707979370    -0.11591880174385    -1.42063131251064
H   37   1     2.35569259782137     0.17174499283897     1.33641070251401
H   38   1    -2.63317482980319    -0.60229203511219    -1.66119700387645
C   39   6     4.69106502259275     1.26188352336463   -10.85081981009206
C   40   6     7.11506387067225     0.08270412537969   -11.43459041306820
H   41   1     4.02727424636240     2.71762167762249   -12.14232148362751
O   42   8     8.43283181269616     0.61123359193353   -13.25254761350674
H   43   1     7.72125158488297    -1.39686243822724   -10.06214800755086
[GTO]
1 0
 s    6 1.00
             3047.5249  0.0018347001629433
             457.36951    0.01403730124668
             103.94869   0.068842606114048
             29.210155    0.23218442062076
              9.286663    0.46794134155879
              3.163927    0.36231203217765
 s    3 1.00
             7.8682724   -0.11933240861517
             1.8812885   -0.16085421161283
             0.5442493     1.1434564825515
 s    1 1.00
             0.1687144                   1
 p    3 1.00
             7.8682724   0.068999095584993
             1.8812885    0.31642397975315
             0.5442493    0.74430825237435
 p    1 1.00
             0.1687144                   1
 d    1 1.00
                   0.8                   1

2 0
 s    3 1.00
             18.731137    0.03349459952309
             2.8253937    0.23472694665786
             0.6401217    0.81375731841339
 s    1 1.00
             0.1612778                   1

3 0
 s    6 1.00
             3047.5249  0.0018347001629433
             457.36951    0.01403730124668
             103.94869   0.068842606114048
             29.210155    0.23218442062076
              9.286663    0.46794134155879
              3.163927    0.36231203217765
 s    3 1.00
             7.8682724   -0.11933240861517
             1.8812885   -0.16085421161283
             0.5442493     1.1434564825515
 s    1 1.00
             0.1687144                   1
 p    3 1.00
             7.8682724   0.068999095584993
             1.8812885    0.31642397975315
             0.5442493    0.74430825237435
 p    1 1.00
             0.1687144                   1
 d    1 1.00
                   0.8                   1

4 0
 s    3 1.00
             18.731137    0.03349459952309
             2.8253937    0.23472694665786
             0.6401217    0.81375731841339
 s    1 1.00
             0.1612778                   1

5 0
 s    6 1.00
             3047.5249  0.0018347001629433
             457.36951    0.01403730124668
             103.94869   0.068842606114048
             29.210155    0.23218442062076
              9.286663    0.46794134155879
              3.163927    0.36231203217765
 s    3 1.00
             7.8682724   -0.11933240861517
             1.8812885   -0.16085421161283
             0.5442493     1.1434564825515
 s    1 1.00
             0.1687144                   1
 p    3 1.00
             7.8682724   0.068999095584993
             1.8812885    0.31642397975315
             0.5442493    0.74430825237435
 p    1 1.00
             0.1687144                   1
 d    1 1.00
                   0.8                   1

6 0
 s    3 1.00
             18.731137    0.03349459952309
             2.8253937    0.23472694665786
             0.6401217    0.81375731841339
 s    1 1.00
             0.1612778                   1

7 0
 s    6 1.00
             3047.5249  0.0018347001629433
             457.36951    0.01403730124668
             103.94869   0.068842606114048
             29.210155    0.23218442062076
              9.286663    0.46794134155879
              3.163927    0.36231203217765
 s    3 1.00
             7.8682724   -0.11933240861517
             1.8812885   -0.16085421161283
             0.5442493     1.1434564825515
 s    1 1.00
             0.1687144                   1
 p    3 1.00
             7.8682724   0.068999095584993
             1.8812885    0.31642397975315
             0.5442493    0.74430825237435
 p    1 1.00
             0.1687144                   1
 d    1 1.00
                   0.8                   1

8 0
 s    3 1.00
             18.731137    0.03349459952309
             2.8253937    0.23472694665786
             0.6401217    0.81375731841339
 s    1 1.00
             0.1612778                   1

9 0
 s    3 1.00
             18.731137    0.03349459952309
             2.8253937    0.23472694665786
             0.6401217    0.81375731841339
 s    1 1.00
             0.1612778                   1

10 0
 s    6 1.00
             3047.5249  0.0018347001629433
             457.36951    0.01403730124668
             103.94869   0.068842606114048
             29.210155    0.23218442062076
              9.286663    0.46794134155879
              3.163927    0.36231203217765
 s    3 1.00
             7.8682724   -0.11933240861517
             1.8812885   -0.16085421161283
             0.5442493     1.1434564825515
 s    1 1.00
             0.1687144                   1
 p    3 1.00
             7.8682724   0.068999095584993
             1.8812885    0.31642397975315
             0.5442493    0.74430825237435
 p    1 1.00
             0.1687144                   1
 d    1 1.00
                   0.8                   1

11 0
 s    3 1.00
             18.731137    0.03349459952309
             2.8253937    0.23472694665786
             0.6401217    0.81375731841339
 s    1 1.00
             0.1612778                   1

12 0
 s    6 1.00
             3047.5249  0.0018347001629433
             457.36951    0.01403730124668
             103.94869   0.068842606114048
             29.210155    0.23218442062076
              9.286663    0.46794134155879
              3.163927    0.36231203217765
 s    3 1.00
             7.8682724   -0.11933240861517
             1.8812885   -0.16085421161283
             0.5442493     1.1434564825515
 s    1 1.00
             0.1687144                   1
 p    3 1.00
             7.8682724   0.068999095584993
             1.8812885    0.31642397975315
             0.5442493    0.74430825237435
 p    1 1.00
             0.1687144                   1
 d    1 1.00
                   0.8                   1

13 0
 s    3 1.00
             18.731137    0.03349459952309
             2.8253937    0.23472694665786
             0.6401217    0.81375731841339
 s    1 1.00
             0.1612778                   1

14 0
 s    3 1.00
             18.731137    0.03349459952309
             2.8253937    0.23472694665786
             0.6401217    0.81375731841339
 s    1 1.00
             0.1612778                   1

15 0
 s    6 1.00
             3047.5249  0.0018347001629433
             457.36951    0.01403730124668
             103.94869   0.068842606114048
             29.210155    0.23218442062076
              9.286663    0.46794134155879
              3.163927    0.36231203217765
 s    3 1.00
             7.8682724   -0.11933240861517
             1.8812885   -0.16085421161283
             0.5442493     1.1434564825515
 s    1 1.00
             0.1687144                   1
 p    3 1.00
             7.8682724   0.068999095584993
             1.8812885    0.31642397975315
             0.5442493    0.74430825237435
 p    1 1.00
             0.1687144                   1
 d    1 1.00
                   0.8                   1

16 0
 s    6 1.00
             3047.5249  0.0018347001629433
             457.36951    0.01403730124668
             103.94869   0.068842606114048
             29.210155    0.23218442062076
              9.286663    0.46794134155879
              3.163927    0.36231203217765
 s    3 1.00
             7.8682724   -0.11933240861517
             1.8812885   -0.16085421161283
             0.5442493     1.1434564825515
 s    1 1.00
             0.1687144                   1
 p    3 1.00
             7.8682724   0.068999095584993
             1.8812885    0.31642397975315
             0.5442493    0.74430825237435
 p    1 1.00
             0.1687144                   1
 d    1 1.00
                   0.8                   1

17 0
 s    6 1.00
             3047.5249  0.0018347001629433
             457.36951    0.01403730124668
             103.94869   0.068842606114048
             29.210155    0.23218442062076
              9.286663    0.46794134155879
              3.163927    0.36231203217765
 s    3 1.00
             7.8682724   -0.11933240861517
             1.8812885   -0.16085421161283
             0.5442493     1.1434564825515
 s    1 1.00
             0.1687144                   1
 p    3 1.00
             7.8682724   0.068999095584993
             1.8812885    0.31642397975315
             0.5442493    0.74430825237435
 p    1 1.00
             0.1687144                   1
 d    1 1.00
                   0.8                   1

18 0
 s    6 1.00
             3047.5249  0.0018347001629433
             457.36951    0.01403730124668
             103.94869   0.068842606114048
             29.210155    0.23218442062076
              9.286663    0.46794134155879
              3.163927    0.36231203217765
 s    3 1.00
             7.8682724   -0.11933240861517
             1.8812885   -0.16085421161283
             0.5442493     1.1434564825515
 s    1 1.00
             0.1687144                   1
 p    3 1.00
             7.8682724   0.068999095584993
             1.8812885    0.31642397975315
             0.5442493    0.74430825237435
 p    1 1.00
             0.1687144                   1
 d    1 1.00
                   0.8                   1

19 0
 s    6 1.00
             3047.5249  0.0018347001629433
             457.36951    0.01403730124668
             103.94869   0.068842606114048
             29.210155    0.23218442062076
              9.286663    0.46794134155879
              3.163927    0.36231203217765
 s    3 1.00
             7.8682724   -0.11933240861517
             1.8812885   -0.16085421161283
             0.5442493     1.1434564825515
 s    1 1.00
             0.1687144                   1
 p    3 1.00
             7.8682724   0.068999095584993
             1.8812885    0.31642397975315
             0.5442493    0.74430825237435
 p    1 1.00
             0.1687144                   1
 d    1 1.00
                   0.8                   1

20 0
 s    6 1.00
             3047.5249  0.0018347001629433
             457.36951    0.01403730124668
             103.94869   0.068842606114048
             29.210155    0.23218442062076
              9.286663    0.46794134155879
              3.163927    0.36231203217765
 s    3 1.00
             7.8682724   -0.11933240861517
             1.8812885   -0.16085421161283
             0.5442493     1.1434564825515
 s    1 1.00
             0.1687144                   1
 p    3 1.00
             7.8682724   0.068999095584993
             1.8812885    0.31642397975315
             0.5442493    0.74430825237435
 p    1 1.00
             0.1687144                   1
 d    1 1.00
                   0.8                   1

21 0
 s    6 1.00
             3047.5249  0.0018347001629433
             457.36951    0.01403730124668
             103.94869   0.068842606114048
             29.210155    0.23218442062076
              9.286663    0.46794134155879
              3.163927    0.36231203217765
 s    3 1.00
             7.8682724   -0.11933240861517
             1.8812885   -0.16085421161283
             0.5442493     1.1434564825515
 s    1 1.00
             0.1687144                   1
 p    3 1.00
             7.8682724   0.068999095584993
             1.8812885    0.31642397975315
             0.5442493    0.74430825237435
 p    1 1.00
             0.1687144                   1
 d    1 1.00
                   0.8                   1

22 0
 s    3 1.00
             18.731137    0.03349459952309
             2.8253937    0.23472694665786
             0.6401217    0.81375731841339
 s    1 1.00
             0.1612778                   1

23 0
 s    3 1.00
             18.731137    0.03349459952309
             2.8253937    0.23472694665786
             0.6401217    0.81375731841339
 s    1 1.00
             0.1612778                   1

24 0
 s    3 1.00
             18.731137    0.03349459952309
             2.8253937    0.23472694665786
             0.6401217    0.81375731841339
 s    1 1.00
             0.1612778                   1

25 0
 s    3 1.00
             18.731137    0.03349459952309
             2.8253937    0.23472694665786
             0.6401217    0.81375731841339
 s    1 1.00
             0.1612778                   1

26 0
 s    3 1.00
             18.731137    0.03349459952309
             2.8253937    0.23472694665786
             0.6401217    0.81375731841339
 s    1 1.00
             0.1612778                   1

27 0
 s    3 1.00
             18.731137    0.03349459952309
             2.8253937    0.23472694665786
             0.6401217    0.81375731841339
 s    1 1.00
             0.1612778                   1

28 0
 s    3 1.00
             18.731137    0.03349459952309
             2.8253937    0.23472694665786
             0.6401217    0.81375731841339
 s    1 1.00
             0.1612778                   1

29 0
 s    3 1.00
             18.731137    0.03349459952309
             2.8253937    0.23472694665786
             0.6401217    0.81375731841339
 s    1 1.00
             0.1612778                   1

30 0
 s    3 1.00
             18.731137    0.03349459952309
             2.8253937    0.23472694665786
             0.6401217    0.81375731841339
 s    1 1.00
             0.1612778                   1

31 0
 s    3 1.00
             18.731137    0.03349459952309
             2.8253937    0.23472694665786
             0.6401217    0.81375731841339
 s    1 1.00
             0.1612778                   1

32 0
 s    3 1.00
             18.731137    0.03349459952309
             2.8253937    0.23472694665786
             0.6401217    0.81375731841339
 s    1 1.00
             0.1612778                   1

33 0
 s    6 1.00
             3047.5249  0.0018347001629433
             457.36951    0.01403730124668
             103.94869   0.068842606114048
             29.210155    0.23218442062076
              9.286663    0.46794134155879
              3.163927    0.36231203217765
 s    3 1.00
             7.8682724   -0.11933240861517
             1.8812885   -0.16085421161283
             0.5442493     1.1434564825515
 s    1 1.00
             0.1687144                   1
 p    3 1.00
             7.8682724   0.068999095584993
             1.8812885    0.31642397975315
             0.5442493    0.74430825237435
 p    1 1.00
             0.1687144                   1
 d    1 1.00
                   0.8                   1

34 0
 s    6 1.00
             3047.5249  0.0018347001629433
             457.36951    0.01403730124668
             103.94869   0.068842606114048
             29.210155    0.23218442062076
              9.286663    0.46794134155879
              3.163927    0.36231203217765
 s    3 1.00
             7.8682724   -0.11933240861517
             1.8812885   -0.16085421161283
             0.5442493     1.1434564825515
 s    1 1.00
             0.1687144                   1
 p    3 1.00
             7.8682724   0.068999095584993
             1.8812885    0.31642397975315
             0.5442493    0.74430825237435
 p    1 1.00
             0.1687144                   1
 d    1 1.00
                   0.8                   1

35 0
 s    3 1.00
             18.731137    0.03349459952309
             2.8253937    0.23472694665786
             0.6401217    0.81375731841339
 s    1 1.00
             0.1612778                   1

36 0
 s    6 1.00
             3047.5249  0.0018347001629433
             457.36951    0.01403730124668
             103.94869   0.068842606114048
             29.210155    0.23218442062076
              9.286663    0.46794134155879
              3.163927    0.36231203217765
 s    3 1.00
             7.8682724   -0.11933240861517
             1.8812885   -0.16085421161283
             0.5442493     1.1434564825515
 s    1 1.00
             0.1687144                   1
 p    3 1.00
             7.8682724   0.068999095584993
             1.8812885    0.31642397975315
             0.5442493    0.74430825237435
 p    1 1.00
             0.1687144                   1
 d    1 1.00
                   0.8                   1

37 0
 s    3 1.00
             18.731137    0.03349459952309
             2.8253937    0.23472694665786
             0.6401217    0.81375731841339
 s    1 1.00
             0.1612778                   1

38 0
 s    3 1.00
             18.731137    0.03349459952309
             2.8253937    0.23472694665786
             0.6401217    0.81375731841339
 s    1 1.00
             0.1612778                   1

39 0
 s    6 1.00
             3047.5249  0.0018347001629433
             457.36951    0.01403730124668
             103.94869   0.068842606114048
             29.210155    0.23218442062076
              9.286663    0.46794134155879
              3.163927    0.36231203217765
 s    3 1.00
             7.8682724   -0.11933240861517
             1.8812885   -0.16085421161283
             0.5442493     1.1434564825515
 s    1 1.00
             0.1687144                   1
 p    3 1.00
             7.8682724   0.068999095584993
             1.8812885    0.31642397975315
             0.5442493    0.74430825237435
 p    1 1.00
             0.1687144                   1
 d    1 1.00
                   0.8                   1

40 0
 s    6 1.00
             3047.5249  0.0018347001629433
             457.36951    0.01403730124668
             103.94869   0.068842606114048
             29.210155    0.23218442062076
              9.286663    0.46794134155879
              3.163927    0.36231203217765
 s    3 1.00
             7.8682724   -0.11933240861517
             1.8812885   -0.16085421161283
             0.5442493     1.1434564825515
 s    1 1.00
             0.1687144                   1
 p    3 1.00
             7.8682724   0.068999095584993
             1.8812885    0.31642397975315
             0.5442493    0.74430825237435
 p    1 1.00
             0.1687144                   1
 d    1 1.00
                   0.8                   1

41 0
 s    3 1.00
             18.731137    0.03349459952309
             2.8253937    0.23472694665786
             0.6401217    0.81375731841339
 s    1 1.00
             0.1612778                   1

42 0
 s    6 1.00
             5484.6717   0.001831099805527
             825.23495   0.013950098518422
             188.04696    0.06844509273075
               52.9645    0.23271427528445
              16.89757    0.47019295006289
             5.7996353    0.35852086192309
 s    3 1.00
             15.539616   -0.11077750382508
             3.5999336   -0.14802630511126
             1.0137618     1.1307670390447
 s    1 1.00
             0.2700058                   1
 p    3 1.00
             15.539616   0.070874299543311
             3.5999336    0.33975279781076
             1.0137618    0.72715859531445
 p    1 1.00
             0.2700058                   1
 d    1 1.00
                   0.8                   1

43 0
 s    3 1.00
             18.731137    0.03349459952309
             2.8253937    0.23472694665786
             0.6401217    0.81375731841339
 s    1 1.00
             0.1612778                   1

[5d]
[7f]
[9g]

[MO]
 Sym= A
 Ene=               0
 Spin= Alpha
 Occup=    1.00000
   1    5.3226048257011e-06
   2    4.3255476193826e-05
   3    -0.00066384346209555
   4    1.6211421004211e-05
   5    -2.8099551996426e-05
   6    7.8012035196679e-07
   7    8.3523000152242e-05
   8    0.00013815618433944
   9    0.00023870398191939
  10    -1.649355801521e-05
  11    -8.4965498032617e-06
  12    -6.3988393570328e-06
  13    6.1953157102566e-06
  14    -5.1879125535631e-06
  15    4.6730157402653e-06
  16    1.6597330599738e-05
  17    -6.9567878650905e-06
  18    3.440987608419e-05
  19     0.001292105748451
  20    4.7622631589492e-05
  21    9.4796944988247e-06
  22    -6.7899497029608e-05
  23    0.0008012905096898
  24    -9.1290154250959e-05
  25    -0.00010900815766557
  26    3.1967508232535e-05
  27    -2.8683553697366e-05
  28    1.967263091867e-05
  29    3.156265322321e-05
  30    2.562463681148e-05
  31    1.575322662459e-05
  32    0.00015470880797342
  33    5.6313222615235e-05
  34    0.0003569583755248
  35    -0.0048563062482372
  36    -0.00012331189203006
  37    -1.6972593934422e-06
  38    0.00011012114029318
  39    -0.0018240378069436
  40    0.0014895315795546
  41    -0.00045432430223267
  42    2.3907567188502e-05
  43    9.5123040112653e-05
  44    1.346842796186e-05
  45    -8.4939929983858e-05
  46    9.2569761908142e-05
  47    -3.0106568255142e-05
  48    -0.00035960612508235
  49    3.6435446167041e-06
  50    0.00012149527050528
  51     0.003954405371818
  52    0.00034579617246742
  53    -0.00015036846589195
  54    -0.00011394266048602
  55    -0.0036485768156777
  56    0.0017983855534271
  57    0.00089668538185375
  58    -0.0001403502370111
  59    8.3306000330835e-06
  60    0.00016390771879174
  61    9.056422500994e-05
  62    -8.773472540785e-05
  63    0.00030581199667516
  64    0.00013792690558306
  65    6.3298981695571e-08
  66    -6.5207207910044e-07
  67    1.0837580280064e-08
  68    -6.7301566223409e-08
  69    1.9303318438185e-06
  70    -1.6221196433344e-07
  71    1.8300015185196e-07
  72    1.7367502233908e-07
  73    -8.8938465425969e-07
  74    1.1257905971407e-07
  75    2.7520701243456e-08
  76    -1.7574641936669e-07
  77    -1.6066884244452e-07
  78    -1.9984324567156e-08
  79    -4.0583331797656e-08
  80    -1.6820674627087e-07
  81    -3.434938714183e-08
  82    -6.0192363595618e-07
  83    -1.1447398205572e-07
  84    -1.4038010183418e-06
  85    -1.3492737503855e-05
  86    7.2202937793775e-07
  87    -4.5932366222597e-07
  88    7.1368415872481e-07
  89    1.0393018296587e-06
  90    1.5946424771776e-06
  91    5.513504311108e-06
  92    1.8011404037795e-07
  93    -7.7639486490562e-08
  94    -2.9399838888909e-08
  95    2.7379070689158e-07
  96    -1.7816145659207e-07
  97    -2.0729785631334e-08
  98    -4.5200670705597e-07
  99    5.5091377396722e-07
 100    6.4543157289116e-07
 101    3.3938478565473e-07
 102    1.5971011547134e-06
 103    -3.4092637729485e-05
 104    1.2993353513246e-06
 105    -7.3328185441663e-07
 106    -2.4922894985133e-07
 107    -3.6181842161679e-06
 108    2.9871913198426e-06
 109    4.584790503483e-05
 110    -6.8038089348618e-07
 111    -1.1714757153026e-06
 112    4.7724468367243e-07
 113    -5.1434802681671e-08
 114    1.0424710693237e-07
 115    -4.6329861970703e-07
 116    -3.9751297743237e-06
 117    3.360565619716e-05
 118    -5.703661342607e-07
 119    -2.8640874667735e-08
 120    1.3154741677962e-06
 121    -1.2399102931594e-05
 122    9.9489528586259e-06
 123    2.2977522199352e-06
 124    -4.5090193275752e-07
 125    -2.747671989349e-07
 126    5.0296312459832e-07
 127    4.8684798701774e-07
 128    -4.4364865075563e-07
 129    -1.1725453442424e-06
 130    -8.3069998543898e-06
 131    6.4436014819954e-05
 132    -1.8117776484846e-06
 133    1.2204316206813e-06
 134    3.1339430042181e-06
 135    2.9268056964044e-05
 136    -1.4952978455727e-05
 137    -9.5939236668923e-05
 138    2.833607930322e-06
 139    1.5750344091023e-06
 140    -9.8845931871479e-07
 141    4.4115162317592e-07
 142    -1.1981290637056e-06
 143    -7.6019175244722e-07
 144    -5.9833474731638e-06
 145    5.4400409954113e-05
 146    -2.8833106317902e-07
 147    -1.3008610207937e-07
 148    -1.6765630563967e-06
 149    2.781765362974e-05
 150    -1.614187120273e-05
 151    1.3388456930854e-06
 152    -4.3288392848223e-07
 153    -4.4911032746404e-07
 154    6.131062780064e-07
 155    8.1088499191871e-07
 156    -7.8277798194839e-07
 157    -1.5003879238646e-07
 158    -1.5199699016923e-06
 159    9.5026516419025e-06
 160    6.0030068762835e-08
 161    -1.6826175403148e-08
 162    2.9404438818818e-08
 163    -3.5841298049978e-06
 164    -3.4783510543843e-06
 165    -8.5328273368793e-07
 166    2.4832425115715e-07
 167    -3.7445840693016e-07
 168    6.9895520161387e-08
 169    -3.8156756563807e-07
 170    2.6191350787166e-07
 171    1.0498081363003e-08
 172    -6.2653984170985e-08
 173    2.2269959748401e-07
 174    5.3593539299421e-08
 175    -1.4620829118797e-07
 176    -3.4165594489595e-07
 177    -6.0585046857126e-06
 178    2.4211991326384e-06
 179    -1.5776423413984e-06
 180    1.1940674617968e-07
 181    -4.6019256089764e-07
 182    2.0475402441237e-07
 183    -6.956455167623e-07
 184    -2.739556440887e-07
 185    5.8180497353288e-08
 186    -2.554110771222e-07
 187    -1.4864320689449e-05
 188    3.8684945510522e-07
 189    2.3779896771248e-07
 190    1.5720149233357e-06
 191    2.7013770587408e-06
 192    3.1794022392073e-06
 193    3.6166266922505e-06
 194     -2.5969552264e-07
 195      -4.359006075e-07
 196    -1.7549288643077e-07
 197    3.9035990832145e-07
 198    -3.0971766739617e-07
 199    3.0028575611528e-07
 200    -9.0271683122525e-07
 201    2.4119799612234e-07
 202    2.7279328957643e-06
 203    -5.2825686881753e-07
 204    2.3426238257343e-06
 205    -1.3941765994934e-06
 206    -1.2496974443211e-06
 207    -1.4092729764489e-06
 208    -3.2856578511011e-06
 209    1.4403264039757e-07
 210    -5.0221480074742e-06
 211    2.2599126882658e-09
 212    1.2394179706629e-06
 213    -5.1673382346455e-07
 214    -1.2628421926446e-08
 215    1.0784021021638e-06
 216    -5.9806630387708e-06
 217    -4.0927360257167e-07
 218    -1.0348677243628e-06
 219    2.6141156267486e-07
 220    2.4384483364329e-06
 221    1.4470176075469e-06
 222    7.3633152010925e-06
 223    -0.00018930595350755
 224    1.9076753845177e-07
 225    -3.8343843047264e-06
 226    5.6201900596609e-06
 227    -5.6899464827685e-05
 228    2.1122907158777e-06
 229    -3.0524301478003e-06
 230    -4.0293538014228e-06
 231    -5.8215977527369e-07
 232    1.854350737149e-06
 233    4.865622328814e-10
 234    5.1397438403131e-07
 235    -2.1459991225449e-06
 236    -1.3802881852753e-05
 237    0.00024731061933067
 238    2.7199260212734e-06
 239    5.8155111194997e-06
 240    -5.5880068027985e-06
 241    -0.0001149433941436
 242    -3.2333603120459e-05
 243    -4.2572562813669e-06
 244    3.8441325935115e-06
 245    1.3300778842887e-06
 246    -3.3564091837143e-06
 247    2.2297393361959e-06
 248    -4.5983494762526e-07
 249    -3.5057814404343e-06
 250    7.597566850604e-06
 251    -2.3558780872787e-06
 252    -2.0585673199545e-05
 253    6.8900522469125e-05
 254    3.9582837982536e-06
 255    -1.1959816252738e-07
 256    1.3985890591886e-05
 257    -8.7768056578325e-06
 258    6.4248050694294e-06
 259    -0.00029297712258056
 260    2.5930347591655e-06
 261    -1.0725145044238e-05
 262    6.5030876073104e-07
 263    7.9705692277558e-06
 264    -3.3492701888482e-06
 265    6.404160773557e-06
 266    1.8897206657148e-05
 267    -1.4706203104222e-05
 268    -1.2496274870906e-05
 269    -5.4317292226487e-05
 270    -0.00013469343120009
 271    0.0032256539987158
 272    0.00011963396289233
 273    -0.00013959101460519
 274    7.450062420443e-05
 275    0.0026279746541651
 276    0.00078051952870342
 277    -0.0032836485426167
 278    4.4769084930699e-06
 279    -0.00032196860565135
 280    0.00016649648414111