[Molden Format]
made by pyscf v[2.0.1]
[Atoms] (AU)
C   1   6     0.69100024066471     0.64692934207205    -3.48223131169301
H   2   1     2.68052439830868     1.13355088658700    -3.25784032593313
C   3   6    -0.36286361513219     0.85440132524594    -5.97030179418974
H   4   1    -2.35448549047279     0.36322488579172    -6.17995817793143
C   5   6     0.93697958957450     1.61209284601821    -8.05828437677121
H   6   1     2.82520634269342     2.40231158819155    -7.83223822317356
C   7   6    -0.04591716574067     1.43050675384137   -10.57963800872440
H   8   1    -1.93966227025444     0.63380613673234   -10.77641154630544
H   9   1     1.55630230933075    -1.92953025305990    12.99630010416247
C   10   6     0.75233899775814    -2.21270439606481    11.10705728102219
H   11   1    -0.43433408177274    -3.90944857546550    11.22216085340412
C   12   6     2.86362581178706    -2.63237380607947     9.17926416456045
H   13   1     4.39038949912609    -1.24955421540245     9.49899813497433
H   14   1     3.74629220191363    -4.48798724300892     9.47414880959024
C   15   6     2.02478325613682    -2.42177285709634     6.44560829588644
C   16   6     3.88048732735477    -3.58795445234514     4.61402886975252
C   17   6    -0.18412382258602    -1.30464291234259     5.76021113872346
C   18   6    -2.10044360464350    -0.26837831858460     7.71610340967100
C   19   6    -3.08956938670431     2.35282328359417     6.88693925039594
C   20   6    -4.37372924086464    -2.09766595989678     7.93610724222001
C   21   6    -0.83850430601230     0.06372213486173    10.33002307638377
H   22   1     0.38411922151109     1.74281358582432    10.27380136542181
H   23   1    -2.30980003007874     0.45460143924521    11.73986301809809
H   24   1     4.58527064644668    -5.38706904487420     5.36778158031719
H   25   1     5.54944938085014    -2.37631462192748     4.35398898413318
H   26   1     3.06633019150423    -3.94118377050688     2.75255466040884
H   27   1    -4.17727778763735     2.26573369139522     5.12914900961283
H   28   1    -1.52662344944051     3.68001877445626     6.59540397144508
H   29   1    -4.32916174397830     3.13643051467482     8.35225460090378
H   30   1    -5.32329548508442    -2.36691813602939     6.11583672749896
H   31   1    -5.77989366602257    -1.33896741843465     9.25748940450990
H   32   1    -3.79310905208926    -3.96389819310853     8.61386170102686
C   33   6    -1.01100794811226    -1.06331657314144     3.11929490449947
C   34   6     0.37686231036534    -0.33275864505552     1.09165013605873
H   35   1    -3.01671213906703    -1.40297922279997     2.77827895090944
C   36   6    -0.64382707979370    -0.11591880174385    -1.42063131251064
H   37   1     2.35569259782137     0.17174499283897     1.33641070251401
H   38   1    -2.63317482980319    -0.60229203511219    -1.66119700387645
C   39   6     1.17709071185639     2.16235266520763   -12.71162929579923
C   40   6     0.01149368127442     1.89967079998079   -15.19747007607967
H   41   1     3.06674924318564     2.97042403350516   -12.64854490967844
O   42   8     1.00001917973751     2.51860460578581   -17.18758625638360
H   43   1    -1.92257659968242     1.06364005135718   -15.17290072571517
[GTO]
1 0
 s    6 1.00
             3047.5249  0.0018347001629433
             457.36951    0.01403730124668
             103.94869   0.068842606114048
             29.210155    0.23218442062076
              9.286663    0.46794134155879
              3.163927    0.36231203217765
 s    3 1.00
             7.8682724   -0.11933240861517
             1.8812885   -0.16085421161283
             0.5442493     1.1434564825515
 s    1 1.00
             0.1687144                   1
 p    3 1.00
             7.8682724   0.068999095584993
             1.8812885    0.31642397975315
             0.5442493    0.74430825237435
 p    1 1.00
             0.1687144                   1
 d    1 1.00
                   0.8                   1

2 0
 s    3 1.00
             18.731137    0.03349459952309
             2.8253937    0.23472694665786
             0.6401217    0.81375731841339
 s    1 1.00
             0.1612778                   1

3 0
 s    6 1.00
             3047.5249  0.0018347001629433
             457.36951    0.01403730124668
             103.94869   0.068842606114048
             29.210155    0.23218442062076
              9.286663    0.46794134155879
              3.163927    0.36231203217765
 s    3 1.00
             7.8682724   -0.11933240861517
             1.8812885   -0.16085421161283
             0.5442493     1.1434564825515
 s    1 1.00
             0.1687144                   1
 p    3 1.00
             7.8682724   0.068999095584993
             1.8812885    0.31642397975315
             0.5442493    0.74430825237435
 p    1 1.00
             0.1687144                   1
 d    1 1.00
                   0.8                   1

4 0
 s    3 1.00
             18.731137    0.03349459952309
             2.8253937    0.23472694665786
             0.6401217    0.81375731841339
 s    1 1.00
             0.1612778                   1

5 0
 s    6 1.00
             3047.5249  0.0018347001629433
             457.36951    0.01403730124668
             103.94869   0.068842606114048
             29.210155    0.23218442062076
              9.286663    0.46794134155879
              3.163927    0.36231203217765
 s    3 1.00
             7.8682724   -0.11933240861517
             1.8812885   -0.16085421161283
             0.5442493     1.1434564825515
 s    1 1.00
             0.1687144                   1
 p    3 1.00
             7.8682724   0.068999095584993
             1.8812885    0.31642397975315
             0.5442493    0.74430825237435
 p    1 1.00
             0.1687144                   1
 d    1 1.00
                   0.8                   1

6 0
 s    3 1.00
             18.731137    0.03349459952309
             2.8253937    0.23472694665786
             0.6401217    0.81375731841339
 s    1 1.00
             0.1612778                   1

7 0
 s    6 1.00
             3047.5249  0.0018347001629433
             457.36951    0.01403730124668
             103.94869   0.068842606114048
             29.210155    0.23218442062076
              9.286663    0.46794134155879
              3.163927    0.36231203217765
 s    3 1.00
             7.8682724   -0.11933240861517
             1.8812885   -0.16085421161283
             0.5442493     1.1434564825515
 s    1 1.00
             0.1687144                   1
 p    3 1.00
             7.8682724   0.068999095584993
             1.8812885    0.31642397975315
             0.5442493    0.74430825237435
 p    1 1.00
             0.1687144                   1
 d    1 1.00
                   0.8                   1

8 0
 s    3 1.00
             18.731137    0.03349459952309
             2.8253937    0.23472694665786
             0.6401217    0.81375731841339
 s    1 1.00
             0.1612778                   1

9 0
 s    3 1.00
             18.731137    0.03349459952309
             2.8253937    0.23472694665786
             0.6401217    0.81375731841339
 s    1 1.00
             0.1612778                   1

10 0
 s    6 1.00
             3047.5249  0.0018347001629433
             457.36951    0.01403730124668
             103.94869   0.068842606114048
             29.210155    0.23218442062076
              9.286663    0.46794134155879
              3.163927    0.36231203217765
 s    3 1.00
             7.8682724   -0.11933240861517
             1.8812885   -0.16085421161283
             0.5442493     1.1434564825515
 s    1 1.00
             0.1687144                   1
 p    3 1.00
             7.8682724   0.068999095584993
             1.8812885    0.31642397975315
             0.5442493    0.74430825237435
 p    1 1.00
             0.1687144                   1
 d    1 1.00
                   0.8                   1

11 0
 s    3 1.00
             18.731137    0.03349459952309
             2.8253937    0.23472694665786
             0.6401217    0.81375731841339
 s    1 1.00
             0.1612778                   1

12 0
 s    6 1.00
             3047.5249  0.0018347001629433
             457.36951    0.01403730124668
             103.94869   0.068842606114048
             29.210155    0.23218442062076
              9.286663    0.46794134155879
              3.163927    0.36231203217765
 s    3 1.00
             7.8682724   -0.11933240861517
             1.8812885   -0.16085421161283
             0.5442493     1.1434564825515
 s    1 1.00
             0.1687144                   1
 p    3 1.00
             7.8682724   0.068999095584993
             1.8812885    0.31642397975315
             0.5442493    0.74430825237435
 p    1 1.00
             0.1687144                   1
 d    1 1.00
                   0.8                   1

13 0
 s    3 1.00
             18.731137    0.03349459952309
             2.8253937    0.23472694665786
             0.6401217    0.81375731841339
 s    1 1.00
             0.1612778                   1

14 0
 s    3 1.00
             18.731137    0.03349459952309
             2.8253937    0.23472694665786
             0.6401217    0.81375731841339
 s    1 1.00
             0.1612778                   1

15 0
 s    6 1.00
             3047.5249  0.0018347001629433
             457.36951    0.01403730124668
             103.94869   0.068842606114048
             29.210155    0.23218442062076
              9.286663    0.46794134155879
              3.163927    0.36231203217765
 s    3 1.00
             7.8682724   -0.11933240861517
             1.8812885   -0.16085421161283
             0.5442493     1.1434564825515
 s    1 1.00
             0.1687144                   1
 p    3 1.00
             7.8682724   0.068999095584993
             1.8812885    0.31642397975315
             0.5442493    0.74430825237435
 p    1 1.00
             0.1687144                   1
 d    1 1.00
                   0.8                   1

16 0
 s    6 1.00
             3047.5249  0.0018347001629433
             457.36951    0.01403730124668
             103.94869   0.068842606114048
             29.210155    0.23218442062076
              9.286663    0.46794134155879
              3.163927    0.36231203217765
 s    3 1.00
             7.8682724   -0.11933240861517
             1.8812885   -0.16085421161283
             0.5442493     1.1434564825515
 s    1 1.00
             0.1687144                   1
 p    3 1.00
             7.8682724   0.068999095584993
             1.8812885    0.31642397975315
             0.5442493    0.74430825237435
 p    1 1.00
             0.1687144                   1
 d    1 1.00
                   0.8                   1

17 0
 s    6 1.00
             3047.5249  0.0018347001629433
             457.36951    0.01403730124668
             103.94869   0.068842606114048
             29.210155    0.23218442062076
              9.286663    0.46794134155879
              3.163927    0.36231203217765
 s    3 1.00
             7.8682724   -0.11933240861517
             1.8812885   -0.16085421161283
             0.5442493     1.1434564825515
 s    1 1.00
             0.1687144                   1
 p    3 1.00
             7.8682724   0.068999095584993
             1.8812885    0.31642397975315
             0.5442493    0.74430825237435
 p    1 1.00
             0.1687144                   1
 d    1 1.00
                   0.8                   1

18 0
 s    6 1.00
             3047.5249  0.0018347001629433
             457.36951    0.01403730124668
             103.94869   0.068842606114048
             29.210155    0.23218442062076
              9.286663    0.46794134155879
              3.163927    0.36231203217765
 s    3 1.00
             7.8682724   -0.11933240861517
             1.8812885   -0.16085421161283
             0.5442493     1.1434564825515
 s    1 1.00
             0.1687144                   1
 p    3 1.00
             7.8682724   0.068999095584993
             1.8812885    0.31642397975315
             0.5442493    0.74430825237435
 p    1 1.00
             0.1687144                   1
 d    1 1.00
                   0.8                   1

19 0
 s    6 1.00
             3047.5249  0.0018347001629433
             457.36951    0.01403730124668
             103.94869   0.068842606114048
             29.210155    0.23218442062076
              9.286663    0.46794134155879
              3.163927    0.36231203217765
 s    3 1.00
             7.8682724   -0.11933240861517
             1.8812885   -0.16085421161283
             0.5442493     1.1434564825515
 s    1 1.00
             0.1687144                   1
 p    3 1.00
             7.8682724   0.068999095584993
             1.8812885    0.31642397975315
             0.5442493    0.74430825237435
 p    1 1.00
             0.1687144                   1
 d    1 1.00
                   0.8                   1

20 0
 s    6 1.00
             3047.5249  0.0018347001629433
             457.36951    0.01403730124668
             103.94869   0.068842606114048
             29.210155    0.23218442062076
              9.286663    0.46794134155879
              3.163927    0.36231203217765
 s    3 1.00
             7.8682724   -0.11933240861517
             1.8812885   -0.16085421161283
             0.5442493     1.1434564825515
 s    1 1.00
             0.1687144                   1
 p    3 1.00
             7.8682724   0.068999095584993
             1.8812885    0.31642397975315
             0.5442493    0.74430825237435
 p    1 1.00
             0.1687144                   1
 d    1 1.00
                   0.8                   1

21 0
 s    6 1.00
             3047.5249  0.0018347001629433
             457.36951    0.01403730124668
             103.94869   0.068842606114048
             29.210155    0.23218442062076
              9.286663    0.46794134155879
              3.163927    0.36231203217765
 s    3 1.00
             7.8682724   -0.11933240861517
             1.8812885   -0.16085421161283
             0.5442493     1.1434564825515
 s    1 1.00
             0.1687144                   1
 p    3 1.00
             7.8682724   0.068999095584993
             1.8812885    0.31642397975315
             0.5442493    0.74430825237435
 p    1 1.00
             0.1687144                   1
 d    1 1.00
                   0.8                   1

22 0
 s    3 1.00
             18.731137    0.03349459952309
             2.8253937    0.23472694665786
             0.6401217    0.81375731841339
 s    1 1.00
             0.1612778                   1

23 0
 s    3 1.00
             18.731137    0.03349459952309
             2.8253937    0.23472694665786
             0.6401217    0.81375731841339
 s    1 1.00
             0.1612778                   1

24 0
 s    3 1.00
             18.731137    0.03349459952309
             2.8253937    0.23472694665786
             0.6401217    0.81375731841339
 s    1 1.00
             0.1612778                   1

25 0
 s    3 1.00
             18.731137    0.03349459952309
             2.8253937    0.23472694665786
             0.6401217    0.81375731841339
 s    1 1.00
             0.1612778                   1

26 0
 s    3 1.00
             18.731137    0.03349459952309
             2.8253937    0.23472694665786
             0.6401217    0.81375731841339
 s    1 1.00
             0.1612778                   1

27 0
 s    3 1.00
             18.731137    0.03349459952309
             2.8253937    0.23472694665786
             0.6401217    0.81375731841339
 s    1 1.00
             0.1612778                   1

28 0
 s    3 1.00
             18.731137    0.03349459952309
             2.8253937    0.23472694665786
             0.6401217    0.81375731841339
 s    1 1.00
             0.1612778                   1

29 0
 s    3 1.00
             18.731137    0.03349459952309
             2.8253937    0.23472694665786
             0.6401217    0.81375731841339
 s    1 1.00
             0.1612778                   1

30 0
 s    3 1.00
             18.731137    0.03349459952309
             2.8253937    0.23472694665786
             0.6401217    0.81375731841339
 s    1 1.00
             0.1612778                   1

31 0
 s    3 1.00
             18.731137    0.03349459952309
             2.8253937    0.23472694665786
             0.6401217    0.81375731841339
 s    1 1.00
             0.1612778                   1

32 0
 s    3 1.00
             18.731137    0.03349459952309
             2.8253937    0.23472694665786
             0.6401217    0.81375731841339
 s    1 1.00
             0.1612778                   1

33 0
 s    6 1.00
             3047.5249  0.0018347001629433
             457.36951    0.01403730124668
             103.94869   0.068842606114048
             29.210155    0.23218442062076
              9.286663    0.46794134155879
              3.163927    0.36231203217765
 s    3 1.00
             7.8682724   -0.11933240861517
             1.8812885   -0.16085421161283
             0.5442493     1.1434564825515
 s    1 1.00
             0.1687144                   1
 p    3 1.00
             7.8682724   0.068999095584993
             1.8812885    0.31642397975315
             0.5442493    0.74430825237435
 p    1 1.00
             0.1687144                   1
 d    1 1.00
                   0.8                   1

34 0
 s    6 1.00
             3047.5249  0.0018347001629433
             457.36951    0.01403730124668
             103.94869   0.068842606114048
             29.210155    0.23218442062076
              9.286663    0.46794134155879
              3.163927    0.36231203217765
 s    3 1.00
             7.8682724   -0.11933240861517
             1.8812885   -0.16085421161283
             0.5442493     1.1434564825515
 s    1 1.00
             0.1687144                   1
 p    3 1.00
             7.8682724   0.068999095584993
             1.8812885    0.31642397975315
             0.5442493    0.74430825237435
 p    1 1.00
             0.1687144                   1
 d    1 1.00
                   0.8                   1

35 0
 s    3 1.00
             18.731137    0.03349459952309
             2.8253937    0.23472694665786
             0.6401217    0.81375731841339
 s    1 1.00
             0.1612778                   1

36 0
 s    6 1.00
             3047.5249  0.0018347001629433
             457.36951    0.01403730124668
             103.94869   0.068842606114048
             29.210155    0.23218442062076
              9.286663    0.46794134155879
              3.163927    0.36231203217765
 s    3 1.00
             7.8682724   -0.11933240861517
             1.8812885   -0.16085421161283
             0.5442493     1.1434564825515
 s    1 1.00
             0.1687144                   1
 p    3 1.00
             7.8682724   0.068999095584993
             1.8812885    0.31642397975315
             0.5442493    0.74430825237435
 p    1 1.00
             0.1687144                   1
 d    1 1.00
                   0.8                   1

37 0
 s    3 1.00
             18.731137    0.03349459952309
             2.8253937    0.23472694665786
             0.6401217    0.81375731841339
 s    1 1.00
             0.1612778                   1

38 0
 s    3 1.00
             18.731137    0.03349459952309
             2.8253937    0.23472694665786
             0.6401217    0.81375731841339
 s    1 1.00
             0.1612778                   1

39 0
 s    6 1.00
             3047.5249  0.0018347001629433
             457.36951    0.01403730124668
             103.94869   0.068842606114048
             29.210155    0.23218442062076
              9.286663    0.46794134155879
              3.163927    0.36231203217765
 s    3 1.00
             7.8682724   -0.11933240861517
             1.8812885   -0.16085421161283
             0.5442493     1.1434564825515
 s    1 1.00
             0.1687144                   1
 p    3 1.00
             7.8682724   0.068999095584993
             1.8812885    0.31642397975315
             0.5442493    0.74430825237435
 p    1 1.00
             0.1687144                   1
 d    1 1.00
                   0.8                   1

40 0
 s    6 1.00
             3047.5249  0.0018347001629433
             457.36951    0.01403730124668
             103.94869   0.068842606114048
             29.210155    0.23218442062076
              9.286663    0.46794134155879
              3.163927    0.36231203217765
 s    3 1.00
             7.8682724   -0.11933240861517
             1.8812885   -0.16085421161283
             0.5442493     1.1434564825515
 s    1 1.00
             0.1687144                   1
 p    3 1.00
             7.8682724   0.068999095584993
             1.8812885    0.31642397975315
             0.5442493    0.74430825237435
 p    1 1.00
             0.1687144                   1
 d    1 1.00
                   0.8                   1

41 0
 s    3 1.00
             18.731137    0.03349459952309
             2.8253937    0.23472694665786
             0.6401217    0.81375731841339
 s    1 1.00
             0.1612778                   1

42 0
 s    6 1.00
             5484.6717   0.001831099805527
             825.23495   0.013950098518422
             188.04696    0.06844509273075
               52.9645    0.23271427528445
              16.89757    0.47019295006289
             5.7996353    0.35852086192309
 s    3 1.00
             15.539616   -0.11077750382508
             3.5999336   -0.14802630511126
             1.0137618     1.1307670390447
 s    1 1.00
             0.2700058                   1
 p    3 1.00
             15.539616   0.070874299543311
             3.5999336    0.33975279781076
             1.0137618    0.72715859531445
 p    1 1.00
             0.2700058                   1
 d    1 1.00
                   0.8                   1

43 0
 s    3 1.00
             18.731137    0.03349459952309
             2.8253937    0.23472694665786
             0.6401217    0.81375731841339
 s    1 1.00
             0.1612778                   1

[5d]
[7f]
[9g]

[MO]
 Sym= A
 Ene=               0
 Spin= Alpha
 Occup=    1.00000
   1    7.9721168887369e-06
   2    6.3127325670019e-05
   3    6.3997513617262e-05
   4    2.1751081536546e-05
   5    2.7070366929444e-05
   6    -4.2674530817829e-05
   7    -0.00028684257097761
   8    -0.0003239035548203
   9    0.0010848451086447
  10    -2.4526352937554e-05
  11    -4.0196233805432e-05
  12    -1.2383559004222e-06
  13    -7.7681858953182e-06
  14    2.388377643911e-06
  15    5.8703741886926e-05
  16    3.245078305515e-05
  17    -2.2208688967625e-05
  18    -0.0001040160257314
  19    0.0023926512149814
  20    1.4187640794945e-05
  21    5.6556134720622e-06
  22    -6.7846851970857e-05
  23    0.00047849167065867
  24    0.00023501872130194
  25    -0.00075914940495017
  26    6.6795156633704e-05
  27    -1.3653004834276e-05
  28    -2.6527678256059e-05
  29    4.0096751510202e-06
  30    -1.4017974590256e-05
  31    -4.4803398679392e-06
  32    -0.00013533815969557
  33    6.7250255664212e-05
  34    0.00041825626754582
  35    -0.0060103449525202
  36    -4.353502307752e-05
  37    -2.0937542955235e-05
  38    0.00011738862669687
  39    0.0021245969683157
  40    0.00073502622840263
  41    0.0015543446264086
  42    -0.00017879748918136
  43    -6.2759759681699e-05
  44    5.1403410170721e-06
  45    -3.9496379403922e-05
  46    -3.7340469976934e-05
  47    -5.3519471575224e-05
  48    -0.00035106359719379
  49    -5.1269635611382e-06
  50    6.5010681178184e-05
  51    0.0044808782579246
  52    -0.0001323469060491
  53    -2.6970100853992e-05
  54    -0.00037039183533117
  55    0.0018476675412989
  56    0.00041801511517403
  57    0.0042002406177067
  58    0.00012071168243469
  59    0.00019989811171193
  60    7.7945163310703e-05
  61    -5.9165376184537e-05
  62    -8.8278054919305e-05
  63    0.00029638677245498
  64    0.00014556344588501
  65    1.5977073637753e-07
  66    -2.1339497376252e-06
  67    1.5403196556002e-07
  68    1.6727899552734e-06
  69    -3.6694820848566e-07
  70    -9.7123565403413e-07
  71    1.0710442778498e-06
  72    -4.7176765764109e-07
  73    -2.2329853252591e-06
  74    -7.9583842164359e-07
  75    3.1057326719153e-06
  76    -2.761826890861e-07
  77    -6.5792867480669e-08
  78    -1.7525123951456e-07
  79    -1.4782627242995e-07
  80    -8.2592427967712e-08
  81    -1.0338488059151e-07
  82    -7.1301433906773e-07
  83    -3.2935748884674e-07
  84    -2.2954897904047e-06
  85    1.2239574217351e-05
  86    -4.5978613868025e-07
  87    -1.3658881566791e-07
  88    -8.960250425985e-07
  89    -6.3285569479438e-06
  90    1.0189862149026e-05
  91    -4.2776665704238e-07
  92    1.3910519374255e-07
  93    5.7268525358564e-07
  94    -1.0726203972918e-06
  95    3.7356929420904e-07
  96    7.0663842063678e-09
  97    -1.5951787489339e-06
  98    -8.5480598285169e-07
  99    4.1690282281374e-07
 100    1.8599668466473e-06
 101    7.739602716931e-07
 102    3.3804409103603e-06
 103    -9.8979484737955e-05
 104    1.2376862338202e-06
 105    -1.6942407843173e-07
 106    2.646517487652e-06
 107    4.0108791501655e-05
 108    -4.0271444114015e-05
 109    5.8659444066489e-06
 110    -8.0629982926927e-07
 111    -1.2538615259017e-06
 112    5.5331147604583e-07
 113    4.1833581568883e-07
 114    1.8937707099883e-06
 115    -3.6472574558972e-07
 116    -4.1687389950734e-06
 117    4.6357527072976e-06
 118    5.9787353329417e-07
 119    -2.2684599200245e-06
 120    1.6540395467863e-06
 121    -4.3082922622623e-06
 122    1.4535778777552e-05
 123    -1.7604562439385e-05
 124    -6.2956851857686e-07
 125    5.8409149327202e-07
 126    8.5666739342197e-07
 127    2.5475419128377e-07
 128    1.9634886100219e-07
 129    -2.7535724325621e-07
 130    -2.3296549861519e-06
 131    -5.373610022202e-05
 132    -6.2745390527728e-06
 133    -1.253129261296e-06
 134    3.7228243555378e-06
 135    0.00013124305699261
 136    -1.3982059645349e-05
 137    4.0472338133862e-05
 138    -1.4082567849849e-06
 139    -1.0782583720801e-06
 140    -2.9985166557451e-06
 141    3.728922995671e-07
 142    -2.004314345615e-06
 143    -5.3638670420188e-08
 144    1.7703291902287e-06
 145    4.2955941340968e-05
 146    3.670727806915e-07
 147    1.1924391628441e-06
 148    -5.5299240335877e-06
 149    1.339481398275e-05
 150    -3.8753259847678e-05
 151    1.6645615674201e-05
 152    1.2322806357195e-06
 153    -2.7366749160204e-07
 154    2.2525506741085e-06
 155    7.9650137407564e-08
 156    1.0940127645351e-06
 157    -7.0650676845523e-07
 158    -5.7212793757016e-06
 159    3.2627540322984e-05
 160    -5.9829874123279e-07
 161    -7.8873507498171e-07
 162    9.9060087599046e-07
 163    1.1796314202267e-05
 164    -1.2545134096589e-05
 165    -1.8788158131039e-06
 166    -1.1362585995644e-06
 167    2.6726729762646e-07
 168    -2.439769644626e-07
 169    -4.5818744131903e-07
 170    -8.779253103152e-07
 171    -7.1974732573722e-08
 172    -3.0992309302222e-07
 173    -3.5562981990283e-06
 174    2.3679498062408e-07
 175    2.4058782771543e-07
 176    -1.684606718576e-06
 177    -1.2957332926077e-05
 178    -4.4288683913675e-06
 179    -5.3210653053421e-06
 180    3.1594534637532e-07
 181    -1.5337286829164e-06
 182    4.9391049639894e-08
 183    -7.5750395354673e-07
 184    -1.1696290092999e-06
 185    8.0839471421368e-07
 186    6.8538562453883e-06
 187    -3.1207080513248e-05
 188    1.3165134461196e-06
 189    7.435419909912e-08
 190    7.0518449038476e-08
 191    -1.9013576334987e-07
 192    1.0198638728432e-05
 193    1.5740378182035e-05
 194    -7.2939056966406e-07
 195    -8.5519920613509e-07
 196    -1.6204793862585e-06
 197    5.3684907421692e-07
 198    -3.8812834297909e-07
 199    2.086548402708e-06
 200    -1.2301964800972e-06
 201    4.1108445359442e-07
 202    -2.1797028421765e-06
 203    1.4188144535759e-06
 204    8.5750808932175e-06
 205    -3.2812008323584e-06
 206    -7.6752948970613e-07
 207    -3.7752220911768e-07
 208    -1.3551602379982e-05
 209    -2.5946233912537e-06
 210    5.1111357536587e-07
 211    -1.9913164708208e-06
 212    -4.2032284000836e-06
 213    -5.7625144833123e-07
 214    3.9439482349246e-06
 215    3.0803263984468e-06
 216    -1.8733711376418e-05
 217    -8.9243815735117e-07
 218    -2.7021815888762e-07
 219    -8.440191719549e-07
 220    2.3013837612227e-06
 221    4.0375388328875e-06
 222    2.5697934228685e-05
 223    -0.00027683263639816
 224    -6.5027242312812e-06
 225    -7.0965732445483e-07
 226    -7.4220145153188e-07
 227    -5.1831860078838e-05
 228    -6.0540731660681e-05
 229    0.00030359994484488
 230    -6.2131163826341e-06
 231    1.008772979048e-05
 232    7.3346183196867e-06
 233    -3.5758896452796e-06
 234    -3.0576107499348e-06
 235    -7.851556508225e-06
 236    -4.4071523370303e-05
 237    0.0007927768348636
 238    5.2513190136137e-06
 239    6.328621089045e-06
 240    -2.0791671719404e-05
 241    -0.00025073651248177
 242    -5.6203662737998e-05
 243    -9.5394913651515e-05
 244    2.0920648268822e-05
 245    -4.4309951402123e-06
 246    -7.4665721237749e-06
 247    1.4293088634415e-06
 248    3.0672380667089e-06
 249    1.1834896241129e-05
 250    1.967575192421e-05
 251    9.4324965816324e-06
 252    5.9379821761264e-05
 253    -0.0011679925034203
 254    1.3039392978556e-05
 255    -8.2023807113237e-06
 256    3.5799000526119e-05
 257    -0.00051634780261502
 258    -9.5387931435899e-05
 259    -9.315767971041e-05
 260    -2.061228111988e-05
 261    6.6560487665399e-06
 262    8.710377353492e-06
 263    -6.8889875723826e-06
 264    -3.5306873824249e-06
 265    1.0510520480984e-05
 266    4.180211405061e-06
 267    -2.8231280208971e-05
 268    -7.6718949125361e-05
 269     -5.4211553334e-05
 270    -0.00013652505488699
 271    0.0033229925835287
 272    -0.00016414969650365
 273    -6.2990340698187e-05
 274    -7.1095398590012e-05
 275    0.0014920852139782
 276    0.0010134116740714
 277    -0.0039349912801695
 278    0.00038324250308335
 279    -5.4760169997731e-05
 280    -7.3101518229589e-05