[Molden Format]
made by pyscf v[2.0.1]
[Atoms] (AU)
C   1   6     0.69100024066471     0.64692934207205    -3.48223131169301
H   2   1     2.68052439830868     1.13355088658700    -3.25784032593313
C   3   6    -0.36286361513219     0.85440132524594    -5.97030179418974
H   4   1    -2.35448549047279     0.36322488579172    -6.17995817793143
C   5   6     0.93697958957450     1.61209284601821    -8.05828437677121
H   6   1     2.50035468987728     2.93484935641869    -7.84122146962088
C   7   6     0.36255105159660     0.76050131278393   -10.56848504450332
H   8   1    -1.20802221204617    -0.56532983436663   -10.75608465244450
H   9   1     1.55630230933075    -1.92953025305990    12.99630010416247
C   10   6     0.75233899775814    -2.21270439606481    11.10705728102219
H   11   1    -0.43433408177274    -3.90944857546550    11.22216085340412
C   12   6     2.86362581178706    -2.63237380607947     9.17926416456045
H   13   1     4.39038949912609    -1.24955421540245     9.49899813497433
H   14   1     3.74629220191363    -4.48798724300892     9.47414880959024
C   15   6     2.02478325613682    -2.42177285709634     6.44560829588644
C   16   6     3.88048732735477    -3.58795445234514     4.61402886975252
C   17   6    -0.18412382258602    -1.30464291234259     5.76021113872346
C   18   6    -2.10044360464350    -0.26837831858460     7.71610340967100
C   19   6    -3.08956938670431     2.35282328359417     6.88693925039594
C   20   6    -4.37372924086464    -2.09766595989678     7.93610724222001
C   21   6    -0.83850430601230     0.06372213486173    10.33002307638377
H   22   1     0.38411922151109     1.74281358582432    10.27380136542181
H   23   1    -2.30980003007874     0.45460143924521    11.73986301809809
H   24   1     4.58527064644668    -5.38706904487420     5.36778158031719
H   25   1     5.54944938085014    -2.37631462192748     4.35398898413318
H   26   1     3.06633019150423    -3.94118377050688     2.75255466040884
H   27   1    -4.17727778763735     2.26573369139522     5.12914900961283
H   28   1    -1.52662344944051     3.68001877445626     6.59540397144508
H   29   1    -4.32916174397830     3.13643051467482     8.35225460090378
H   30   1    -5.32329548508442    -2.36691813602939     6.11583672749896
H   31   1    -5.77989366602257    -1.33896741843465     9.25748940450990
H   32   1    -3.79310905208926    -3.96389819310853     8.61386170102686
C   33   6    -1.01100794811226    -1.06331657314144     3.11929490449947
C   34   6     0.37686231036534    -0.33275864505552     1.09165013605873
H   35   1    -3.01671213906703    -1.40297922279997     2.77827895090944
C   36   6    -0.64382707979370    -0.11591880174385    -1.42063131251064
H   37   1     2.35569259782137     0.17174499283897     1.33641070251401
H   38   1    -2.63317482980319    -0.60229203511219    -1.66119700387645
C   39   6     1.60144441070444     1.46482489722556   -12.70057441592292
C   40   6     0.86980516734608     0.48994136718256   -15.17470632539007
H   41   1     3.18180515535191     2.77908821383906   -12.64635086980665
O   42   8     1.89724046327418     1.04291297454121   -17.16453627851552
H   43   1    -0.75645459108880    -0.84958730954869   -15.14122439828819
[GTO]
1 0
 s    6 1.00
             3047.5249  0.0018347001629433
             457.36951    0.01403730124668
             103.94869   0.068842606114048
             29.210155    0.23218442062076
              9.286663    0.46794134155879
              3.163927    0.36231203217765
 s    3 1.00
             7.8682724   -0.11933240861517
             1.8812885   -0.16085421161283
             0.5442493     1.1434564825515
 s    1 1.00
             0.1687144                   1
 p    3 1.00
             7.8682724   0.068999095584993
             1.8812885    0.31642397975315
             0.5442493    0.74430825237435
 p    1 1.00
             0.1687144                   1
 d    1 1.00
                   0.8                   1

2 0
 s    3 1.00
             18.731137    0.03349459952309
             2.8253937    0.23472694665786
             0.6401217    0.81375731841339
 s    1 1.00
             0.1612778                   1

3 0
 s    6 1.00
             3047.5249  0.0018347001629433
             457.36951    0.01403730124668
             103.94869   0.068842606114048
             29.210155    0.23218442062076
              9.286663    0.46794134155879
              3.163927    0.36231203217765
 s    3 1.00
             7.8682724   -0.11933240861517
             1.8812885   -0.16085421161283
             0.5442493     1.1434564825515
 s    1 1.00
             0.1687144                   1
 p    3 1.00
             7.8682724   0.068999095584993
             1.8812885    0.31642397975315
             0.5442493    0.74430825237435
 p    1 1.00
             0.1687144                   1
 d    1 1.00
                   0.8                   1

4 0
 s    3 1.00
             18.731137    0.03349459952309
             2.8253937    0.23472694665786
             0.6401217    0.81375731841339
 s    1 1.00
             0.1612778                   1

5 0
 s    6 1.00
             3047.5249  0.0018347001629433
             457.36951    0.01403730124668
             103.94869   0.068842606114048
             29.210155    0.23218442062076
              9.286663    0.46794134155879
              3.163927    0.36231203217765
 s    3 1.00
             7.8682724   -0.11933240861517
             1.8812885   -0.16085421161283
             0.5442493     1.1434564825515
 s    1 1.00
             0.1687144                   1
 p    3 1.00
             7.8682724   0.068999095584993
             1.8812885    0.31642397975315
             0.5442493    0.74430825237435
 p    1 1.00
             0.1687144                   1
 d    1 1.00
                   0.8                   1

6 0
 s    3 1.00
             18.731137    0.03349459952309
             2.8253937    0.23472694665786
             0.6401217    0.81375731841339
 s    1 1.00
             0.1612778                   1

7 0
 s    6 1.00
             3047.5249  0.0018347001629433
             457.36951    0.01403730124668
             103.94869   0.068842606114048
             29.210155    0.23218442062076
              9.286663    0.46794134155879
              3.163927    0.36231203217765
 s    3 1.00
             7.8682724   -0.11933240861517
             1.8812885   -0.16085421161283
             0.5442493     1.1434564825515
 s    1 1.00
             0.1687144                   1
 p    3 1.00
             7.8682724   0.068999095584993
             1.8812885    0.31642397975315
             0.5442493    0.74430825237435
 p    1 1.00
             0.1687144                   1
 d    1 1.00
                   0.8                   1

8 0
 s    3 1.00
             18.731137    0.03349459952309
             2.8253937    0.23472694665786
             0.6401217    0.81375731841339
 s    1 1.00
             0.1612778                   1

9 0
 s    3 1.00
             18.731137    0.03349459952309
             2.8253937    0.23472694665786
             0.6401217    0.81375731841339
 s    1 1.00
             0.1612778                   1

10 0
 s    6 1.00
             3047.5249  0.0018347001629433
             457.36951    0.01403730124668
             103.94869   0.068842606114048
             29.210155    0.23218442062076
              9.286663    0.46794134155879
              3.163927    0.36231203217765
 s    3 1.00
             7.8682724   -0.11933240861517
             1.8812885   -0.16085421161283
             0.5442493     1.1434564825515
 s    1 1.00
             0.1687144                   1
 p    3 1.00
             7.8682724   0.068999095584993
             1.8812885    0.31642397975315
             0.5442493    0.74430825237435
 p    1 1.00
             0.1687144                   1
 d    1 1.00
                   0.8                   1

11 0
 s    3 1.00
             18.731137    0.03349459952309
             2.8253937    0.23472694665786
             0.6401217    0.81375731841339
 s    1 1.00
             0.1612778                   1

12 0
 s    6 1.00
             3047.5249  0.0018347001629433
             457.36951    0.01403730124668
             103.94869   0.068842606114048
             29.210155    0.23218442062076
              9.286663    0.46794134155879
              3.163927    0.36231203217765
 s    3 1.00
             7.8682724   -0.11933240861517
             1.8812885   -0.16085421161283
             0.5442493     1.1434564825515
 s    1 1.00
             0.1687144                   1
 p    3 1.00
             7.8682724   0.068999095584993
             1.8812885    0.31642397975315
             0.5442493    0.74430825237435
 p    1 1.00
             0.1687144                   1
 d    1 1.00
                   0.8                   1

13 0
 s    3 1.00
             18.731137    0.03349459952309
             2.8253937    0.23472694665786
             0.6401217    0.81375731841339
 s    1 1.00
             0.1612778                   1

14 0
 s    3 1.00
             18.731137    0.03349459952309
             2.8253937    0.23472694665786
             0.6401217    0.81375731841339
 s    1 1.00
             0.1612778                   1

15 0
 s    6 1.00
             3047.5249  0.0018347001629433
             457.36951    0.01403730124668
             103.94869   0.068842606114048
             29.210155    0.23218442062076
              9.286663    0.46794134155879
              3.163927    0.36231203217765
 s    3 1.00
             7.8682724   -0.11933240861517
             1.8812885   -0.16085421161283
             0.5442493     1.1434564825515
 s    1 1.00
             0.1687144                   1
 p    3 1.00
             7.8682724   0.068999095584993
             1.8812885    0.31642397975315
             0.5442493    0.74430825237435
 p    1 1.00
             0.1687144                   1
 d    1 1.00
                   0.8                   1

16 0
 s    6 1.00
             3047.5249  0.0018347001629433
             457.36951    0.01403730124668
             103.94869   0.068842606114048
             29.210155    0.23218442062076
              9.286663    0.46794134155879
              3.163927    0.36231203217765
 s    3 1.00
             7.8682724   -0.11933240861517
             1.8812885   -0.16085421161283
             0.5442493     1.1434564825515
 s    1 1.00
             0.1687144                   1
 p    3 1.00
             7.8682724   0.068999095584993
             1.8812885    0.31642397975315
             0.5442493    0.74430825237435
 p    1 1.00
             0.1687144                   1
 d    1 1.00
                   0.8                   1

17 0
 s    6 1.00
             3047.5249  0.0018347001629433
             457.36951    0.01403730124668
             103.94869   0.068842606114048
             29.210155    0.23218442062076
              9.286663    0.46794134155879
              3.163927    0.36231203217765
 s    3 1.00
             7.8682724   -0.11933240861517
             1.8812885   -0.16085421161283
             0.5442493     1.1434564825515
 s    1 1.00
             0.1687144                   1
 p    3 1.00
             7.8682724   0.068999095584993
             1.8812885    0.31642397975315
             0.5442493    0.74430825237435
 p    1 1.00
             0.1687144                   1
 d    1 1.00
                   0.8                   1

18 0
 s    6 1.00
             3047.5249  0.0018347001629433
             457.36951    0.01403730124668
             103.94869   0.068842606114048
             29.210155    0.23218442062076
              9.286663    0.46794134155879
              3.163927    0.36231203217765
 s    3 1.00
             7.8682724   -0.11933240861517
             1.8812885   -0.16085421161283
             0.5442493     1.1434564825515
 s    1 1.00
             0.1687144                   1
 p    3 1.00
             7.8682724   0.068999095584993
             1.8812885    0.31642397975315
             0.5442493    0.74430825237435
 p    1 1.00
             0.1687144                   1
 d    1 1.00
                   0.8                   1

19 0
 s    6 1.00
             3047.5249  0.0018347001629433
             457.36951    0.01403730124668
             103.94869   0.068842606114048
             29.210155    0.23218442062076
              9.286663    0.46794134155879
              3.163927    0.36231203217765
 s    3 1.00
             7.8682724   -0.11933240861517
             1.8812885   -0.16085421161283
             0.5442493     1.1434564825515
 s    1 1.00
             0.1687144                   1
 p    3 1.00
             7.8682724   0.068999095584993
             1.8812885    0.31642397975315
             0.5442493    0.74430825237435
 p    1 1.00
             0.1687144                   1
 d    1 1.00
                   0.8                   1

20 0
 s    6 1.00
             3047.5249  0.0018347001629433
             457.36951    0.01403730124668
             103.94869   0.068842606114048
             29.210155    0.23218442062076
              9.286663    0.46794134155879
              3.163927    0.36231203217765
 s    3 1.00
             7.8682724   -0.11933240861517
             1.8812885   -0.16085421161283
             0.5442493     1.1434564825515
 s    1 1.00
             0.1687144                   1
 p    3 1.00
             7.8682724   0.068999095584993
             1.8812885    0.31642397975315
             0.5442493    0.74430825237435
 p    1 1.00
             0.1687144                   1
 d    1 1.00
                   0.8                   1

21 0
 s    6 1.00
             3047.5249  0.0018347001629433
             457.36951    0.01403730124668
             103.94869   0.068842606114048
             29.210155    0.23218442062076
              9.286663    0.46794134155879
              3.163927    0.36231203217765
 s    3 1.00
             7.8682724   -0.11933240861517
             1.8812885   -0.16085421161283
             0.5442493     1.1434564825515
 s    1 1.00
             0.1687144                   1
 p    3 1.00
             7.8682724   0.068999095584993
             1.8812885    0.31642397975315
             0.5442493    0.74430825237435
 p    1 1.00
             0.1687144                   1
 d    1 1.00
                   0.8                   1

22 0
 s    3 1.00
             18.731137    0.03349459952309
             2.8253937    0.23472694665786
             0.6401217    0.81375731841339
 s    1 1.00
             0.1612778                   1

23 0
 s    3 1.00
             18.731137    0.03349459952309
             2.8253937    0.23472694665786
             0.6401217    0.81375731841339
 s    1 1.00
             0.1612778                   1

24 0
 s    3 1.00
             18.731137    0.03349459952309
             2.8253937    0.23472694665786
             0.6401217    0.81375731841339
 s    1 1.00
             0.1612778                   1

25 0
 s    3 1.00
             18.731137    0.03349459952309
             2.8253937    0.23472694665786
             0.6401217    0.81375731841339
 s    1 1.00
             0.1612778                   1

26 0
 s    3 1.00
             18.731137    0.03349459952309
             2.8253937    0.23472694665786
             0.6401217    0.81375731841339
 s    1 1.00
             0.1612778                   1

27 0
 s    3 1.00
             18.731137    0.03349459952309
             2.8253937    0.23472694665786
             0.6401217    0.81375731841339
 s    1 1.00
             0.1612778                   1

28 0
 s    3 1.00
             18.731137    0.03349459952309
             2.8253937    0.23472694665786
             0.6401217    0.81375731841339
 s    1 1.00
             0.1612778                   1

29 0
 s    3 1.00
             18.731137    0.03349459952309
             2.8253937    0.23472694665786
             0.6401217    0.81375731841339
 s    1 1.00
             0.1612778                   1

30 0
 s    3 1.00
             18.731137    0.03349459952309
             2.8253937    0.23472694665786
             0.6401217    0.81375731841339
 s    1 1.00
             0.1612778                   1

31 0
 s    3 1.00
             18.731137    0.03349459952309
             2.8253937    0.23472694665786
             0.6401217    0.81375731841339
 s    1 1.00
             0.1612778                   1

32 0
 s    3 1.00
             18.731137    0.03349459952309
             2.8253937    0.23472694665786
             0.6401217    0.81375731841339
 s    1 1.00
             0.1612778                   1

33 0
 s    6 1.00
             3047.5249  0.0018347001629433
             457.36951    0.01403730124668
             103.94869   0.068842606114048
             29.210155    0.23218442062076
              9.286663    0.46794134155879
              3.163927    0.36231203217765
 s    3 1.00
             7.8682724   -0.11933240861517
             1.8812885   -0.16085421161283
             0.5442493     1.1434564825515
 s    1 1.00
             0.1687144                   1
 p    3 1.00
             7.8682724   0.068999095584993
             1.8812885    0.31642397975315
             0.5442493    0.74430825237435
 p    1 1.00
             0.1687144                   1
 d    1 1.00
                   0.8                   1

34 0
 s    6 1.00
             3047.5249  0.0018347001629433
             457.36951    0.01403730124668
             103.94869   0.068842606114048
             29.210155    0.23218442062076
              9.286663    0.46794134155879
              3.163927    0.36231203217765
 s    3 1.00
             7.8682724   -0.11933240861517
             1.8812885   -0.16085421161283
             0.5442493     1.1434564825515
 s    1 1.00
             0.1687144                   1
 p    3 1.00
             7.8682724   0.068999095584993
             1.8812885    0.31642397975315
             0.5442493    0.74430825237435
 p    1 1.00
             0.1687144                   1
 d    1 1.00
                   0.8                   1

35 0
 s    3 1.00
             18.731137    0.03349459952309
             2.8253937    0.23472694665786
             0.6401217    0.81375731841339
 s    1 1.00
             0.1612778                   1

36 0
 s    6 1.00
             3047.5249  0.0018347001629433
             457.36951    0.01403730124668
             103.94869   0.068842606114048
             29.210155    0.23218442062076
              9.286663    0.46794134155879
              3.163927    0.36231203217765
 s    3 1.00
             7.8682724   -0.11933240861517
             1.8812885   -0.16085421161283
             0.5442493     1.1434564825515
 s    1 1.00
             0.1687144                   1
 p    3 1.00
             7.8682724   0.068999095584993
             1.8812885    0.31642397975315
             0.5442493    0.74430825237435
 p    1 1.00
             0.1687144                   1
 d    1 1.00
                   0.8                   1

37 0
 s    3 1.00
             18.731137    0.03349459952309
             2.8253937    0.23472694665786
             0.6401217    0.81375731841339
 s    1 1.00
             0.1612778                   1

38 0
 s    3 1.00
             18.731137    0.03349459952309
             2.8253937    0.23472694665786
             0.6401217    0.81375731841339
 s    1 1.00
             0.1612778                   1

39 0
 s    6 1.00
             3047.5249  0.0018347001629433
             457.36951    0.01403730124668
             103.94869   0.068842606114048
             29.210155    0.23218442062076
              9.286663    0.46794134155879
              3.163927    0.36231203217765
 s    3 1.00
             7.8682724   -0.11933240861517
             1.8812885   -0.16085421161283
             0.5442493     1.1434564825515
 s    1 1.00
             0.1687144                   1
 p    3 1.00
             7.8682724   0.068999095584993
             1.8812885    0.31642397975315
             0.5442493    0.74430825237435
 p    1 1.00
             0.1687144                   1
 d    1 1.00
                   0.8                   1

40 0
 s    6 1.00
             3047.5249  0.0018347001629433
             457.36951    0.01403730124668
             103.94869   0.068842606114048
             29.210155    0.23218442062076
              9.286663    0.46794134155879
              3.163927    0.36231203217765
 s    3 1.00
             7.8682724   -0.11933240861517
             1.8812885   -0.16085421161283
             0.5442493     1.1434564825515
 s    1 1.00
             0.1687144                   1
 p    3 1.00
             7.8682724   0.068999095584993
             1.8812885    0.31642397975315
             0.5442493    0.74430825237435
 p    1 1.00
             0.1687144                   1
 d    1 1.00
                   0.8                   1

41 0
 s    3 1.00
             18.731137    0.03349459952309
             2.8253937    0.23472694665786
             0.6401217    0.81375731841339
 s    1 1.00
             0.1612778                   1

42 0
 s    6 1.00
             5484.6717   0.001831099805527
             825.23495   0.013950098518422
             188.04696    0.06844509273075
               52.9645    0.23271427528445
              16.89757    0.47019295006289
             5.7996353    0.35852086192309
 s    3 1.00
             15.539616   -0.11077750382508
             3.5999336   -0.14802630511126
             1.0137618     1.1307670390447
 s    1 1.00
             0.2700058                   1
 p    3 1.00
             15.539616   0.070874299543311
             3.5999336    0.33975279781076
             1.0137618    0.72715859531445
 p    1 1.00
             0.2700058                   1
 d    1 1.00
                   0.8                   1

43 0
 s    3 1.00
             18.731137    0.03349459952309
             2.8253937    0.23472694665786
             0.6401217    0.81375731841339
 s    1 1.00
             0.1612778                   1

[5d]
[7f]
[9g]

[MO]
 Sym= A
 Ene=               0
 Spin= Alpha
 Occup=    1.00000
   1    4.3180175831955e-06
   2    2.9198920810735e-05
   3    0.00013450408556729
   4    1.0158566158861e-05
   5    3.6780142492668e-05
   6    -2.160596525863e-05
   7    -0.0002265922928624
   8    -0.00026705083724957
   9    0.00065059932515982
  10    -1.6991745375184e-05
  11    -2.2580361421277e-05
  12    -4.0214884912813e-08
  13    -9.7008729044822e-07
  14    -8.3720889052599e-07
  15    3.7581827745549e-05
  16    3.600860210525e-05
  17    -1.3423613540446e-05
  18    -2.8893170917088e-05
  19    0.0017793814363748
  20    2.2255583004836e-05
  21    -9.0704883225621e-06
  22    -6.8364401070902e-05
  23    0.00038083518381219
  24    0.00013732881515341
  25    -0.00076961722780198
  26    5.2105121173073e-05
  27    -1.9428450091523e-05
  28    -2.2140836917615e-05
  29    2.294045770286e-05
  30    -3.1031898149942e-05
  31    -4.5901368497531e-06
  32    -7.5976217062594e-05
  33    6.0171653236933e-05
  34    0.00036956196960227
  35    -0.005423845289379
  36    -5.0100082558631e-05
  37    -7.1765231290015e-07
  38    0.00013276083143184
  39    0.0014919354445516
  40    0.0013673775727471
  41    0.0014034801075118
  42    -0.00015734756185034
  43    -1.2568315376411e-05
  44    -6.6327603707694e-05
  45    -2.2725143009583e-06
  46    -5.2799800594269e-05
  47    -3.9087719705106e-05
  48    -0.00033759658882051
  49    -2.7501459284206e-07
  50    9.6795173406007e-05
  51    0.0041620817769974
  52    -7.1144742476156e-05
  53    -0.00012376904252537
  54    -0.00036470995431814
  55    0.0010788904699021
  56     0.001524159331229
  57    0.0038683720220324
  58    0.00010401242524275
  59    0.00015084759999075
  60    0.00014007867257929
  61    -4.6327089989411e-05
  62    -0.0001013358677585
  63    0.00030539838452692
  64    0.00011350717001562
  65    2.3777692619877e-08
  66    -1.5309347549726e-06
  67    8.479129351697e-08
  68    9.3208883675151e-07
  69    1.046480239357e-06
  70    -5.5488115626106e-07
  71    6.4103715383366e-07
  72    -3.3390779079426e-07
  73    -1.6520791215993e-06
  74    -1.0937884895972e-07
  75    2.1648985376968e-06
  76    -1.9459771304572e-07
  77    -8.4947520924632e-08
  78    -9.8995770560199e-08
  79    -6.2985742884075e-08
  80    -7.9619028432824e-08
  81    -9.8842615368053e-08
  82    -5.1358405119493e-07
  83    -2.0001699860286e-07
  84    -1.3951286043342e-06
  85    6.2975316876557e-06
  86    -2.7526494954205e-07
  87    1.5085914011681e-08
  88    -4.387149816762e-07
  89    -3.290843976087e-06
  90    5.4487065691977e-06
  91    -1.4707995933261e-07
  92    1.1177454689805e-07
  93    3.2503292997034e-07
  94    -6.5157760170019e-07
  95    2.3400468526836e-07
  96    -1.5992789271302e-08
  97    -9.3260943651768e-07
  98    -2.6137186759242e-07
  99    1.8654894184309e-07
 100    9.2828924522581e-07
 101    4.2387581822162e-07
 102    1.4660802861469e-06
 103    -5.6650225286938e-05
 104    6.6881247104615e-07
 105    -2.8893958796009e-07
 106    1.7587871346523e-06
 107    2.2414404474602e-05
 108    -2.3581626283049e-05
 109    5.6811626608433e-06
 110    -6.0996959549799e-07
 111    -9.3318982976227e-07
 112    4.1604078253183e-07
 113    6.0985761384497e-07
 114    1.1671189271606e-06
 115    -3.6737689035064e-07
 116    -4.0533103677599e-06
 117    1.1360434284325e-05
 118    2.3403181472127e-07
 119    -9.6467769382231e-07
 120    1.1941259483158e-06
 121    -3.2898855528448e-06
 122    7.1531071314313e-06
 123    -1.3381611768655e-05
 124    -3.9388031003115e-07
 125    5.0014757227358e-07
 126    4.1616406872407e-07
 127    2.6324503123348e-08
 128    1.2887402038196e-07
 129    -3.9045722404946e-07
 130    -3.8729407945245e-06
 131    -3.1980994896082e-05
 132    -4.1408040293201e-06
 133    -1.5581432076113e-06
 134    3.5637217027011e-06
 135    7.9098747820571e-05
 136    -4.1230870474143e-06
 137    1.7572103516136e-05
 138    -4.9037698446559e-07
 139    -6.2250863202204e-07
 140    -1.8854474093579e-06
 141    3.1440136374574e-07
 142    -1.2532240753566e-06
 143    4.3738125725638e-08
 144    1.7932816146426e-06
 145    2.4661771277976e-05
 146    3.9186002829535e-07
 147    1.2448547010427e-06
 148    -3.7903538121011e-06
 149    8.3151802565118e-06
 150    -2.9474897672349e-05
 151    1.4308118670237e-05
 152    5.2428954944154e-07
 153    -1.3650164624212e-07
 154    1.5289244646056e-06
 155    1.9675223082282e-07
 156    7.4999582461857e-07
 157    -4.8137431139687e-07
 158    -3.803733553992e-06
 159    2.4803927781087e-05
 160    -1.198163170148e-07
 161    -7.3683188041382e-07
 162    8.3672500893606e-07
 163    7.3934315268176e-06
 164    -9.5377245625936e-06
 165    -1.384762930631e-06
 166    -8.1128129119013e-07
 167    3.011741357979e-07
 168    -1.7150284744489e-07
 169    -3.660570587706e-07
 170    -6.1244553440467e-07
 171    -3.4911204017536e-08
 172    -2.4571687338183e-07
 173    -3.6009105709859e-06
 174    -2.1296162974848e-08
 175    1.7614804451299e-07
 176    -9.6058900727058e-07
 177    -9.0940848944163e-06
 178    -3.1310934172672e-06
 179    -4.7103573801934e-06
 180    2.9297176857677e-07
 181    -1.0196954529122e-06
 182    -6.6750045912689e-08
 183    -6.054898957313e-07
 184    -7.6009070843739e-07
 185    4.7583846039006e-07
 186    3.9697892067211e-06
 187    -2.0184169031692e-05
 188    7.8363041955334e-07
 189    7.2762289601369e-08
 190    2.0926585794643e-07
 191    9.3982387491204e-07
 192    7.8282201499314e-06
 193    8.721851552545e-06
 194    -3.1716836494352e-07
 195    -6.0040475168197e-07
 196    -1.1658086035415e-06
 197    3.2968926797927e-07
 198    -2.6855055897847e-07
 199    1.1531992497249e-06
 200    -1.5296254338087e-06
 201    3.5043353991406e-07
 202    -6.5683895363102e-07
 203    3.2099817370229e-07
 204    4.1649236523162e-06
 205    -2.2318814592844e-06
 206    -8.1363837079463e-07
 207    9.9603679321494e-07
 208    -1.7009372390859e-05
 209    -1.6432276344307e-06
 210    -6.8234911130256e-07
 211    -1.4636012307056e-06
 212    -2.1390817219989e-06
 213    -4.0447785189462e-07
 214    2.2028903335807e-06
 215    1.9352410030079e-06
 216    -1.2946214398074e-05
 217    -4.6447483136815e-07
 218    1.5852621800578e-07
 219    -5.749921341404e-07
 220    1.8811245387985e-06
 221    2.5050560283518e-06
 222    1.4781278821885e-05
 223    -0.00017918674508515
 224    -5.0564445858747e-06
 225    4.4031662497617e-07
 226    -7.1949682041784e-08
 227    -2.3938411327862e-05
 228    -3.5819699823471e-05
 229    0.00019282176830569
 230    -4.5059628742923e-06
 231    6.3476723103441e-06
 232    4.197017437908e-06
 233    -2.211570888905e-06
 234    -1.1475495292747e-06
 235    -5.9696604197081e-06
 236    -3.536908120762e-05
 237    0.00056293530949503
 238    2.8233500809494e-06
 239    5.6401563433848e-06
 240    -1.314676536569e-05
 241    -0.00017382786507766
 242    -4.7765782131501e-05
 243    -0.00010496408712169
 244    1.6056590314479e-05
 245    -1.1842506607094e-06
 246    -3.2283365242234e-06
 247    1.3861013914188e-06
 248    3.8620254828531e-06
 249    8.0872871679823e-06
 250    1.7816100794771e-05
 251    5.9644119576557e-06
 252    3.5752953242981e-05
 253    -0.00080540009538962
 254    1.1443098267516e-05
 255    -1.4254572087382e-05
 256    2.6691229249264e-05
 257    -0.00035501969737292
 258    -1.3819765733634e-05
 259    -0.00010176713202499
 260    -1.5549488274507e-05
 261    2.8101685894653e-06
 262    2.5957795680507e-06
 263    -4.9215548515071e-06
 264    1.9785908010869e-06
 265    4.8223434772031e-06
 266    1.0206554042275e-05
 267    -2.1591936015139e-05
 268    -4.279859659622e-05
 269    -5.3795294696765e-05
 270    -0.000131811836112
 271     0.003241435594031
 272    -0.0001338128529711
 273    -0.00012076517267808
 274    -7.4662818298354e-05
 275    0.0017147233116137
 276    0.00082116887080356
 277    -0.0038738997111138
 278    0.00038285415734675
 279    -9.3863168292693e-05