[Molden Format]
made by pyscf v[2.0.1]
[Atoms] (AU)
C   1   6     0.69100024066471     0.64692934207205    -3.48223131169301
H   2   1     2.68052439830868     1.13355088658700    -3.25784032593313
C   3   6    -0.36286361513219     0.85440132524594    -5.97030179418974
H   4   1    -2.35448549047279     0.36322488579172    -6.17995817793143
C   5   6     0.93697958957450     1.61209284601821    -8.05828437677121
H   6   1     0.96138501035509     3.61074187827952    -8.55401536893531
C   7   6     2.29833572157337    -0.09037665740906    -9.67215882917863
H   8   1     2.25763405404964    -2.08692321364337    -9.15074973557782
H   9   1     1.55630230933075    -1.92953025305990    12.99630010416247
C   10   6     0.75233899775814    -2.21270439606481    11.10705728102219
H   11   1    -0.43433408177274    -3.90944857546550    11.22216085340412
C   12   6     2.86362581178706    -2.63237380607947     9.17926416456045
H   13   1     4.39038949912609    -1.24955421540245     9.49899813497433
H   14   1     3.74629220191363    -4.48798724300892     9.47414880959024
C   15   6     2.02478325613682    -2.42177285709634     6.44560829588644
C   16   6     3.88048732735477    -3.58795445234514     4.61402886975252
C   17   6    -0.18412382258602    -1.30464291234259     5.76021113872346
C   18   6    -2.10044360464350    -0.26837831858460     7.71610340967100
C   19   6    -3.08956938670431     2.35282328359417     6.88693925039594
C   20   6    -4.37372924086464    -2.09766595989678     7.93610724222001
C   21   6    -0.83850430601230     0.06372213486173    10.33002307638377
H   22   1     0.38411922151109     1.74281358582432    10.27380136542181
H   23   1    -2.30980003007874     0.45460143924521    11.73986301809809
H   24   1     4.58527064644668    -5.38706904487420     5.36778158031719
H   25   1     5.54944938085014    -2.37631462192748     4.35398898413318
H   26   1     3.06633019150423    -3.94118377050688     2.75255466040884
H   27   1    -4.17727778763735     2.26573369139522     5.12914900961283
H   28   1    -1.52662344944051     3.68001877445626     6.59540397144508
H   29   1    -4.32916174397830     3.13643051467482     8.35225460090378
H   30   1    -5.32329548508442    -2.36691813602939     6.11583672749896
H   31   1    -5.77989366602257    -1.33896741843465     9.25748940450990
H   32   1    -3.79310905208926    -3.96389819310853     8.61386170102686
C   33   6    -1.01100794811226    -1.06331657314144     3.11929490449947
C   34   6     0.37686231036534    -0.33275864505552     1.09165013605873
H   35   1    -3.01671213906703    -1.40297922279997     2.77827895090944
C   36   6    -0.64382707979370    -0.11591880174385    -1.42063131251064
H   37   1     2.35569259782137     0.17174499283897     1.33641070251401
H   38   1    -2.63317482980319    -0.60229203511219    -1.66119700387645
C   39   6     3.61506927759443     0.57708357993929   -11.76916696671870
C   40   6     4.94068653136927    -1.30276865816170   -13.29098070185656
H   41   1     3.73162541044975     2.53269508104841   -12.39347992177894
O   42   8     6.15625203764207    -0.83635548426311   -15.19510343410387
H   43   1     4.77073908343657    -3.27989237609552   -12.58226454806003
[GTO]
1 0
 s    6 1.00
             3047.5249  0.0018347001629433
             457.36951    0.01403730124668
             103.94869   0.068842606114048
             29.210155    0.23218442062076
              9.286663    0.46794134155879
              3.163927    0.36231203217765
 s    3 1.00
             7.8682724   -0.11933240861517
             1.8812885   -0.16085421161283
             0.5442493     1.1434564825515
 s    1 1.00
             0.1687144                   1
 p    3 1.00
             7.8682724   0.068999095584993
             1.8812885    0.31642397975315
             0.5442493    0.74430825237435
 p    1 1.00
             0.1687144                   1
 d    1 1.00
                   0.8                   1

2 0
 s    3 1.00
             18.731137    0.03349459952309
             2.8253937    0.23472694665786
             0.6401217    0.81375731841339
 s    1 1.00
             0.1612778                   1

3 0
 s    6 1.00
             3047.5249  0.0018347001629433
             457.36951    0.01403730124668
             103.94869   0.068842606114048
             29.210155    0.23218442062076
              9.286663    0.46794134155879
              3.163927    0.36231203217765
 s    3 1.00
             7.8682724   -0.11933240861517
             1.8812885   -0.16085421161283
             0.5442493     1.1434564825515
 s    1 1.00
             0.1687144                   1
 p    3 1.00
             7.8682724   0.068999095584993
             1.8812885    0.31642397975315
             0.5442493    0.74430825237435
 p    1 1.00
             0.1687144                   1
 d    1 1.00
                   0.8                   1

4 0
 s    3 1.00
             18.731137    0.03349459952309
             2.8253937    0.23472694665786
             0.6401217    0.81375731841339
 s    1 1.00
             0.1612778                   1

5 0
 s    6 1.00
             3047.5249  0.0018347001629433
             457.36951    0.01403730124668
             103.94869   0.068842606114048
             29.210155    0.23218442062076
              9.286663    0.46794134155879
              3.163927    0.36231203217765
 s    3 1.00
             7.8682724   -0.11933240861517
             1.8812885   -0.16085421161283
             0.5442493     1.1434564825515
 s    1 1.00
             0.1687144                   1
 p    3 1.00
             7.8682724   0.068999095584993
             1.8812885    0.31642397975315
             0.5442493    0.74430825237435
 p    1 1.00
             0.1687144                   1
 d    1 1.00
                   0.8                   1

6 0
 s    3 1.00
             18.731137    0.03349459952309
             2.8253937    0.23472694665786
             0.6401217    0.81375731841339
 s    1 1.00
             0.1612778                   1

7 0
 s    6 1.00
             3047.5249  0.0018347001629433
             457.36951    0.01403730124668
             103.94869   0.068842606114048
             29.210155    0.23218442062076
              9.286663    0.46794134155879
              3.163927    0.36231203217765
 s    3 1.00
             7.8682724   -0.11933240861517
             1.8812885   -0.16085421161283
             0.5442493     1.1434564825515
 s    1 1.00
             0.1687144                   1
 p    3 1.00
             7.8682724   0.068999095584993
             1.8812885    0.31642397975315
             0.5442493    0.74430825237435
 p    1 1.00
             0.1687144                   1
 d    1 1.00
                   0.8                   1

8 0
 s    3 1.00
             18.731137    0.03349459952309
             2.8253937    0.23472694665786
             0.6401217    0.81375731841339
 s    1 1.00
             0.1612778                   1

9 0
 s    3 1.00
             18.731137    0.03349459952309
             2.8253937    0.23472694665786
             0.6401217    0.81375731841339
 s    1 1.00
             0.1612778                   1

10 0
 s    6 1.00
             3047.5249  0.0018347001629433
             457.36951    0.01403730124668
             103.94869   0.068842606114048
             29.210155    0.23218442062076
              9.286663    0.46794134155879
              3.163927    0.36231203217765
 s    3 1.00
             7.8682724   -0.11933240861517
             1.8812885   -0.16085421161283
             0.5442493     1.1434564825515
 s    1 1.00
             0.1687144                   1
 p    3 1.00
             7.8682724   0.068999095584993
             1.8812885    0.31642397975315
             0.5442493    0.74430825237435
 p    1 1.00
             0.1687144                   1
 d    1 1.00
                   0.8                   1

11 0
 s    3 1.00
             18.731137    0.03349459952309
             2.8253937    0.23472694665786
             0.6401217    0.81375731841339
 s    1 1.00
             0.1612778                   1

12 0
 s    6 1.00
             3047.5249  0.0018347001629433
             457.36951    0.01403730124668
             103.94869   0.068842606114048
             29.210155    0.23218442062076
              9.286663    0.46794134155879
              3.163927    0.36231203217765
 s    3 1.00
             7.8682724   -0.11933240861517
             1.8812885   -0.16085421161283
             0.5442493     1.1434564825515
 s    1 1.00
             0.1687144                   1
 p    3 1.00
             7.8682724   0.068999095584993
             1.8812885    0.31642397975315
             0.5442493    0.74430825237435
 p    1 1.00
             0.1687144                   1
 d    1 1.00
                   0.8                   1

13 0
 s    3 1.00
             18.731137    0.03349459952309
             2.8253937    0.23472694665786
             0.6401217    0.81375731841339
 s    1 1.00
             0.1612778                   1

14 0
 s    3 1.00
             18.731137    0.03349459952309
             2.8253937    0.23472694665786
             0.6401217    0.81375731841339
 s    1 1.00
             0.1612778                   1

15 0
 s    6 1.00
             3047.5249  0.0018347001629433
             457.36951    0.01403730124668
             103.94869   0.068842606114048
             29.210155    0.23218442062076
              9.286663    0.46794134155879
              3.163927    0.36231203217765
 s    3 1.00
             7.8682724   -0.11933240861517
             1.8812885   -0.16085421161283
             0.5442493     1.1434564825515
 s    1 1.00
             0.1687144                   1
 p    3 1.00
             7.8682724   0.068999095584993
             1.8812885    0.31642397975315
             0.5442493    0.74430825237435
 p    1 1.00
             0.1687144                   1
 d    1 1.00
                   0.8                   1

16 0
 s    6 1.00
             3047.5249  0.0018347001629433
             457.36951    0.01403730124668
             103.94869   0.068842606114048
             29.210155    0.23218442062076
              9.286663    0.46794134155879
              3.163927    0.36231203217765
 s    3 1.00
             7.8682724   -0.11933240861517
             1.8812885   -0.16085421161283
             0.5442493     1.1434564825515
 s    1 1.00
             0.1687144                   1
 p    3 1.00
             7.8682724   0.068999095584993
             1.8812885    0.31642397975315
             0.5442493    0.74430825237435
 p    1 1.00
             0.1687144                   1
 d    1 1.00
                   0.8                   1

17 0
 s    6 1.00
             3047.5249  0.0018347001629433
             457.36951    0.01403730124668
             103.94869   0.068842606114048
             29.210155    0.23218442062076
              9.286663    0.46794134155879
              3.163927    0.36231203217765
 s    3 1.00
             7.8682724   -0.11933240861517
             1.8812885   -0.16085421161283
             0.5442493     1.1434564825515
 s    1 1.00
             0.1687144                   1
 p    3 1.00
             7.8682724   0.068999095584993
             1.8812885    0.31642397975315
             0.5442493    0.74430825237435
 p    1 1.00
             0.1687144                   1
 d    1 1.00
                   0.8                   1

18 0
 s    6 1.00
             3047.5249  0.0018347001629433
             457.36951    0.01403730124668
             103.94869   0.068842606114048
             29.210155    0.23218442062076
              9.286663    0.46794134155879
              3.163927    0.36231203217765
 s    3 1.00
             7.8682724   -0.11933240861517
             1.8812885   -0.16085421161283
             0.5442493     1.1434564825515
 s    1 1.00
             0.1687144                   1
 p    3 1.00
             7.8682724   0.068999095584993
             1.8812885    0.31642397975315
             0.5442493    0.74430825237435
 p    1 1.00
             0.1687144                   1
 d    1 1.00
                   0.8                   1

19 0
 s    6 1.00
             3047.5249  0.0018347001629433
             457.36951    0.01403730124668
             103.94869   0.068842606114048
             29.210155    0.23218442062076
              9.286663    0.46794134155879
              3.163927    0.36231203217765
 s    3 1.00
             7.8682724   -0.11933240861517
             1.8812885   -0.16085421161283
             0.5442493     1.1434564825515
 s    1 1.00
             0.1687144                   1
 p    3 1.00
             7.8682724   0.068999095584993
             1.8812885    0.31642397975315
             0.5442493    0.74430825237435
 p    1 1.00
             0.1687144                   1
 d    1 1.00
                   0.8                   1

20 0
 s    6 1.00
             3047.5249  0.0018347001629433
             457.36951    0.01403730124668
             103.94869   0.068842606114048
             29.210155    0.23218442062076
              9.286663    0.46794134155879
              3.163927    0.36231203217765
 s    3 1.00
             7.8682724   -0.11933240861517
             1.8812885   -0.16085421161283
             0.5442493     1.1434564825515
 s    1 1.00
             0.1687144                   1
 p    3 1.00
             7.8682724   0.068999095584993
             1.8812885    0.31642397975315
             0.5442493    0.74430825237435
 p    1 1.00
             0.1687144                   1
 d    1 1.00
                   0.8                   1

21 0
 s    6 1.00
             3047.5249  0.0018347001629433
             457.36951    0.01403730124668
             103.94869   0.068842606114048
             29.210155    0.23218442062076
              9.286663    0.46794134155879
              3.163927    0.36231203217765
 s    3 1.00
             7.8682724   -0.11933240861517
             1.8812885   -0.16085421161283
             0.5442493     1.1434564825515
 s    1 1.00
             0.1687144                   1
 p    3 1.00
             7.8682724   0.068999095584993
             1.8812885    0.31642397975315
             0.5442493    0.74430825237435
 p    1 1.00
             0.1687144                   1
 d    1 1.00
                   0.8                   1

22 0
 s    3 1.00
             18.731137    0.03349459952309
             2.8253937    0.23472694665786
             0.6401217    0.81375731841339
 s    1 1.00
             0.1612778                   1

23 0
 s    3 1.00
             18.731137    0.03349459952309
             2.8253937    0.23472694665786
             0.6401217    0.81375731841339
 s    1 1.00
             0.1612778                   1

24 0
 s    3 1.00
             18.731137    0.03349459952309
             2.8253937    0.23472694665786
             0.6401217    0.81375731841339
 s    1 1.00
             0.1612778                   1

25 0
 s    3 1.00
             18.731137    0.03349459952309
             2.8253937    0.23472694665786
             0.6401217    0.81375731841339
 s    1 1.00
             0.1612778                   1

26 0
 s    3 1.00
             18.731137    0.03349459952309
             2.8253937    0.23472694665786
             0.6401217    0.81375731841339
 s    1 1.00
             0.1612778                   1

27 0
 s    3 1.00
             18.731137    0.03349459952309
             2.8253937    0.23472694665786
             0.6401217    0.81375731841339
 s    1 1.00
             0.1612778                   1

28 0
 s    3 1.00
             18.731137    0.03349459952309
             2.8253937    0.23472694665786
             0.6401217    0.81375731841339
 s    1 1.00
             0.1612778                   1

29 0
 s    3 1.00
             18.731137    0.03349459952309
             2.8253937    0.23472694665786
             0.6401217    0.81375731841339
 s    1 1.00
             0.1612778                   1

30 0
 s    3 1.00
             18.731137    0.03349459952309
             2.8253937    0.23472694665786
             0.6401217    0.81375731841339
 s    1 1.00
             0.1612778                   1

31 0
 s    3 1.00
             18.731137    0.03349459952309
             2.8253937    0.23472694665786
             0.6401217    0.81375731841339
 s    1 1.00
             0.1612778                   1

32 0
 s    3 1.00
             18.731137    0.03349459952309
             2.8253937    0.23472694665786
             0.6401217    0.81375731841339
 s    1 1.00
             0.1612778                   1

33 0
 s    6 1.00
             3047.5249  0.0018347001629433
             457.36951    0.01403730124668
             103.94869   0.068842606114048
             29.210155    0.23218442062076
              9.286663    0.46794134155879
              3.163927    0.36231203217765
 s    3 1.00
             7.8682724   -0.11933240861517
             1.8812885   -0.16085421161283
             0.5442493     1.1434564825515
 s    1 1.00
             0.1687144                   1
 p    3 1.00
             7.8682724   0.068999095584993
             1.8812885    0.31642397975315
             0.5442493    0.74430825237435
 p    1 1.00
             0.1687144                   1
 d    1 1.00
                   0.8                   1

34 0
 s    6 1.00
             3047.5249  0.0018347001629433
             457.36951    0.01403730124668
             103.94869   0.068842606114048
             29.210155    0.23218442062076
              9.286663    0.46794134155879
              3.163927    0.36231203217765
 s    3 1.00
             7.8682724   -0.11933240861517
             1.8812885   -0.16085421161283
             0.5442493     1.1434564825515
 s    1 1.00
             0.1687144                   1
 p    3 1.00
             7.8682724   0.068999095584993
             1.8812885    0.31642397975315
             0.5442493    0.74430825237435
 p    1 1.00
             0.1687144                   1
 d    1 1.00
                   0.8                   1

35 0
 s    3 1.00
             18.731137    0.03349459952309
             2.8253937    0.23472694665786
             0.6401217    0.81375731841339
 s    1 1.00
             0.1612778                   1

36 0
 s    6 1.00
             3047.5249  0.0018347001629433
             457.36951    0.01403730124668
             103.94869   0.068842606114048
             29.210155    0.23218442062076
              9.286663    0.46794134155879
              3.163927    0.36231203217765
 s    3 1.00
             7.8682724   -0.11933240861517
             1.8812885   -0.16085421161283
             0.5442493     1.1434564825515
 s    1 1.00
             0.1687144                   1
 p    3 1.00
             7.8682724   0.068999095584993
             1.8812885    0.31642397975315
             0.5442493    0.74430825237435
 p    1 1.00
             0.1687144                   1
 d    1 1.00
                   0.8                   1

37 0
 s    3 1.00
             18.731137    0.03349459952309
             2.8253937    0.23472694665786
             0.6401217    0.81375731841339
 s    1 1.00
             0.1612778                   1

38 0
 s    3 1.00
             18.731137    0.03349459952309
             2.8253937    0.23472694665786
             0.6401217    0.81375731841339
 s    1 1.00
             0.1612778                   1

39 0
 s    6 1.00
             3047.5249  0.0018347001629433
             457.36951    0.01403730124668
             103.94869   0.068842606114048
             29.210155    0.23218442062076
              9.286663    0.46794134155879
              3.163927    0.36231203217765
 s    3 1.00
             7.8682724   -0.11933240861517
             1.8812885   -0.16085421161283
             0.5442493     1.1434564825515
 s    1 1.00
             0.1687144                   1
 p    3 1.00
             7.8682724   0.068999095584993
             1.8812885    0.31642397975315
             0.5442493    0.74430825237435
 p    1 1.00
             0.1687144                   1
 d    1 1.00
                   0.8                   1

40 0
 s    6 1.00
             3047.5249  0.0018347001629433
             457.36951    0.01403730124668
             103.94869   0.068842606114048
             29.210155    0.23218442062076
              9.286663    0.46794134155879
              3.163927    0.36231203217765
 s    3 1.00
             7.8682724   -0.11933240861517
             1.8812885   -0.16085421161283
             0.5442493     1.1434564825515
 s    1 1.00
             0.1687144                   1
 p    3 1.00
             7.8682724   0.068999095584993
             1.8812885    0.31642397975315
             0.5442493    0.74430825237435
 p    1 1.00
             0.1687144                   1
 d    1 1.00
                   0.8                   1

41 0
 s    3 1.00
             18.731137    0.03349459952309
             2.8253937    0.23472694665786
             0.6401217    0.81375731841339
 s    1 1.00
             0.1612778                   1

42 0
 s    6 1.00
             5484.6717   0.001831099805527
             825.23495   0.013950098518422
             188.04696    0.06844509273075
               52.9645    0.23271427528445
              16.89757    0.47019295006289
             5.7996353    0.35852086192309
 s    3 1.00
             15.539616   -0.11077750382508
             3.5999336   -0.14802630511126
             1.0137618     1.1307670390447
 s    1 1.00
             0.2700058                   1
 p    3 1.00
             15.539616   0.070874299543311
             3.5999336    0.33975279781076
             1.0137618    0.72715859531445
 p    1 1.00
             0.2700058                   1
 d    1 1.00
                   0.8                   1

43 0
 s    3 1.00
             18.731137    0.03349459952309
             2.8253937    0.23472694665786
             0.6401217    0.81375731841339
 s    1 1.00
             0.1612778                   1

[5d]
[7f]
[9g]

[MO]
 Sym= A
 Ene=               0
 Spin= Alpha
 Occup=    1.00000
   1    1.7587575119945e-06
   2    1.8300988404742e-05
   3    1.9967712661154e-05
   4    5.0015993831407e-06
   5    4.7189879972769e-06
   6    -1.3903679636746e-05
   7    -3.8940736792241e-05
   8    -0.00012163611200645
   9    0.00039779872318597
  10    1.3884982167788e-08
  11    -1.1687756715055e-05
  12    -1.6640319203681e-06
  13    -1.4903963898809e-05
  14    8.3623996222863e-06
  15    1.5247623794979e-05
  16    -1.5086771328021e-05
  17    -7.6184666747971e-06
  18    -0.0001723753420695
  19    -0.00045486781117896
  20    -5.9434086460257e-05
  21    7.6793981343634e-06
  22    7.4884251829631e-05
  23    -0.00019468590458104
  24    0.0001131891018886
  25    0.00062841813799887
  26    -2.305048815368e-05
  27    2.5495393243068e-05
  28    -1.331082261549e-05
  29    -4.4731880541067e-05
  30    -1.9807268192517e-07
  31    1.1717476745092e-05
  32    -3.6006760185618e-05
  33    -5.5282219588411e-05
  34    -0.00037153880985201
  35    0.0046534575963492
  36    9.9616175189303e-05
  37    -1.9717277338735e-05
  38    -0.00015459064437963
  39    0.00062423507172763
  40    -0.0020251908229967
  41    -0.00048414700671149
  42    1.9963057371734e-05
  43    -0.00011746610784061
  44    6.5785685718999e-05
  45    -2.4810358497358e-05
  46    -6.5565055866194e-05
  47    1.9107906685361e-05
  48    0.00029481784983736
  49    -4.9696230137533e-06
  50    -0.00012659607428757
  51    -0.0037449630811018
  52    -0.00020276118930983
  53    0.0002380109621329
  54    0.00024394828526747
  55    0.0019730654457996
  56    -0.0027134357144851
  57    -0.0022835090167542
  58    3.3456070425235e-05
  59    -3.4936384722992e-05
  60    -0.00020220158377998
  61    -3.4592143923193e-05
  62    0.00012632399319371
  63    -0.0003078342945766
  64    -8.6100054280339e-05
  65    2.2953654603318e-07
  66    3.1897175121209e-07
  67    4.4592174981064e-08
  68    6.1624018922987e-07
  69    -3.0127790327128e-06
  70    -2.4767250015929e-07
  71    3.6088623132538e-07
  72    -1.4581761349349e-07
  73    -2.8740003246256e-07
  74    -1.7958684354729e-06
  75    -3.4532795277443e-08
  76    6.0714723116416e-08
  77    1.3139505234794e-07
  78    -5.1061534580313e-08
  79    -7.5087311562829e-08
  80    1.1390173138459e-07
  81    -1.0120951040702e-07
  82    -2.2225982117738e-07
  83    -2.1680171274978e-08
  84    2.3437495196708e-07
  85    1.4821968612817e-05
  86    -7.0570116021956e-07
  87    -4.6345779772744e-08
  88    -9.7677350574891e-07
  89    -3.6080436569331e-06
  90    5.1083950473064e-06
  91    -3.670113406909e-06
  92    -1.8776829027831e-07
  93    3.0128208793984e-07
  94    -3.8461783321501e-07
  95    -5.1247795587651e-08
  96    1.7500501380895e-07
  97    -7.1942991882041e-07
  98    -9.0095166604926e-07
  99    1.1750689719835e-08
 100    1.1563692825589e-06
 101    6.1828994791465e-08
 102    8.9794574154078e-07
 103    -1.4226222574993e-05
 104    -2.6238773104943e-07
 105    1.0277567279331e-06
 106    6.9225165784176e-07
 107    2.0901690032547e-05
 108    -1.9349754432065e-05
 109    -3.3917708363836e-05
 110    6.4097154483069e-07
 111    5.9610207456417e-07
 112    -2.5353187651515e-07
 113    -3.4319058538985e-07
 114    5.5517649067698e-07
 115    5.222962902451e-07
 116    4.785623049739e-06
 117    -3.9362218358878e-05
 118    7.261501737005e-07
 119    -1.0760242023506e-06
 120    -9.3276645582772e-07
 121    9.2234448120556e-06
 122    -1.3762755504456e-06
 123    -3.2056890380212e-06
 124    9.0918249601193e-08
 125    2.6669924896892e-07
 126    1.2766494456238e-07
 127    -1.2950508950485e-07
 128    4.0256384851694e-07
 129    1.0391193345411e-06
 130    9.3948416401634e-06
 131    -5.6612601086088e-05
 132    -1.9531862868918e-07
 133    1.8628942196728e-07
 134    -3.7087299742262e-06
 135    2.6023774498683e-05
 136    -1.467666089789e-07
 137    8.9298449458042e-05
 138    -2.7001806793431e-06
 139    -1.7250294254343e-06
 140    -2.5493472673729e-07
 141    -4.5521249679229e-07
 142    -6.2282091171012e-08
 143    4.7119364437612e-07
 144    4.3801971118942e-06
 145    -2.241346872246e-05
 146    -2.3595681418761e-07
 147    -5.0009039291167e-07
 148    -4.2949861311744e-07
 149    -1.3398393468043e-05
 150    6.8140598070277e-06
 151    3.5669449653508e-06
 152    1.0744029312388e-06
 153    4.207925442333e-07
 154    1.2906793457615e-07
 155    -7.809214582249e-07
 156    8.2693406891978e-07
 157    -1.1433652419865e-07
 158    -9.2517510627125e-07
 159    -3.8785212427984e-07
 160    -7.5151317342849e-07
 161    8.5703939835536e-08
 162    1.1411282303054e-07
 163    6.9040188942963e-06
 164    -3.1767190720706e-07
 165    -8.974541420024e-07
 166    -5.0364454290557e-07
 167    2.0286963975576e-07
 168    -2.1245099181682e-08
 169    1.2022050357581e-07
 170    -3.2753556615112e-07
 171    -2.5945894714301e-08
 172    4.4699489478781e-07
 173    1.5346484110704e-06
 174     6.75024577062e-07
 175    1.7520429940845e-07
 176    -8.111942717116e-07
 177    3.9096492101374e-07
 178    -1.8688841843738e-06
 179    1.819805446683e-06
 180    -1.4928827822933e-07
 181    -2.3053655536288e-07
 182    -4.188858726943e-08
 183    4.1295536409553e-07
 184    -1.946779228651e-07
 185    3.174042186457e-07
 186    3.2489666346148e-06
 187    -2.0859662507669e-06
 188    2.3513913108374e-07
 189    -1.4552934391087e-07
 190    -1.2635161332184e-06
 191    -2.3853049962679e-06
 192    -8.2793513472837e-07
 193    5.8802723764022e-06
 194    -3.249907044368e-07
 195    4.2751594589223e-08
 196    -2.0824457802126e-07
 197    -9.8792943530011e-08
 198    9.9842711786518e-08
 199    7.8306693788102e-07
 200    1.2718880696346e-06
 201    -5.9657390804784e-08
 202    -3.566862474656e-06
 203    1.7790250356502e-06
 204    1.9004873921426e-06
 205    3.3828019730194e-07
 206    2.560383251197e-06
 207    -1.182400088195e-06
 208    1.2065195570271e-05
 209    -1.2025197862652e-06
 210    4.6576137315825e-06
 211    -5.4420787724818e-07
 212    -3.0728905122979e-06
 213    2.4501641242584e-07
 214    2.3076471625273e-06
 215    5.1682988533813e-07
 216    -7.185656964766e-07
 217    -2.8954266992016e-07
 218    -8.2501184058054e-07
 219    -3.0337298894229e-07
 220    -1.2131563154014e-06
 221    7.9577727686154e-07
 222    8.6689419323614e-06
 223    9.4152474223445e-06
 224    -4.9634407905215e-07
 225    9.6283597563199e-07
 226    -4.0123470760361e-06
 227    -1.1496225206385e-05
 228    -2.9473427649411e-05
 229    0.00010400275835313
 230    1.2108137873438e-06
 231    4.4662898547475e-06
 232    2.0770809346006e-06
 233    -1.9862982956648e-06
 234    -2.9940726388064e-06
 235    1.1069855440501e-06
 236    1.1615582352855e-05
 237    -2.2831364642495e-05
 238    9.1488320753801e-07
 239    -3.135205746504e-06
 240    -4.6603322260675e-06
 241    2.3024270718887e-05
 242    8.2634802698641e-06
 243    9.359425038482e-05
 244    -1.5014676965261e-06
 245    -7.2439061481952e-06
 246    -1.9671067749752e-06
 247    -2.825177527019e-06
 248    -1.4270511688308e-06
 249    4.5970047500776e-06
 250    -1.1419558914614e-05
 251    4.2852423835035e-06
 252    3.5092034510544e-05
 253    -0.00028372648533881
 254    -2.5092193146603e-06
 255     1.01871572648e-05
 256    -8.196594290072e-06
 257    -0.00012157469237361
 258    -0.00010480789529413
 259    0.00026317352395042
 260    -2.6526607731554e-06
 261    1.318821054924e-05
 262    5.6944013723149e-06
 263    -8.4764492676258e-06
 264    -5.7205162000875e-06
 265    4.6016448906865e-06
 266    -3.0054212678835e-05
 267    9.086527452814e-06
 268    -4.0655111226442e-05
 269    5.5127597261852e-05
 270    0.00014015051987546
 271    -0.0032878376879181
 272    -3.1688367315348e-05
 273    0.0001981933719952
 274    -1.8584325494463e-07
 275    -0.0022690604484955
 276    -0.00062245565379009
 277    0.0034981100972767
 278    -0.00021248587508493
 279    0.00023266205135157