[Molden Format]
made by pyscf v[2.0.1]
[Atoms] (AU)
C   1   6     0.69100024066471     0.64692934207205    -3.48223131169301
H   2   1     2.68052439830868     1.13355088658700    -3.25784032593313
C   3   6    -0.36286361513219     0.85440132524594    -5.97030179418974
H   4   1    -2.35448549047279     0.36322488579172    -6.17995817793143
C   5   6     0.93697958957450     1.61209284601821    -8.05828437677121
H   6   1     0.96138501035509     3.61074187827952    -8.55401536893531
C   7   6     2.29833572157337    -0.09037665740906    -9.67215882917863
H   8   1     2.25763405404964    -2.08692321364337    -9.15074973557782
H   9   1     1.55630230933075    -1.92953025305990    12.99630010416247
C   10   6     0.75233899775814    -2.21270439606481    11.10705728102219
H   11   1    -0.43433408177274    -3.90944857546550    11.22216085340412
C   12   6     2.86362581178706    -2.63237380607947     9.17926416456045
H   13   1     4.39038949912609    -1.24955421540245     9.49899813497433
H   14   1     3.74629220191363    -4.48798724300892     9.47414880959024
C   15   6     2.02478325613682    -2.42177285709634     6.44560829588644
C   16   6     3.88048732735477    -3.58795445234514     4.61402886975252
C   17   6    -0.18412382258602    -1.30464291234259     5.76021113872346
C   18   6    -2.10044360464350    -0.26837831858460     7.71610340967100
C   19   6    -3.08956938670431     2.35282328359417     6.88693925039594
C   20   6    -4.37372924086464    -2.09766595989678     7.93610724222001
C   21   6    -0.83850430601230     0.06372213486173    10.33002307638377
H   22   1     0.38411922151109     1.74281358582432    10.27380136542181
H   23   1    -2.30980003007874     0.45460143924521    11.73986301809809
H   24   1     4.58527064644668    -5.38706904487420     5.36778158031719
H   25   1     5.54944938085014    -2.37631462192748     4.35398898413318
H   26   1     3.06633019150423    -3.94118377050688     2.75255466040884
H   27   1    -4.17727778763735     2.26573369139522     5.12914900961283
H   28   1    -1.52662344944051     3.68001877445626     6.59540397144508
H   29   1    -4.32916174397830     3.13643051467482     8.35225460090378
H   30   1    -5.32329548508442    -2.36691813602939     6.11583672749896
H   31   1    -5.77989366602257    -1.33896741843465     9.25748940450990
H   32   1    -3.79310905208926    -3.96389819310853     8.61386170102686
C   33   6    -1.01100794811226    -1.06331657314144     3.11929490449947
C   34   6     0.37686231036534    -0.33275864505552     1.09165013605873
H   35   1    -3.01671213906703    -1.40297922279997     2.77827895090944
C   36   6    -0.64382707979370    -0.11591880174385    -1.42063131251064
H   37   1     2.35569259782137     0.17174499283897     1.33641070251401
H   38   1    -2.63317482980319    -0.60229203511219    -1.66119700387645
C   39   6     3.61506927759443     0.57708357993929   -11.76916696671870
C   40   6     4.94068653136927    -1.30276865816170   -13.29098070185656
H   41   1     3.73162541044975     2.53269508104841   -12.39347992177894
O   42   8     6.15625203764207    -0.83635548426311   -15.19510343410387
H   43   1     4.77073908343657    -3.27989237609552   -12.58226454806003
[GTO]
1 0
 s    6 1.00
             3047.5249  0.0018347001629433
             457.36951    0.01403730124668
             103.94869   0.068842606114048
             29.210155    0.23218442062076
              9.286663    0.46794134155879
              3.163927    0.36231203217765
 s    3 1.00
             7.8682724   -0.11933240861517
             1.8812885   -0.16085421161283
             0.5442493     1.1434564825515
 s    1 1.00
             0.1687144                   1
 p    3 1.00
             7.8682724   0.068999095584993
             1.8812885    0.31642397975315
             0.5442493    0.74430825237435
 p    1 1.00
             0.1687144                   1
 d    1 1.00
                   0.8                   1

2 0
 s    3 1.00
             18.731137    0.03349459952309
             2.8253937    0.23472694665786
             0.6401217    0.81375731841339
 s    1 1.00
             0.1612778                   1

3 0
 s    6 1.00
             3047.5249  0.0018347001629433
             457.36951    0.01403730124668
             103.94869   0.068842606114048
             29.210155    0.23218442062076
              9.286663    0.46794134155879
              3.163927    0.36231203217765
 s    3 1.00
             7.8682724   -0.11933240861517
             1.8812885   -0.16085421161283
             0.5442493     1.1434564825515
 s    1 1.00
             0.1687144                   1
 p    3 1.00
             7.8682724   0.068999095584993
             1.8812885    0.31642397975315
             0.5442493    0.74430825237435
 p    1 1.00
             0.1687144                   1
 d    1 1.00
                   0.8                   1

4 0
 s    3 1.00
             18.731137    0.03349459952309
             2.8253937    0.23472694665786
             0.6401217    0.81375731841339
 s    1 1.00
             0.1612778                   1

5 0
 s    6 1.00
             3047.5249  0.0018347001629433
             457.36951    0.01403730124668
             103.94869   0.068842606114048
             29.210155    0.23218442062076
              9.286663    0.46794134155879
              3.163927    0.36231203217765
 s    3 1.00
             7.8682724   -0.11933240861517
             1.8812885   -0.16085421161283
             0.5442493     1.1434564825515
 s    1 1.00
             0.1687144                   1
 p    3 1.00
             7.8682724   0.068999095584993
             1.8812885    0.31642397975315
             0.5442493    0.74430825237435
 p    1 1.00
             0.1687144                   1
 d    1 1.00
                   0.8                   1

6 0
 s    3 1.00
             18.731137    0.03349459952309
             2.8253937    0.23472694665786
             0.6401217    0.81375731841339
 s    1 1.00
             0.1612778                   1

7 0
 s    6 1.00
             3047.5249  0.0018347001629433
             457.36951    0.01403730124668
             103.94869   0.068842606114048
             29.210155    0.23218442062076
              9.286663    0.46794134155879
              3.163927    0.36231203217765
 s    3 1.00
             7.8682724   -0.11933240861517
             1.8812885   -0.16085421161283
             0.5442493     1.1434564825515
 s    1 1.00
             0.1687144                   1
 p    3 1.00
             7.8682724   0.068999095584993
             1.8812885    0.31642397975315
             0.5442493    0.74430825237435
 p    1 1.00
             0.1687144                   1
 d    1 1.00
                   0.8                   1

8 0
 s    3 1.00
             18.731137    0.03349459952309
             2.8253937    0.23472694665786
             0.6401217    0.81375731841339
 s    1 1.00
             0.1612778                   1

9 0
 s    3 1.00
             18.731137    0.03349459952309
             2.8253937    0.23472694665786
             0.6401217    0.81375731841339
 s    1 1.00
             0.1612778                   1

10 0
 s    6 1.00
             3047.5249  0.0018347001629433
             457.36951    0.01403730124668
             103.94869   0.068842606114048
             29.210155    0.23218442062076
              9.286663    0.46794134155879
              3.163927    0.36231203217765
 s    3 1.00
             7.8682724   -0.11933240861517
             1.8812885   -0.16085421161283
             0.5442493     1.1434564825515
 s    1 1.00
             0.1687144                   1
 p    3 1.00
             7.8682724   0.068999095584993
             1.8812885    0.31642397975315
             0.5442493    0.74430825237435
 p    1 1.00
             0.1687144                   1
 d    1 1.00
                   0.8                   1

11 0
 s    3 1.00
             18.731137    0.03349459952309
             2.8253937    0.23472694665786
             0.6401217    0.81375731841339
 s    1 1.00
             0.1612778                   1

12 0
 s    6 1.00
             3047.5249  0.0018347001629433
             457.36951    0.01403730124668
             103.94869   0.068842606114048
             29.210155    0.23218442062076
              9.286663    0.46794134155879
              3.163927    0.36231203217765
 s    3 1.00
             7.8682724   -0.11933240861517
             1.8812885   -0.16085421161283
             0.5442493     1.1434564825515
 s    1 1.00
             0.1687144                   1
 p    3 1.00
             7.8682724   0.068999095584993
             1.8812885    0.31642397975315
             0.5442493    0.74430825237435
 p    1 1.00
             0.1687144                   1
 d    1 1.00
                   0.8                   1

13 0
 s    3 1.00
             18.731137    0.03349459952309
             2.8253937    0.23472694665786
             0.6401217    0.81375731841339
 s    1 1.00
             0.1612778                   1

14 0
 s    3 1.00
             18.731137    0.03349459952309
             2.8253937    0.23472694665786
             0.6401217    0.81375731841339
 s    1 1.00
             0.1612778                   1

15 0
 s    6 1.00
             3047.5249  0.0018347001629433
             457.36951    0.01403730124668
             103.94869   0.068842606114048
             29.210155    0.23218442062076
              9.286663    0.46794134155879
              3.163927    0.36231203217765
 s    3 1.00
             7.8682724   -0.11933240861517
             1.8812885   -0.16085421161283
             0.5442493     1.1434564825515
 s    1 1.00
             0.1687144                   1
 p    3 1.00
             7.8682724   0.068999095584993
             1.8812885    0.31642397975315
             0.5442493    0.74430825237435
 p    1 1.00
             0.1687144                   1
 d    1 1.00
                   0.8                   1

16 0
 s    6 1.00
             3047.5249  0.0018347001629433
             457.36951    0.01403730124668
             103.94869   0.068842606114048
             29.210155    0.23218442062076
              9.286663    0.46794134155879
              3.163927    0.36231203217765
 s    3 1.00
             7.8682724   -0.11933240861517
             1.8812885   -0.16085421161283
             0.5442493     1.1434564825515
 s    1 1.00
             0.1687144                   1
 p    3 1.00
             7.8682724   0.068999095584993
             1.8812885    0.31642397975315
             0.5442493    0.74430825237435
 p    1 1.00
             0.1687144                   1
 d    1 1.00
                   0.8                   1

17 0
 s    6 1.00
             3047.5249  0.0018347001629433
             457.36951    0.01403730124668
             103.94869   0.068842606114048
             29.210155    0.23218442062076
              9.286663    0.46794134155879
              3.163927    0.36231203217765
 s    3 1.00
             7.8682724   -0.11933240861517
             1.8812885   -0.16085421161283
             0.5442493     1.1434564825515
 s    1 1.00
             0.1687144                   1
 p    3 1.00
             7.8682724   0.068999095584993
             1.8812885    0.31642397975315
             0.5442493    0.74430825237435
 p    1 1.00
             0.1687144                   1
 d    1 1.00
                   0.8                   1

18 0
 s    6 1.00
             3047.5249  0.0018347001629433
             457.36951    0.01403730124668
             103.94869   0.068842606114048
             29.210155    0.23218442062076
              9.286663    0.46794134155879
              3.163927    0.36231203217765
 s    3 1.00
             7.8682724   -0.11933240861517
             1.8812885   -0.16085421161283
             0.5442493     1.1434564825515
 s    1 1.00
             0.1687144                   1
 p    3 1.00
             7.8682724   0.068999095584993
             1.8812885    0.31642397975315
             0.5442493    0.74430825237435
 p    1 1.00
             0.1687144                   1
 d    1 1.00
                   0.8                   1

19 0
 s    6 1.00
             3047.5249  0.0018347001629433
             457.36951    0.01403730124668
             103.94869   0.068842606114048
             29.210155    0.23218442062076
              9.286663    0.46794134155879
              3.163927    0.36231203217765
 s    3 1.00
             7.8682724   -0.11933240861517
             1.8812885   -0.16085421161283
             0.5442493     1.1434564825515
 s    1 1.00
             0.1687144                   1
 p    3 1.00
             7.8682724   0.068999095584993
             1.8812885    0.31642397975315
             0.5442493    0.74430825237435
 p    1 1.00
             0.1687144                   1
 d    1 1.00
                   0.8                   1

20 0
 s    6 1.00
             3047.5249  0.0018347001629433
             457.36951    0.01403730124668
             103.94869   0.068842606114048
             29.210155    0.23218442062076
              9.286663    0.46794134155879
              3.163927    0.36231203217765
 s    3 1.00
             7.8682724   -0.11933240861517
             1.8812885   -0.16085421161283
             0.5442493     1.1434564825515
 s    1 1.00
             0.1687144                   1
 p    3 1.00
             7.8682724   0.068999095584993
             1.8812885    0.31642397975315
             0.5442493    0.74430825237435
 p    1 1.00
             0.1687144                   1
 d    1 1.00
                   0.8                   1

21 0
 s    6 1.00
             3047.5249  0.0018347001629433
             457.36951    0.01403730124668
             103.94869   0.068842606114048
             29.210155    0.23218442062076
              9.286663    0.46794134155879
              3.163927    0.36231203217765
 s    3 1.00
             7.8682724   -0.11933240861517
             1.8812885   -0.16085421161283
             0.5442493     1.1434564825515
 s    1 1.00
             0.1687144                   1
 p    3 1.00
             7.8682724   0.068999095584993
             1.8812885    0.31642397975315
             0.5442493    0.74430825237435
 p    1 1.00
             0.1687144                   1
 d    1 1.00
                   0.8                   1

22 0
 s    3 1.00
             18.731137    0.03349459952309
             2.8253937    0.23472694665786
             0.6401217    0.81375731841339
 s    1 1.00
             0.1612778                   1

23 0
 s    3 1.00
             18.731137    0.03349459952309
             2.8253937    0.23472694665786
             0.6401217    0.81375731841339
 s    1 1.00
             0.1612778                   1

24 0
 s    3 1.00
             18.731137    0.03349459952309
             2.8253937    0.23472694665786
             0.6401217    0.81375731841339
 s    1 1.00
             0.1612778                   1

25 0
 s    3 1.00
             18.731137    0.03349459952309
             2.8253937    0.23472694665786
             0.6401217    0.81375731841339
 s    1 1.00
             0.1612778                   1

26 0
 s    3 1.00
             18.731137    0.03349459952309
             2.8253937    0.23472694665786
             0.6401217    0.81375731841339
 s    1 1.00
             0.1612778                   1

27 0
 s    3 1.00
             18.731137    0.03349459952309
             2.8253937    0.23472694665786
             0.6401217    0.81375731841339
 s    1 1.00
             0.1612778                   1

28 0
 s    3 1.00
             18.731137    0.03349459952309
             2.8253937    0.23472694665786
             0.6401217    0.81375731841339
 s    1 1.00
             0.1612778                   1

29 0
 s    3 1.00
             18.731137    0.03349459952309
             2.8253937    0.23472694665786
             0.6401217    0.81375731841339
 s    1 1.00
             0.1612778                   1

30 0
 s    3 1.00
             18.731137    0.03349459952309
             2.8253937    0.23472694665786
             0.6401217    0.81375731841339
 s    1 1.00
             0.1612778                   1

31 0
 s    3 1.00
             18.731137    0.03349459952309
             2.8253937    0.23472694665786
             0.6401217    0.81375731841339
 s    1 1.00
             0.1612778                   1

32 0
 s    3 1.00
             18.731137    0.03349459952309
             2.8253937    0.23472694665786
             0.6401217    0.81375731841339
 s    1 1.00
             0.1612778                   1

33 0
 s    6 1.00
             3047.5249  0.0018347001629433
             457.36951    0.01403730124668
             103.94869   0.068842606114048
             29.210155    0.23218442062076
              9.286663    0.46794134155879
              3.163927    0.36231203217765
 s    3 1.00
             7.8682724   -0.11933240861517
             1.8812885   -0.16085421161283
             0.5442493     1.1434564825515
 s    1 1.00
             0.1687144                   1
 p    3 1.00
             7.8682724   0.068999095584993
             1.8812885    0.31642397975315
             0.5442493    0.74430825237435
 p    1 1.00
             0.1687144                   1
 d    1 1.00
                   0.8                   1

34 0
 s    6 1.00
             3047.5249  0.0018347001629433
             457.36951    0.01403730124668
             103.94869   0.068842606114048
             29.210155    0.23218442062076
              9.286663    0.46794134155879
              3.163927    0.36231203217765
 s    3 1.00
             7.8682724   -0.11933240861517
             1.8812885   -0.16085421161283
             0.5442493     1.1434564825515
 s    1 1.00
             0.1687144                   1
 p    3 1.00
             7.8682724   0.068999095584993
             1.8812885    0.31642397975315
             0.5442493    0.74430825237435
 p    1 1.00
             0.1687144                   1
 d    1 1.00
                   0.8                   1

35 0
 s    3 1.00
             18.731137    0.03349459952309
             2.8253937    0.23472694665786
             0.6401217    0.81375731841339
 s    1 1.00
             0.1612778                   1

36 0
 s    6 1.00
             3047.5249  0.0018347001629433
             457.36951    0.01403730124668
             103.94869   0.068842606114048
             29.210155    0.23218442062076
              9.286663    0.46794134155879
              3.163927    0.36231203217765
 s    3 1.00
             7.8682724   -0.11933240861517
             1.8812885   -0.16085421161283
             0.5442493     1.1434564825515
 s    1 1.00
             0.1687144                   1
 p    3 1.00
             7.8682724   0.068999095584993
             1.8812885    0.31642397975315
             0.5442493    0.74430825237435
 p    1 1.00
             0.1687144                   1
 d    1 1.00
                   0.8                   1

37 0
 s    3 1.00
             18.731137    0.03349459952309
             2.8253937    0.23472694665786
             0.6401217    0.81375731841339
 s    1 1.00
             0.1612778                   1

38 0
 s    3 1.00
             18.731137    0.03349459952309
             2.8253937    0.23472694665786
             0.6401217    0.81375731841339
 s    1 1.00
             0.1612778                   1

39 0
 s    6 1.00
             3047.5249  0.0018347001629433
             457.36951    0.01403730124668
             103.94869   0.068842606114048
             29.210155    0.23218442062076
              9.286663    0.46794134155879
              3.163927    0.36231203217765
 s    3 1.00
             7.8682724   -0.11933240861517
             1.8812885   -0.16085421161283
             0.5442493     1.1434564825515
 s    1 1.00
             0.1687144                   1
 p    3 1.00
             7.8682724   0.068999095584993
             1.8812885    0.31642397975315
             0.5442493    0.74430825237435
 p    1 1.00
             0.1687144                   1
 d    1 1.00
                   0.8                   1

40 0
 s    6 1.00
             3047.5249  0.0018347001629433
             457.36951    0.01403730124668
             103.94869   0.068842606114048
             29.210155    0.23218442062076
              9.286663    0.46794134155879
              3.163927    0.36231203217765
 s    3 1.00
             7.8682724   -0.11933240861517
             1.8812885   -0.16085421161283
             0.5442493     1.1434564825515
 s    1 1.00
             0.1687144                   1
 p    3 1.00
             7.8682724   0.068999095584993
             1.8812885    0.31642397975315
             0.5442493    0.74430825237435
 p    1 1.00
             0.1687144                   1
 d    1 1.00
                   0.8                   1

41 0
 s    3 1.00
             18.731137    0.03349459952309
             2.8253937    0.23472694665786
             0.6401217    0.81375731841339
 s    1 1.00
             0.1612778                   1

42 0
 s    6 1.00
             5484.6717   0.001831099805527
             825.23495   0.013950098518422
             188.04696    0.06844509273075
               52.9645    0.23271427528445
              16.89757    0.47019295006289
             5.7996353    0.35852086192309
 s    3 1.00
             15.539616   -0.11077750382508
             3.5999336   -0.14802630511126
             1.0137618     1.1307670390447
 s    1 1.00
             0.2700058                   1
 p    3 1.00
             15.539616   0.070874299543311
             3.5999336    0.33975279781076
             1.0137618    0.72715859531445
 p    1 1.00
             0.2700058                   1
 d    1 1.00
                   0.8                   1

43 0
 s    3 1.00
             18.731137    0.03349459952309
             2.8253937    0.23472694665786
             0.6401217    0.81375731841339
 s    1 1.00
             0.1612778                   1

[5d]
[7f]
[9g]

[MO]
 Sym= A
 Ene=               0
 Spin= Alpha
 Occup=    1.00000
   1     0.020942741518337
   2    -0.00082092131758241
   3    0.0068594365065214
   4    0.00037311420612798
   5    -0.00014069270859952
   6    0.0011571845111083
   7    0.00083131554295731
   8    0.0012901686094251
   9    -0.0054793933993323
  10    -0.00088330856703942
  11    -0.00085839754244811
  12    0.00014529796158108
  13    -0.00020479162585231
  14    4.1054123017449e-05
  15    -0.00049216114306811
  16    -0.00089497497817728
  17      0.99485258654538
  18      0.03685444949152
  19    -0.028454330832599
  20    0.00093388188933685
  21    0.00017750703276742
  22    -0.00056913141980577
  23    -0.0035814168695558
  24    -0.0010844984048948
  25    -0.00079107021232326
  26    0.00076429115936998
  27    -0.00030358736111965
  28    -0.00034494435935364
  29    0.00029892106341194
  30    0.00020442428071947
  31    -0.0011196421232056
  32    0.0038499364311801
  33     0.012200109224051
  34    -0.00028754698490098
  35    0.00097613412408687
  36    0.00083111323329657
  37    0.0003172744038822
  38    -0.0011149673105569
  39     -0.00245677535109
  40    0.0035040460201748
  41     0.003981551425065
  42    -0.00059129344632459
  43    0.0011795262611637
  44    0.00046860100686289
  45    -0.00034861959062613
  46    -0.00036141789739523
  47    -0.00055083160885413
  48    -0.00059621203505904
  49    -0.00026426536587088
  50    -0.00054377740374324
  51    0.0002572512014611
  52    0.00026570739803398
  53    2.7684559134321e-05
  54    -0.00039176512931193
  55    -0.0049771079239473
  56    0.0010787279961782
  57    0.0069147723138656
  58    -0.00015360006487744
  59    -1.8338132535113e-05
  60    0.00014964584759278
  61    -0.00022695285776543
  62    -0.00020470267915076
  63    -0.00047662425042245
  64    0.00024427279478611
  65    -2.617735149977e-06
  66    -4.0727815515391e-06
  67    -8.1983186333439e-08
  68    -1.3726855559808e-06
  69    6.4815208945923e-06
  70    2.0574327663658e-06
  71    -4.4805752242879e-06
  72    -8.0066900079279e-08
  73    1.2880372215261e-05
  74    2.4909859758338e-05
  75    9.1164556945604e-06
  76    -1.2377479109816e-07
  77    -3.1819704900443e-07
  78    3.1389769355418e-07
  79    5.6439462606783e-07
  80    -3.4495100180705e-08
  81    2.4519679667456e-06
  82    1.2621092349843e-05
  83    2.0233958878165e-07
  84    1.1748501917049e-06
  85    -6.6346636970705e-05
  86    3.8131619376797e-06
  87    3.142532289705e-06
  88    5.130111044487e-06
  89    2.3573958580233e-05
  90    -6.2756806266595e-05
  91    7.8643425083645e-06
  92    1.5982695875142e-06
  93    -2.6766960976858e-06
  94    3.7146806228038e-06
  95    -7.0304963698641e-07
  96    -1.0556082203898e-06
  97    6.9741057251446e-06
  98    1.1961798036499e-05
  99    -3.3030953665007e-06
 100    -1.8668863572091e-05
 101    -1.0656142527898e-06
 102    -1.1273417350704e-05
 103    0.00022392696423161
 104    -1.9169832379723e-06
 105    -8.0540489240796e-06
 106    -3.275536525723e-06
 107    -0.00018706494100326
 108    0.00018080098745086
 109    0.00013820929161943
 110    -5.905717610498e-06
 111    -1.9814575418534e-07
 112    5.9440745207491e-08
 113    1.3095737562586e-06
 114    -5.2776506998881e-06
 115    -3.270284990488e-06
 116    -3.2236301385717e-05
 117    0.00023344080051399
 118    -2.2910329088111e-06
 119    2.9135595809597e-06
 120    5.1180591399589e-06
 121    -4.9239313500334e-05
 122    1.2422381448548e-05
 123    2.8992082595204e-05
 124    1.5006569783152e-06
 125    -2.8791427601539e-06
 126    -2.3738613402015e-06
 127    6.9912879280156e-07
 128    -2.1650908571712e-06
 129    -5.3452874352198e-06
 130    -5.1900084764976e-05
 131    0.0001522651550513
 132    5.253761488447e-06
 133    -5.0296618480692e-06
 134    2.1789679295932e-05
 135    -0.00033999953574282
 136    3.6477660370378e-05
 137    -0.00040389544871793
 138    9.1728754052727e-06
 139    1.3210348954482e-05
 140    5.4816691048155e-06
 141    4.429424148515e-06
 142    6.5786853677909e-06
 143    -2.0561412713742e-06
 144    -2.6883972014948e-05
 145    3.1870330199566e-05
 146    2.2131302075242e-06
 147    5.7479346339792e-06
 148    1.2418853118409e-05
 149    1.6048828905757e-05
 150    2.1983070415857e-08
 151    -6.2609427429312e-05
 152    -6.7351034941828e-06
 153    -3.7978651711852e-06
 154    -3.0050042188308e-06
 155    4.1337411495704e-06
 156    -4.0241388000967e-06
 157    1.5273775334861e-06
 158    1.2385348267745e-05
 159    -3.5975583530897e-05
 160    5.8403185297175e-06
 161    -1.2853856612187e-07
 162    -1.4991160353462e-06
 163    -4.870184680636e-05
 164    2.3782803791265e-05
 165    1.0651118147859e-05
 166    4.302193752749e-06
 167    -7.1012295809137e-07
 168    -2.0719685932465e-07
 169    8.0825816694262e-07
 170    1.9102012764033e-06
 171    -4.4555495932916e-07
 172    -1.2127594571528e-05
 173    2.2253780227867e-05
 174    -4.0441886347174e-06
 175    -2.9341394618982e-07
 176    1.0761989794485e-05
 177    -1.3209851209207e-06
 178    -1.4793421846429e-06
 179    -2.5834838176748e-05
 180    1.550616718368e-06
 181    4.6335630880395e-06
 182    8.4158367575944e-07
 183    -1.2119383226989e-06
 184    1.569867416351e-06
 185    -3.2829017426909e-06
 186    -2.8473122041759e-05
 187    8.2188957040821e-05
 188    -2.3866106871083e-06
 189    7.0001526707403e-07
 190    4.9567454864495e-06
 191    -2.5594428292422e-06
 192    -1.3260574684242e-05
 193    -7.0149718602436e-05
 194    3.2055959738337e-06
 195    1.6487694619739e-06
 196    2.6701469126445e-06
 197    -3.0002766770709e-07
 198    3.8643867370954e-07
 199    -7.4315658558063e-06
 200    1.2479592968623e-07
 201    -2.2440453692309e-06
 202    1.9842034473647e-05
 203    -1.107002407711e-05
 204    -5.135032811042e-06
 205    -6.4019853871717e-07
 206    -2.6279624241246e-05
 207    9.3821436877858e-06
 208    -6.1352545560065e-05
 209    1.0722271120901e-05
 210    -2.5798137384589e-05
 211    6.0663782588344e-06
 212    1.7018843588859e-05
 213    -6.787270118398e-07
 214    -2.0700160091722e-05
 215    -2.6486591933039e-06
 216    -2.7740345490432e-05
 217    1.4949552297892e-06
 218    8.7052064904913e-06
 219    4.9986300611734e-07
 220    -1.264810887229e-06
 221    -8.2051544889901e-06
 222    -8.3508704897013e-05
 223    0.00082733903175407
 224    -1.2334162129177e-05
 225    -2.1492033573092e-06
 226    1.2354793501884e-05
 227    0.0006029705304777
 228    0.00029369752501055
 229    -0.00088997063901421
 230    2.0980443693039e-06
 231    -4.1740084093267e-05
 232    -2.0710381239152e-05
 233    2.0881141139942e-05
 234    2.1522436450924e-05
 235    -1.4471269166781e-05
 236    -3.6801005765593e-05
 237    -0.0001933230552222
 238    -2.0252591620423e-05
 239    -1.6297021518841e-06
 240    1.0785097636324e-05
 241    0.00027232441915445
 242    0.00033034611182591
 243    -0.0014648508387997
 244    9.3221378696104e-06
 245    6.7185977734533e-05
 246    1.233783158854e-05
 247    1.8380013618057e-05
 248    -1.8655227134706e-06
 249    -3.3248761417014e-05
 250    0.0002941461158346
 251    -2.4557587764996e-05
 252    -0.00039327067366155
 253    0.0020769101037314
 254    6.9616580526151e-05
 255    -3.223746054748e-05
 256    0.0002186358005977
 257    -1.2890235044111e-05
 258    0.00037312406776644
 259    -0.0017421636070817
 260    -5.7817197733961e-05
 261    -1.5221084733043e-05
 262    -1.3854817806853e-05
 263    0.00013280780264786
 264    7.8455126304346e-05
 265    -8.6843583762879e-05
 266    0.00019278525260978
 267    -0.00013482245804195
 268    -0.00050294610977942
 269    -7.5459954134967e-05
 270    -0.00050345950435035
 271    0.0066929364414971
 272    -7.5903223390113e-05
 273    0.00011122828306115
 274    0.00012153071871825
 275    -0.0014402789401605
 276    -0.0027404349488826
 277    0.0027069481729308
 278    8.2808154623842e-05
 279    -0.00017219698516488
 280    -9.5675609403314e-05