[Molden Format]
made by pyscf v[2.0.1]
[Atoms] (AU)
C   1   6     0.69100024066471     0.64692934207205    -3.48223131169301
H   2   1     2.68052439830868     1.13355088658700    -3.25784032593313
C   3   6    -0.36286361513219     0.85440132524594    -5.97030179418974
H   4   1    -2.35448549047279     0.36322488579172    -6.17995817793143
C   5   6     0.93697958957450     1.61209284601821    -8.05828437677121
H   6   1     0.01358296644616     2.85086245433209    -9.41980240085128
C   7   6     3.49095983212942     0.86501358647737    -8.58301400036413
H   8   1     4.39173101664678    -0.37544723242066    -7.20113468241566
H   9   1     1.55630230933075    -1.92953025305990    12.99630010416247
C   10   6     0.75233899775814    -2.21270439606481    11.10705728102219
H   11   1    -0.43433408177274    -3.90944857546550    11.22216085340412
C   12   6     2.86362581178706    -2.63237380607947     9.17926416456045
H   13   1     4.39038949912609    -1.24955421540245     9.49899813497433
H   14   1     3.74629220191363    -4.48798724300892     9.47414880959024
C   15   6     2.02478325613682    -2.42177285709634     6.44560829588644
C   16   6     3.88048732735477    -3.58795445234514     4.61402886975252
C   17   6    -0.18412382258602    -1.30464291234259     5.76021113872346
C   18   6    -2.10044360464350    -0.26837831858460     7.71610340967100
C   19   6    -3.08956938670431     2.35282328359417     6.88693925039594
C   20   6    -4.37372924086464    -2.09766595989678     7.93610724222001
C   21   6    -0.83850430601230     0.06372213486173    10.33002307638377
H   22   1     0.38411922151109     1.74281358582432    10.27380136542181
H   23   1    -2.30980003007874     0.45460143924521    11.73986301809809
H   24   1     4.58527064644668    -5.38706904487420     5.36778158031719
H   25   1     5.54944938085014    -2.37631462192748     4.35398898413318
H   26   1     3.06633019150423    -3.94118377050688     2.75255466040884
H   27   1    -4.17727778763735     2.26573369139522     5.12914900961283
H   28   1    -1.52662344944051     3.68001877445626     6.59540397144508
H   29   1    -4.32916174397830     3.13643051467482     8.35225460090378
H   30   1    -5.32329548508442    -2.36691813602939     6.11583672749896
H   31   1    -5.77989366602257    -1.33896741843465     9.25748940450990
H   32   1    -3.79310905208926    -3.96389819310853     8.61386170102686
C   33   6    -1.01100794811226    -1.06331657314144     3.11929490449947
C   34   6     0.37686231036534    -0.33275864505552     1.09165013605873
H   35   1    -3.01671213906703    -1.40297922279997     2.77827895090944
C   36   6    -0.64382707979370    -0.11591880174385    -1.42063131251064
H   37   1     2.35569259782137     0.17174499283897     1.33641070251401
H   38   1    -2.63317482980319    -0.60229203511219    -1.66119700387645
C   39   6     4.85727779250226     1.56932506344372   -10.63578143211247
C   40   6     7.45078580641309     0.70440198785573   -10.99998857146552
H   41   1     4.07326566832422     2.80126406203857   -12.08333786763668
O   42   8     8.78463246786107     1.26137953491899   -12.79761289932761
H   43   1     8.17650804893433    -0.55247504818230    -9.47232163774676
[GTO]
1 0
 s    6 1.00
             3047.5249  0.0018347001629433
             457.36951    0.01403730124668
             103.94869   0.068842606114048
             29.210155    0.23218442062076
              9.286663    0.46794134155879
              3.163927    0.36231203217765
 s    3 1.00
             7.8682724   -0.11933240861517
             1.8812885   -0.16085421161283
             0.5442493     1.1434564825515
 s    1 1.00
             0.1687144                   1
 p    3 1.00
             7.8682724   0.068999095584993
             1.8812885    0.31642397975315
             0.5442493    0.74430825237435
 p    1 1.00
             0.1687144                   1
 d    1 1.00
                   0.8                   1

2 0
 s    3 1.00
             18.731137    0.03349459952309
             2.8253937    0.23472694665786
             0.6401217    0.81375731841339
 s    1 1.00
             0.1612778                   1

3 0
 s    6 1.00
             3047.5249  0.0018347001629433
             457.36951    0.01403730124668
             103.94869   0.068842606114048
             29.210155    0.23218442062076
              9.286663    0.46794134155879
              3.163927    0.36231203217765
 s    3 1.00
             7.8682724   -0.11933240861517
             1.8812885   -0.16085421161283
             0.5442493     1.1434564825515
 s    1 1.00
             0.1687144                   1
 p    3 1.00
             7.8682724   0.068999095584993
             1.8812885    0.31642397975315
             0.5442493    0.74430825237435
 p    1 1.00
             0.1687144                   1
 d    1 1.00
                   0.8                   1

4 0
 s    3 1.00
             18.731137    0.03349459952309
             2.8253937    0.23472694665786
             0.6401217    0.81375731841339
 s    1 1.00
             0.1612778                   1

5 0
 s    6 1.00
             3047.5249  0.0018347001629433
             457.36951    0.01403730124668
             103.94869   0.068842606114048
             29.210155    0.23218442062076
              9.286663    0.46794134155879
              3.163927    0.36231203217765
 s    3 1.00
             7.8682724   -0.11933240861517
             1.8812885   -0.16085421161283
             0.5442493     1.1434564825515
 s    1 1.00
             0.1687144                   1
 p    3 1.00
             7.8682724   0.068999095584993
             1.8812885    0.31642397975315
             0.5442493    0.74430825237435
 p    1 1.00
             0.1687144                   1
 d    1 1.00
                   0.8                   1

6 0
 s    3 1.00
             18.731137    0.03349459952309
             2.8253937    0.23472694665786
             0.6401217    0.81375731841339
 s    1 1.00
             0.1612778                   1

7 0
 s    6 1.00
             3047.5249  0.0018347001629433
             457.36951    0.01403730124668
             103.94869   0.068842606114048
             29.210155    0.23218442062076
              9.286663    0.46794134155879
              3.163927    0.36231203217765
 s    3 1.00
             7.8682724   -0.11933240861517
             1.8812885   -0.16085421161283
             0.5442493     1.1434564825515
 s    1 1.00
             0.1687144                   1
 p    3 1.00
             7.8682724   0.068999095584993
             1.8812885    0.31642397975315
             0.5442493    0.74430825237435
 p    1 1.00
             0.1687144                   1
 d    1 1.00
                   0.8                   1

8 0
 s    3 1.00
             18.731137    0.03349459952309
             2.8253937    0.23472694665786
             0.6401217    0.81375731841339
 s    1 1.00
             0.1612778                   1

9 0
 s    3 1.00
             18.731137    0.03349459952309
             2.8253937    0.23472694665786
             0.6401217    0.81375731841339
 s    1 1.00
             0.1612778                   1

10 0
 s    6 1.00
             3047.5249  0.0018347001629433
             457.36951    0.01403730124668
             103.94869   0.068842606114048
             29.210155    0.23218442062076
              9.286663    0.46794134155879
              3.163927    0.36231203217765
 s    3 1.00
             7.8682724   -0.11933240861517
             1.8812885   -0.16085421161283
             0.5442493     1.1434564825515
 s    1 1.00
             0.1687144                   1
 p    3 1.00
             7.8682724   0.068999095584993
             1.8812885    0.31642397975315
             0.5442493    0.74430825237435
 p    1 1.00
             0.1687144                   1
 d    1 1.00
                   0.8                   1

11 0
 s    3 1.00
             18.731137    0.03349459952309
             2.8253937    0.23472694665786
             0.6401217    0.81375731841339
 s    1 1.00
             0.1612778                   1

12 0
 s    6 1.00
             3047.5249  0.0018347001629433
             457.36951    0.01403730124668
             103.94869   0.068842606114048
             29.210155    0.23218442062076
              9.286663    0.46794134155879
              3.163927    0.36231203217765
 s    3 1.00
             7.8682724   -0.11933240861517
             1.8812885   -0.16085421161283
             0.5442493     1.1434564825515
 s    1 1.00
             0.1687144                   1
 p    3 1.00
             7.8682724   0.068999095584993
             1.8812885    0.31642397975315
             0.5442493    0.74430825237435
 p    1 1.00
             0.1687144                   1
 d    1 1.00
                   0.8                   1

13 0
 s    3 1.00
             18.731137    0.03349459952309
             2.8253937    0.23472694665786
             0.6401217    0.81375731841339
 s    1 1.00
             0.1612778                   1

14 0
 s    3 1.00
             18.731137    0.03349459952309
             2.8253937    0.23472694665786
             0.6401217    0.81375731841339
 s    1 1.00
             0.1612778                   1

15 0
 s    6 1.00
             3047.5249  0.0018347001629433
             457.36951    0.01403730124668
             103.94869   0.068842606114048
             29.210155    0.23218442062076
              9.286663    0.46794134155879
              3.163927    0.36231203217765
 s    3 1.00
             7.8682724   -0.11933240861517
             1.8812885   -0.16085421161283
             0.5442493     1.1434564825515
 s    1 1.00
             0.1687144                   1
 p    3 1.00
             7.8682724   0.068999095584993
             1.8812885    0.31642397975315
             0.5442493    0.74430825237435
 p    1 1.00
             0.1687144                   1
 d    1 1.00
                   0.8                   1

16 0
 s    6 1.00
             3047.5249  0.0018347001629433
             457.36951    0.01403730124668
             103.94869   0.068842606114048
             29.210155    0.23218442062076
              9.286663    0.46794134155879
              3.163927    0.36231203217765
 s    3 1.00
             7.8682724   -0.11933240861517
             1.8812885   -0.16085421161283
             0.5442493     1.1434564825515
 s    1 1.00
             0.1687144                   1
 p    3 1.00
             7.8682724   0.068999095584993
             1.8812885    0.31642397975315
             0.5442493    0.74430825237435
 p    1 1.00
             0.1687144                   1
 d    1 1.00
                   0.8                   1

17 0
 s    6 1.00
             3047.5249  0.0018347001629433
             457.36951    0.01403730124668
             103.94869   0.068842606114048
             29.210155    0.23218442062076
              9.286663    0.46794134155879
              3.163927    0.36231203217765
 s    3 1.00
             7.8682724   -0.11933240861517
             1.8812885   -0.16085421161283
             0.5442493     1.1434564825515
 s    1 1.00
             0.1687144                   1
 p    3 1.00
             7.8682724   0.068999095584993
             1.8812885    0.31642397975315
             0.5442493    0.74430825237435
 p    1 1.00
             0.1687144                   1
 d    1 1.00
                   0.8                   1

18 0
 s    6 1.00
             3047.5249  0.0018347001629433
             457.36951    0.01403730124668
             103.94869   0.068842606114048
             29.210155    0.23218442062076
              9.286663    0.46794134155879
              3.163927    0.36231203217765
 s    3 1.00
             7.8682724   -0.11933240861517
             1.8812885   -0.16085421161283
             0.5442493     1.1434564825515
 s    1 1.00
             0.1687144                   1
 p    3 1.00
             7.8682724   0.068999095584993
             1.8812885    0.31642397975315
             0.5442493    0.74430825237435
 p    1 1.00
             0.1687144                   1
 d    1 1.00
                   0.8                   1

19 0
 s    6 1.00
             3047.5249  0.0018347001629433
             457.36951    0.01403730124668
             103.94869   0.068842606114048
             29.210155    0.23218442062076
              9.286663    0.46794134155879
              3.163927    0.36231203217765
 s    3 1.00
             7.8682724   -0.11933240861517
             1.8812885   -0.16085421161283
             0.5442493     1.1434564825515
 s    1 1.00
             0.1687144                   1
 p    3 1.00
             7.8682724   0.068999095584993
             1.8812885    0.31642397975315
             0.5442493    0.74430825237435
 p    1 1.00
             0.1687144                   1
 d    1 1.00
                   0.8                   1

20 0
 s    6 1.00
             3047.5249  0.0018347001629433
             457.36951    0.01403730124668
             103.94869   0.068842606114048
             29.210155    0.23218442062076
              9.286663    0.46794134155879
              3.163927    0.36231203217765
 s    3 1.00
             7.8682724   -0.11933240861517
             1.8812885   -0.16085421161283
             0.5442493     1.1434564825515
 s    1 1.00
             0.1687144                   1
 p    3 1.00
             7.8682724   0.068999095584993
             1.8812885    0.31642397975315
             0.5442493    0.74430825237435
 p    1 1.00
             0.1687144                   1
 d    1 1.00
                   0.8                   1

21 0
 s    6 1.00
             3047.5249  0.0018347001629433
             457.36951    0.01403730124668
             103.94869   0.068842606114048
             29.210155    0.23218442062076
              9.286663    0.46794134155879
              3.163927    0.36231203217765
 s    3 1.00
             7.8682724   -0.11933240861517
             1.8812885   -0.16085421161283
             0.5442493     1.1434564825515
 s    1 1.00
             0.1687144                   1
 p    3 1.00
             7.8682724   0.068999095584993
             1.8812885    0.31642397975315
             0.5442493    0.74430825237435
 p    1 1.00
             0.1687144                   1
 d    1 1.00
                   0.8                   1

22 0
 s    3 1.00
             18.731137    0.03349459952309
             2.8253937    0.23472694665786
             0.6401217    0.81375731841339
 s    1 1.00
             0.1612778                   1

23 0
 s    3 1.00
             18.731137    0.03349459952309
             2.8253937    0.23472694665786
             0.6401217    0.81375731841339
 s    1 1.00
             0.1612778                   1

24 0
 s    3 1.00
             18.731137    0.03349459952309
             2.8253937    0.23472694665786
             0.6401217    0.81375731841339
 s    1 1.00
             0.1612778                   1

25 0
 s    3 1.00
             18.731137    0.03349459952309
             2.8253937    0.23472694665786
             0.6401217    0.81375731841339
 s    1 1.00
             0.1612778                   1

26 0
 s    3 1.00
             18.731137    0.03349459952309
             2.8253937    0.23472694665786
             0.6401217    0.81375731841339
 s    1 1.00
             0.1612778                   1

27 0
 s    3 1.00
             18.731137    0.03349459952309
             2.8253937    0.23472694665786
             0.6401217    0.81375731841339
 s    1 1.00
             0.1612778                   1

28 0
 s    3 1.00
             18.731137    0.03349459952309
             2.8253937    0.23472694665786
             0.6401217    0.81375731841339
 s    1 1.00
             0.1612778                   1

29 0
 s    3 1.00
             18.731137    0.03349459952309
             2.8253937    0.23472694665786
             0.6401217    0.81375731841339
 s    1 1.00
             0.1612778                   1

30 0
 s    3 1.00
             18.731137    0.03349459952309
             2.8253937    0.23472694665786
             0.6401217    0.81375731841339
 s    1 1.00
             0.1612778                   1

31 0
 s    3 1.00
             18.731137    0.03349459952309
             2.8253937    0.23472694665786
             0.6401217    0.81375731841339
 s    1 1.00
             0.1612778                   1

32 0
 s    3 1.00
             18.731137    0.03349459952309
             2.8253937    0.23472694665786
             0.6401217    0.81375731841339
 s    1 1.00
             0.1612778                   1

33 0
 s    6 1.00
             3047.5249  0.0018347001629433
             457.36951    0.01403730124668
             103.94869   0.068842606114048
             29.210155    0.23218442062076
              9.286663    0.46794134155879
              3.163927    0.36231203217765
 s    3 1.00
             7.8682724   -0.11933240861517
             1.8812885   -0.16085421161283
             0.5442493     1.1434564825515
 s    1 1.00
             0.1687144                   1
 p    3 1.00
             7.8682724   0.068999095584993
             1.8812885    0.31642397975315
             0.5442493    0.74430825237435
 p    1 1.00
             0.1687144                   1
 d    1 1.00
                   0.8                   1

34 0
 s    6 1.00
             3047.5249  0.0018347001629433
             457.36951    0.01403730124668
             103.94869   0.068842606114048
             29.210155    0.23218442062076
              9.286663    0.46794134155879
              3.163927    0.36231203217765
 s    3 1.00
             7.8682724   -0.11933240861517
             1.8812885   -0.16085421161283
             0.5442493     1.1434564825515
 s    1 1.00
             0.1687144                   1
 p    3 1.00
             7.8682724   0.068999095584993
             1.8812885    0.31642397975315
             0.5442493    0.74430825237435
 p    1 1.00
             0.1687144                   1
 d    1 1.00
                   0.8                   1

35 0
 s    3 1.00
             18.731137    0.03349459952309
             2.8253937    0.23472694665786
             0.6401217    0.81375731841339
 s    1 1.00
             0.1612778                   1

36 0
 s    6 1.00
             3047.5249  0.0018347001629433
             457.36951    0.01403730124668
             103.94869   0.068842606114048
             29.210155    0.23218442062076
              9.286663    0.46794134155879
              3.163927    0.36231203217765
 s    3 1.00
             7.8682724   -0.11933240861517
             1.8812885   -0.16085421161283
             0.5442493     1.1434564825515
 s    1 1.00
             0.1687144                   1
 p    3 1.00
             7.8682724   0.068999095584993
             1.8812885    0.31642397975315
             0.5442493    0.74430825237435
 p    1 1.00
             0.1687144                   1
 d    1 1.00
                   0.8                   1

37 0
 s    3 1.00
             18.731137    0.03349459952309
             2.8253937    0.23472694665786
             0.6401217    0.81375731841339
 s    1 1.00
             0.1612778                   1

38 0
 s    3 1.00
             18.731137    0.03349459952309
             2.8253937    0.23472694665786
             0.6401217    0.81375731841339
 s    1 1.00
             0.1612778                   1

39 0
 s    6 1.00
             3047.5249  0.0018347001629433
             457.36951    0.01403730124668
             103.94869   0.068842606114048
             29.210155    0.23218442062076
              9.286663    0.46794134155879
              3.163927    0.36231203217765
 s    3 1.00
             7.8682724   -0.11933240861517
             1.8812885   -0.16085421161283
             0.5442493     1.1434564825515
 s    1 1.00
             0.1687144                   1
 p    3 1.00
             7.8682724   0.068999095584993
             1.8812885    0.31642397975315
             0.5442493    0.74430825237435
 p    1 1.00
             0.1687144                   1
 d    1 1.00
                   0.8                   1

40 0
 s    6 1.00
             3047.5249  0.0018347001629433
             457.36951    0.01403730124668
             103.94869   0.068842606114048
             29.210155    0.23218442062076
              9.286663    0.46794134155879
              3.163927    0.36231203217765
 s    3 1.00
             7.8682724   -0.11933240861517
             1.8812885   -0.16085421161283
             0.5442493     1.1434564825515
 s    1 1.00
             0.1687144                   1
 p    3 1.00
             7.8682724   0.068999095584993
             1.8812885    0.31642397975315
             0.5442493    0.74430825237435
 p    1 1.00
             0.1687144                   1
 d    1 1.00
                   0.8                   1

41 0
 s    3 1.00
             18.731137    0.03349459952309
             2.8253937    0.23472694665786
             0.6401217    0.81375731841339
 s    1 1.00
             0.1612778                   1

42 0
 s    6 1.00
             5484.6717   0.001831099805527
             825.23495   0.013950098518422
             188.04696    0.06844509273075
               52.9645    0.23271427528445
              16.89757    0.47019295006289
             5.7996353    0.35852086192309
 s    3 1.00
             15.539616   -0.11077750382508
             3.5999336   -0.14802630511126
             1.0137618     1.1307670390447
 s    1 1.00
             0.2700058                   1
 p    3 1.00
             15.539616   0.070874299543311
             3.5999336    0.33975279781076
             1.0137618    0.72715859531445
 p    1 1.00
             0.2700058                   1
 d    1 1.00
                   0.8                   1

43 0
 s    3 1.00
             18.731137    0.03349459952309
             2.8253937    0.23472694665786
             0.6401217    0.81375731841339
 s    1 1.00
             0.1612778                   1

[5d]
[7f]
[9g]

[MO]
 Sym= A
 Ene=               0
 Spin= Alpha
 Occup=    1.00000
   1    -0.019302920530641
   2    0.00081774702057075
   3    -0.0073170336138653
   4    -0.00045351876810923
   5    0.00016378611653326
   6    -0.0010712228188186
   7    -0.0002187779916768
   8    -0.0010016490792817
   9    0.0035607257031816
  10    0.00090232503165073
  11    0.00093482121914136
  12    -0.00010537097725583
  13    0.00023600328750255
  14    -5.8249461769344e-05
  15    0.0003879472996143
  16    0.00090454697809247
  17     -0.99448610281209
  18    -0.036209725026767
  19     0.027113479807032
  20    -0.00080956347737609
  21    -0.0002051428955558
  22    0.00016204777801165
  23    0.0031764636439685
  24    0.00084788576641472
  25    0.00049157998179109
  26    -0.0007361365911981
  27    0.00025438615269864
  28    0.00036563351933571
  29    -0.00022292888259335
  30    -0.00023265202487189
  31    0.0011446541703963
  32    -0.0037463247373547
  33    -0.029204305054435
  34      0.00059738748448
  35    -0.0054668608239583
  36    -0.00080732982010968
  37    -0.00041863113776753
  38    0.0012375991037626
  39    0.0019268823122771
  40    -0.0001218065148469
  41    -0.0025857654269952
  42    0.0005359625581571
  43    -0.0010026277893915
  44    -0.00056421834682274
  45    0.0003509725411731
  46    0.00043886562188945
  47    0.00037487275629187
  48    -4.1075140596597e-05
  49    -0.0017383661314381
  50    0.00022659307126765
  51    0.0019812075980574
  52    -0.00028998739104047
  53    -0.0001600457943453
  54    0.00019497272529571
  55    0.0029068674243271
  56    0.0012440050917193
  57    -0.0028669973878368
  58    6.358084648567e-05
  59    -0.00014874444081903
  60    6.3664965193037e-05
  61    -4.9590402771088e-05
  62    0.00013963268756985
  63    0.00030079007240174
  64    0.00013102662570761
  65    1.9713925218987e-06
  66    5.8819484997594e-06
  67    -1.9538828414143e-07
  68    -2.1056402249713e-06
  69    3.7137519506091e-06
  70    -1.9630649140587e-07
  71    2.7237025406556e-06
  72    8.9769946825566e-07
  73    -1.0928340671152e-05
  74    -2.2971991811286e-05
  75    -1.2715448475862e-05
  76    2.3224320317463e-07
  77    -7.3608112826452e-08
  78    1.7779011582996e-07
  79    -1.6368928666443e-07
  80    -1.3648889693888e-07
  81    -2.5337051018013e-06
  82    -1.3198433174274e-05
  83    2.6021831314771e-07
  84    1.2132880315785e-06
  85    2.3024112317995e-05
  86    -1.9881172298562e-06
  87    -3.0453914986673e-06
  88    -1.9098546385929e-06
  89    -4.7705317350912e-06
  90    4.2773184490999e-05
  91    -1.8549498039253e-06
  92    -1.4356780676907e-06
  93    1.1272758152745e-06
  94    -1.8182815120505e-06
  95    2.8080177724584e-07
  96    8.2308753538831e-07
  97    -4.0701433473989e-06
  98    -1.0328965238844e-05
  99    2.9867877752691e-06
 100     1.45930935237e-05
 101    -4.1986679989933e-07
 102    2.7640751929849e-06
 103    -3.6903585228841e-05
 104    8.210091358403e-07
 105    6.8979099957769e-06
 106    -1.5164298254566e-06
 107    7.7856162486596e-05
 108    -9.345461246479e-05
 109    -8.5573494589686e-05
 110    5.9705732070103e-06
 111    6.4925125959838e-07
 112    -1.7415377364528e-07
 113    1.2134179285363e-07
 114    1.6974150148452e-06
 115    2.6969656112677e-06
 116    2.8209623880042e-05
 117    -0.00015947256265581
 118    -1.9632769183149e-07
 119    2.8053296929817e-06
 120    -5.8536463428524e-06
 121    4.0957922542513e-05
 122    -3.188631334411e-05
 123    -1.8265411703565e-06
 124    -7.2966065512495e-07
 125    2.1528573973767e-06
 126    1.2665782223898e-06
 127    -1.2727751163952e-06
 128    1.5093110306288e-06
 129    3.2857383428687e-06
 130    3.502545777467e-05
 131    3.4191952617879e-05
 132    3.4302437820473e-06
 133    3.7460795053223e-06
 134    -1.989316332634e-05
 135    0.00010154850761475
 136    1.6749966200879e-05
 137    0.00015966132731321
 138    -2.2655423041599e-07
 139    -9.6962595081905e-06
 140    -1.8075145957975e-06
 141    -4.6928506993334e-06
 142    -4.6041271605972e-06
 143    1.9171309620778e-06
 144    2.1767100396353e-05
 145    -6.9868910727609e-05
 146    -2.5127877545433e-06
 147    -4.9030503995951e-06
 148    -5.9167003965543e-06
 149    -9.6432157674767e-06
 150    1.0726138839633e-05
 151    6.6426297954649e-05
 152    2.1033820601736e-06
 153    4.2684177507783e-06
 154    6.7861707012526e-07
 155    -2.3309368377143e-06
 156    1.691011432706e-06
 157    -9.5437952651673e-07
 158    -7.9103949238801e-06
 159    2.6209481317669e-05
 160    -3.8124632010067e-06
 161    1.9781385109523e-07
 162    1.8171218060914e-06
 163    2.9508424121499e-05
 164    -2.0897970797956e-05
 165    -1.1244025799695e-05
 166    -2.8120282262974e-06
 167    9.5921764969869e-07
 168    4.9779204831556e-07
 169    -1.2105052114391e-06
 170    -5.5628091319931e-07
 171    8.286954239251e-07
 172    1.3988424156646e-05
 173    -2.8854391184181e-05
 174    3.1436609305409e-06
 175    -2.1158602752057e-07
 176    -8.2674020425198e-06
 177    6.5130137318632e-06
 178    1.0383821722751e-05
 179    2.6899692408736e-05
 180    -1.5461382384427e-06
 181    -3.0210012821384e-06
 182    -1.1573490365849e-06
 183    7.4007759757806e-07
 184    -3.6870117523251e-07
 185    1.7348296059882e-06
 186    1.4154480679198e-05
 187    -4.7661534398579e-05
 188    2.6972773380615e-07
 189    -2.1309155095464e-07
 190    -2.4106124843926e-06
 191    1.455064149872e-05
 192    7.3069703189549e-06
 193    3.9417870815072e-05
 194    -1.271932627213e-06
 195    -1.087286802087e-06
 196    -1.1535660123548e-06
 197    -2.7100024736311e-07
 198    -3.9491342365985e-07
 199    3.1785845639302e-06
 200    -3.8901148997831e-06
 201    2.4425148252534e-06
 202    -7.9829811082907e-06
 203    5.566204473941e-06
 204    -1.268378510228e-05
 205    3.6428355899159e-06
 206    2.3165292577292e-05
 207    -5.363457668978e-06
 208    4.6584832569879e-05
 209    -7.7844137893068e-06
 210    1.6141072320381e-05
 211    -4.2802752259351e-06
 212    -8.3251775144175e-06
 213    8.4325864727442e-07
 214     1.43533149017e-05
 215    -4.3834869353376e-07
 216    4.5311824794792e-05
 217    1.1302060148546e-08
 218    -9.6037654574728e-06
 219     1.27696399724e-06
 220    4.2319722012253e-06
 221    3.8060901056777e-06
 222    4.8579754168479e-05
 223    -0.00068667094339872
 224    1.8362531306738e-05
 225    6.084128419261e-06
 226    1.2885202482918e-06
 227    -0.00056116403795568
 228    -0.0002004719266543
 229    0.00036150199350641
 230    -7.5305894660085e-07
 231    2.5172699870426e-05
 232    9.6800940922687e-06
 233    -1.4960313843058e-05
 234    -1.3920191308195e-05
 235    2.029716208811e-05
 236    6.0127267805349e-05
 237    -0.00054285919129499
 238    1.5264825031604e-05
 239    5.0685893053774e-07
 240    1.4080444020706e-05
 241    -8.5153133364953e-05
 242    -0.00033552095883764
 243    0.0014629412527319
 244    -2.5723071121684e-05
 245    -5.4236974334372e-05
 246    3.8266295359888e-06
 247    -1.6243451307379e-05
 248    6.9351178733914e-06
 249    1.2012622780124e-05
 250    -0.00029375426359106
 251    5.5222749931415e-06
 252    0.00025781838259937
 253    -0.00012006943152495
 254    -6.9151825665849e-05
 255    7.4476296954894e-06
 256    -0.00024785773522665
 257    0.00078001612167841
 258    9.2512837858064e-05
 259    0.0012793101135069
 260    8.511299694278e-05
 261    -1.4017563105674e-05
 262    -1.746961699727e-05
 263    -0.00012082001186635
 264    -4.9897328710076e-05
 265    7.1918853615074e-05
 266    -0.0001367022660281
 267    0.00014521812863431
 268    0.00064447325452625
 269    4.9434712568391e-05
 270    0.00031210221424791
 271    -0.0041382756744985
 272    8.7451638947234e-05
 273    5.1223722646292e-06
 274    -2.9678824370452e-05
 275    0.00093080901824151
 276    0.00077912346801939
 277    -0.0023074898498058
 278    -9.2627310937407e-05
 279    8.7676949509514e-05
 280    6.1444010599205e-05
 281    -4.4354670571085e-05