[Molden Format]
made by pyscf v[2.0.1]
[Atoms] (AU)
C   1   6     0.69100024066471     0.64692934207205    -3.48223131169301
H   2   1     2.68052439830868     1.13355088658700    -3.25784032593313
C   3   6    -0.36286361513219     0.85440132524594    -5.97030179418974
H   4   1    -2.35448549047279     0.36322488579172    -6.17995817793143
C   5   6     0.93697958957450     1.61209284601821    -8.05828437677121
H   6   1     2.04771873455416     3.34419409619576    -7.97445952172335
C   7   6     0.93181860145248     0.24539724069794   -10.40101785795171
H   8   1    -0.18866463604211    -1.48700602985521   -10.45595821195799
H   9   1     1.55630230933075    -1.92953025305990    12.99630010416247
C   10   6     0.75233899775814    -2.21270439606481    11.10705728102219
H   11   1    -0.43433408177274    -3.90944857546550    11.22216085340412
C   12   6     2.86362581178706    -2.63237380607947     9.17926416456045
H   13   1     4.39038949912609    -1.24955421540245     9.49899813497433
H   14   1     3.74629220191363    -4.48798724300892     9.47414880959024
C   15   6     2.02478325613682    -2.42177285709634     6.44560829588644
C   16   6     3.88048732735477    -3.58795445234514     4.61402886975252
C   17   6    -0.18412382258602    -1.30464291234259     5.76021113872346
C   18   6    -2.10044360464350    -0.26837831858460     7.71610340967100
C   19   6    -3.08956938670431     2.35282328359417     6.88693925039594
C   20   6    -4.37372924086464    -2.09766595989678     7.93610724222001
C   21   6    -0.83850430601230     0.06372213486173    10.33002307638377
H   22   1     0.38411922151109     1.74281358582432    10.27380136542181
H   23   1    -2.30980003007874     0.45460143924521    11.73986301809809
H   24   1     4.58527064644668    -5.38706904487420     5.36778158031719
H   25   1     5.54944938085014    -2.37631462192748     4.35398898413318
H   26   1     3.06633019150423    -3.94118377050688     2.75255466040884
H   27   1    -4.17727778763735     2.26573369139522     5.12914900961283
H   28   1    -1.52662344944051     3.68001877445626     6.59540397144508
H   29   1    -4.32916174397830     3.13643051467482     8.35225460090378
H   30   1    -5.32329548508442    -2.36691813602939     6.11583672749896
H   31   1    -5.77989366602257    -1.33896741843465     9.25748940450990
H   32   1    -3.79310905208926    -3.96389819310853     8.61386170102686
C   33   6    -1.01100794811226    -1.06331657314144     3.11929490449947
C   34   6     0.37686231036534    -0.33275864505552     1.09165013605873
H   35   1    -3.01671213906703    -1.40297922279997     2.77827895090944
C   36   6    -0.64382707979370    -0.11591880174385    -1.42063131251064
H   37   1     2.35569259782137     0.17174499283897     1.33641070251401
H   38   1    -2.63317482980319    -0.60229203511219    -1.66119700387645
C   39   6     2.19331151370285     0.92821726401642   -12.52684146370420
C   40   6     2.06658501336205    -0.59430170292716   -14.82312084011087
H   41   1     3.34297492540252     2.63137484242591   -12.59961951178576
O   42   8     3.14891962090165    -0.09254461622574   -16.79735885819125
H   43   1     0.86886987612456    -2.32059369084518   -14.66320417409860
[GTO]
1 0
 s    6 1.00
             3047.5249  0.0018347001629433
             457.36951    0.01403730124668
             103.94869   0.068842606114048
             29.210155    0.23218442062076
              9.286663    0.46794134155879
              3.163927    0.36231203217765
 s    3 1.00
             7.8682724   -0.11933240861517
             1.8812885   -0.16085421161283
             0.5442493     1.1434564825515
 s    1 1.00
             0.1687144                   1
 p    3 1.00
             7.8682724   0.068999095584993
             1.8812885    0.31642397975315
             0.5442493    0.74430825237435
 p    1 1.00
             0.1687144                   1
 d    1 1.00
                   0.8                   1

2 0
 s    3 1.00
             18.731137    0.03349459952309
             2.8253937    0.23472694665786
             0.6401217    0.81375731841339
 s    1 1.00
             0.1612778                   1

3 0
 s    6 1.00
             3047.5249  0.0018347001629433
             457.36951    0.01403730124668
             103.94869   0.068842606114048
             29.210155    0.23218442062076
              9.286663    0.46794134155879
              3.163927    0.36231203217765
 s    3 1.00
             7.8682724   -0.11933240861517
             1.8812885   -0.16085421161283
             0.5442493     1.1434564825515
 s    1 1.00
             0.1687144                   1
 p    3 1.00
             7.8682724   0.068999095584993
             1.8812885    0.31642397975315
             0.5442493    0.74430825237435
 p    1 1.00
             0.1687144                   1
 d    1 1.00
                   0.8                   1

4 0
 s    3 1.00
             18.731137    0.03349459952309
             2.8253937    0.23472694665786
             0.6401217    0.81375731841339
 s    1 1.00
             0.1612778                   1

5 0
 s    6 1.00
             3047.5249  0.0018347001629433
             457.36951    0.01403730124668
             103.94869   0.068842606114048
             29.210155    0.23218442062076
              9.286663    0.46794134155879
              3.163927    0.36231203217765
 s    3 1.00
             7.8682724   -0.11933240861517
             1.8812885   -0.16085421161283
             0.5442493     1.1434564825515
 s    1 1.00
             0.1687144                   1
 p    3 1.00
             7.8682724   0.068999095584993
             1.8812885    0.31642397975315
             0.5442493    0.74430825237435
 p    1 1.00
             0.1687144                   1
 d    1 1.00
                   0.8                   1

6 0
 s    3 1.00
             18.731137    0.03349459952309
             2.8253937    0.23472694665786
             0.6401217    0.81375731841339
 s    1 1.00
             0.1612778                   1

7 0
 s    6 1.00
             3047.5249  0.0018347001629433
             457.36951    0.01403730124668
             103.94869   0.068842606114048
             29.210155    0.23218442062076
              9.286663    0.46794134155879
              3.163927    0.36231203217765
 s    3 1.00
             7.8682724   -0.11933240861517
             1.8812885   -0.16085421161283
             0.5442493     1.1434564825515
 s    1 1.00
             0.1687144                   1
 p    3 1.00
             7.8682724   0.068999095584993
             1.8812885    0.31642397975315
             0.5442493    0.74430825237435
 p    1 1.00
             0.1687144                   1
 d    1 1.00
                   0.8                   1

8 0
 s    3 1.00
             18.731137    0.03349459952309
             2.8253937    0.23472694665786
             0.6401217    0.81375731841339
 s    1 1.00
             0.1612778                   1

9 0
 s    3 1.00
             18.731137    0.03349459952309
             2.8253937    0.23472694665786
             0.6401217    0.81375731841339
 s    1 1.00
             0.1612778                   1

10 0
 s    6 1.00
             3047.5249  0.0018347001629433
             457.36951    0.01403730124668
             103.94869   0.068842606114048
             29.210155    0.23218442062076
              9.286663    0.46794134155879
              3.163927    0.36231203217765
 s    3 1.00
             7.8682724   -0.11933240861517
             1.8812885   -0.16085421161283
             0.5442493     1.1434564825515
 s    1 1.00
             0.1687144                   1
 p    3 1.00
             7.8682724   0.068999095584993
             1.8812885    0.31642397975315
             0.5442493    0.74430825237435
 p    1 1.00
             0.1687144                   1
 d    1 1.00
                   0.8                   1

11 0
 s    3 1.00
             18.731137    0.03349459952309
             2.8253937    0.23472694665786
             0.6401217    0.81375731841339
 s    1 1.00
             0.1612778                   1

12 0
 s    6 1.00
             3047.5249  0.0018347001629433
             457.36951    0.01403730124668
             103.94869   0.068842606114048
             29.210155    0.23218442062076
              9.286663    0.46794134155879
              3.163927    0.36231203217765
 s    3 1.00
             7.8682724   -0.11933240861517
             1.8812885   -0.16085421161283
             0.5442493     1.1434564825515
 s    1 1.00
             0.1687144                   1
 p    3 1.00
             7.8682724   0.068999095584993
             1.8812885    0.31642397975315
             0.5442493    0.74430825237435
 p    1 1.00
             0.1687144                   1
 d    1 1.00
                   0.8                   1

13 0
 s    3 1.00
             18.731137    0.03349459952309
             2.8253937    0.23472694665786
             0.6401217    0.81375731841339
 s    1 1.00
             0.1612778                   1

14 0
 s    3 1.00
             18.731137    0.03349459952309
             2.8253937    0.23472694665786
             0.6401217    0.81375731841339
 s    1 1.00
             0.1612778                   1

15 0
 s    6 1.00
             3047.5249  0.0018347001629433
             457.36951    0.01403730124668
             103.94869   0.068842606114048
             29.210155    0.23218442062076
              9.286663    0.46794134155879
              3.163927    0.36231203217765
 s    3 1.00
             7.8682724   -0.11933240861517
             1.8812885   -0.16085421161283
             0.5442493     1.1434564825515
 s    1 1.00
             0.1687144                   1
 p    3 1.00
             7.8682724   0.068999095584993
             1.8812885    0.31642397975315
             0.5442493    0.74430825237435
 p    1 1.00
             0.1687144                   1
 d    1 1.00
                   0.8                   1

16 0
 s    6 1.00
             3047.5249  0.0018347001629433
             457.36951    0.01403730124668
             103.94869   0.068842606114048
             29.210155    0.23218442062076
              9.286663    0.46794134155879
              3.163927    0.36231203217765
 s    3 1.00
             7.8682724   -0.11933240861517
             1.8812885   -0.16085421161283
             0.5442493     1.1434564825515
 s    1 1.00
             0.1687144                   1
 p    3 1.00
             7.8682724   0.068999095584993
             1.8812885    0.31642397975315
             0.5442493    0.74430825237435
 p    1 1.00
             0.1687144                   1
 d    1 1.00
                   0.8                   1

17 0
 s    6 1.00
             3047.5249  0.0018347001629433
             457.36951    0.01403730124668
             103.94869   0.068842606114048
             29.210155    0.23218442062076
              9.286663    0.46794134155879
              3.163927    0.36231203217765
 s    3 1.00
             7.8682724   -0.11933240861517
             1.8812885   -0.16085421161283
             0.5442493     1.1434564825515
 s    1 1.00
             0.1687144                   1
 p    3 1.00
             7.8682724   0.068999095584993
             1.8812885    0.31642397975315
             0.5442493    0.74430825237435
 p    1 1.00
             0.1687144                   1
 d    1 1.00
                   0.8                   1

18 0
 s    6 1.00
             3047.5249  0.0018347001629433
             457.36951    0.01403730124668
             103.94869   0.068842606114048
             29.210155    0.23218442062076
              9.286663    0.46794134155879
              3.163927    0.36231203217765
 s    3 1.00
             7.8682724   -0.11933240861517
             1.8812885   -0.16085421161283
             0.5442493     1.1434564825515
 s    1 1.00
             0.1687144                   1
 p    3 1.00
             7.8682724   0.068999095584993
             1.8812885    0.31642397975315
             0.5442493    0.74430825237435
 p    1 1.00
             0.1687144                   1
 d    1 1.00
                   0.8                   1

19 0
 s    6 1.00
             3047.5249  0.0018347001629433
             457.36951    0.01403730124668
             103.94869   0.068842606114048
             29.210155    0.23218442062076
              9.286663    0.46794134155879
              3.163927    0.36231203217765
 s    3 1.00
             7.8682724   -0.11933240861517
             1.8812885   -0.16085421161283
             0.5442493     1.1434564825515
 s    1 1.00
             0.1687144                   1
 p    3 1.00
             7.8682724   0.068999095584993
             1.8812885    0.31642397975315
             0.5442493    0.74430825237435
 p    1 1.00
             0.1687144                   1
 d    1 1.00
                   0.8                   1

20 0
 s    6 1.00
             3047.5249  0.0018347001629433
             457.36951    0.01403730124668
             103.94869   0.068842606114048
             29.210155    0.23218442062076
              9.286663    0.46794134155879
              3.163927    0.36231203217765
 s    3 1.00
             7.8682724   -0.11933240861517
             1.8812885   -0.16085421161283
             0.5442493     1.1434564825515
 s    1 1.00
             0.1687144                   1
 p    3 1.00
             7.8682724   0.068999095584993
             1.8812885    0.31642397975315
             0.5442493    0.74430825237435
 p    1 1.00
             0.1687144                   1
 d    1 1.00
                   0.8                   1

21 0
 s    6 1.00
             3047.5249  0.0018347001629433
             457.36951    0.01403730124668
             103.94869   0.068842606114048
             29.210155    0.23218442062076
              9.286663    0.46794134155879
              3.163927    0.36231203217765
 s    3 1.00
             7.8682724   -0.11933240861517
             1.8812885   -0.16085421161283
             0.5442493     1.1434564825515
 s    1 1.00
             0.1687144                   1
 p    3 1.00
             7.8682724   0.068999095584993
             1.8812885    0.31642397975315
             0.5442493    0.74430825237435
 p    1 1.00
             0.1687144                   1
 d    1 1.00
                   0.8                   1

22 0
 s    3 1.00
             18.731137    0.03349459952309
             2.8253937    0.23472694665786
             0.6401217    0.81375731841339
 s    1 1.00
             0.1612778                   1

23 0
 s    3 1.00
             18.731137    0.03349459952309
             2.8253937    0.23472694665786
             0.6401217    0.81375731841339
 s    1 1.00
             0.1612778                   1

24 0
 s    3 1.00
             18.731137    0.03349459952309
             2.8253937    0.23472694665786
             0.6401217    0.81375731841339
 s    1 1.00
             0.1612778                   1

25 0
 s    3 1.00
             18.731137    0.03349459952309
             2.8253937    0.23472694665786
             0.6401217    0.81375731841339
 s    1 1.00
             0.1612778                   1

26 0
 s    3 1.00
             18.731137    0.03349459952309
             2.8253937    0.23472694665786
             0.6401217    0.81375731841339
 s    1 1.00
             0.1612778                   1

27 0
 s    3 1.00
             18.731137    0.03349459952309
             2.8253937    0.23472694665786
             0.6401217    0.81375731841339
 s    1 1.00
             0.1612778                   1

28 0
 s    3 1.00
             18.731137    0.03349459952309
             2.8253937    0.23472694665786
             0.6401217    0.81375731841339
 s    1 1.00
             0.1612778                   1

29 0
 s    3 1.00
             18.731137    0.03349459952309
             2.8253937    0.23472694665786
             0.6401217    0.81375731841339
 s    1 1.00
             0.1612778                   1

30 0
 s    3 1.00
             18.731137    0.03349459952309
             2.8253937    0.23472694665786
             0.6401217    0.81375731841339
 s    1 1.00
             0.1612778                   1

31 0
 s    3 1.00
             18.731137    0.03349459952309
             2.8253937    0.23472694665786
             0.6401217    0.81375731841339
 s    1 1.00
             0.1612778                   1

32 0
 s    3 1.00
             18.731137    0.03349459952309
             2.8253937    0.23472694665786
             0.6401217    0.81375731841339
 s    1 1.00
             0.1612778                   1

33 0
 s    6 1.00
             3047.5249  0.0018347001629433
             457.36951    0.01403730124668
             103.94869   0.068842606114048
             29.210155    0.23218442062076
              9.286663    0.46794134155879
              3.163927    0.36231203217765
 s    3 1.00
             7.8682724   -0.11933240861517
             1.8812885   -0.16085421161283
             0.5442493     1.1434564825515
 s    1 1.00
             0.1687144                   1
 p    3 1.00
             7.8682724   0.068999095584993
             1.8812885    0.31642397975315
             0.5442493    0.74430825237435
 p    1 1.00
             0.1687144                   1
 d    1 1.00
                   0.8                   1

34 0
 s    6 1.00
             3047.5249  0.0018347001629433
             457.36951    0.01403730124668
             103.94869   0.068842606114048
             29.210155    0.23218442062076
              9.286663    0.46794134155879
              3.163927    0.36231203217765
 s    3 1.00
             7.8682724   -0.11933240861517
             1.8812885   -0.16085421161283
             0.5442493     1.1434564825515
 s    1 1.00
             0.1687144                   1
 p    3 1.00
             7.8682724   0.068999095584993
             1.8812885    0.31642397975315
             0.5442493    0.74430825237435
 p    1 1.00
             0.1687144                   1
 d    1 1.00
                   0.8                   1

35 0
 s    3 1.00
             18.731137    0.03349459952309
             2.8253937    0.23472694665786
             0.6401217    0.81375731841339
 s    1 1.00
             0.1612778                   1

36 0
 s    6 1.00
             3047.5249  0.0018347001629433
             457.36951    0.01403730124668
             103.94869   0.068842606114048
             29.210155    0.23218442062076
              9.286663    0.46794134155879
              3.163927    0.36231203217765
 s    3 1.00
             7.8682724   -0.11933240861517
             1.8812885   -0.16085421161283
             0.5442493     1.1434564825515
 s    1 1.00
             0.1687144                   1
 p    3 1.00
             7.8682724   0.068999095584993
             1.8812885    0.31642397975315
             0.5442493    0.74430825237435
 p    1 1.00
             0.1687144                   1
 d    1 1.00
                   0.8                   1

37 0
 s    3 1.00
             18.731137    0.03349459952309
             2.8253937    0.23472694665786
             0.6401217    0.81375731841339
 s    1 1.00
             0.1612778                   1

38 0
 s    3 1.00
             18.731137    0.03349459952309
             2.8253937    0.23472694665786
             0.6401217    0.81375731841339
 s    1 1.00
             0.1612778                   1

39 0
 s    6 1.00
             3047.5249  0.0018347001629433
             457.36951    0.01403730124668
             103.94869   0.068842606114048
             29.210155    0.23218442062076
              9.286663    0.46794134155879
              3.163927    0.36231203217765
 s    3 1.00
             7.8682724   -0.11933240861517
             1.8812885   -0.16085421161283
             0.5442493     1.1434564825515
 s    1 1.00
             0.1687144                   1
 p    3 1.00
             7.8682724   0.068999095584993
             1.8812885    0.31642397975315
             0.5442493    0.74430825237435
 p    1 1.00
             0.1687144                   1
 d    1 1.00
                   0.8                   1

40 0
 s    6 1.00
             3047.5249  0.0018347001629433
             457.36951    0.01403730124668
             103.94869   0.068842606114048
             29.210155    0.23218442062076
              9.286663    0.46794134155879
              3.163927    0.36231203217765
 s    3 1.00
             7.8682724   -0.11933240861517
             1.8812885   -0.16085421161283
             0.5442493     1.1434564825515
 s    1 1.00
             0.1687144                   1
 p    3 1.00
             7.8682724   0.068999095584993
             1.8812885    0.31642397975315
             0.5442493    0.74430825237435
 p    1 1.00
             0.1687144                   1
 d    1 1.00
                   0.8                   1

41 0
 s    3 1.00
             18.731137    0.03349459952309
             2.8253937    0.23472694665786
             0.6401217    0.81375731841339
 s    1 1.00
             0.1612778                   1

42 0
 s    6 1.00
             5484.6717   0.001831099805527
             825.23495   0.013950098518422
             188.04696    0.06844509273075
               52.9645    0.23271427528445
              16.89757    0.47019295006289
             5.7996353    0.35852086192309
 s    3 1.00
             15.539616   -0.11077750382508
             3.5999336   -0.14802630511126
             1.0137618     1.1307670390447
 s    1 1.00
             0.2700058                   1
 p    3 1.00
             15.539616   0.070874299543311
             3.5999336    0.33975279781076
             1.0137618    0.72715859531445
 p    1 1.00
             0.2700058                   1
 d    1 1.00
                   0.8                   1

43 0
 s    3 1.00
             18.731137    0.03349459952309
             2.8253937    0.23472694665786
             0.6401217    0.81375731841339
 s    1 1.00
             0.1612778                   1

[5d]
[7f]
[9g]

[MO]
 Sym= A
 Ene=               0
 Spin= Alpha
 Occup=    1.00000
   1     -0.01914822584381
   2    0.0008117797802792
   3    -0.0063067534133198
   4    -0.00038987686428359
   5    6.0222780553205e-05
   6    -0.0011607693555855
   7    -0.0007179343282053
   8    -0.00074858293642498
   9    0.0038493560456049
  10    0.0009489598714428
  11    0.00090396342578098
  12    -0.00013570818165161
  13    0.00023239684590114
  14    -4.4071856534263e-05
  15    0.00043702107792199
  16    0.00087021646044904
  17     -0.99458042780563
  18    -0.036265407116535
  19     0.026890286828983
  20    -0.00072940207297915
  21    -0.00015666590753694
  22    0.00031264393093995
  23    0.0029366401068178
  24    0.00089958500876135
  25    0.00016771028344615
  26    -0.00080487944312441
  27    0.00024474274454382
  28    0.00038234262328899
  29    -0.00026583228843567
  30    -0.0001363755497312
  31    0.0010537777459367
  32    -0.0038540151376654
  33    -0.025922551569834
  34    0.00037741635860023
  35    -0.0035774111637822
  36    -0.00082169237342034
  37    -0.00034827886149731
  38    0.0012445275412562
  39    0.00045643646996757
  40    -0.0016475959298915
  41    -0.0046582598904621
  42    0.00065816836582162
  43    -0.0010072222018525
  44    -0.00048192643054645
  45    0.00035111777181922
  46    0.00043306819347399
  47    0.00048649034826706
  48    0.00056060738395779
  49    0.00044695497457452
  50    0.00045526503603708
  51    -0.00044501824801478
  52    -2.7334196738303e-05
  53    -9.1157694820235e-05
  54    0.00036430528573979
  55    0.0014514839240479
  56    -1.4808761796412e-05
  57    -0.0051379708889579
  58    3.8759836963098e-05
  59    -7.1201269794982e-05
  60    -0.00015578443116709
  61    0.00010615757318427
  62    -0.000101258426595
  63    0.00031197376603606
  64    5.6640928619373e-05
  65    2.0884486230701e-06
  66    4.9501437330347e-06
  67    -2.2637824404488e-09
  68    1.0598937331057e-07
  69    -6.6733001988691e-06
  70    -1.3264571549658e-06
  71    3.0081218882394e-06
  72    4.9887000172959e-07
  73    -8.6133731268608e-06
  74    -1.9721172496903e-05
  75    -9.6426489761562e-06
  76    3.2914289900558e-07
  77    3.7287011960963e-07
  78    -1.9087309773433e-07
  79    -3.9220866683322e-07
  80    1.1972005195484e-07
  81    -1.7219305928374e-06
  82    -9.7378060583034e-06
  83    1.3189368560401e-08
  84    1.4457067519424e-07
  85    4.5363002122924e-05
  86    -2.5508723008195e-06
  87    -2.4244652806735e-06
  88    -3.720811151481e-06
  89    -1.6758655503291e-05
  90    4.5434795863958e-05
  91    -5.1887174301166e-06
  92    -1.3807115579988e-06
  93    1.9973138647294e-06
  94    -2.4055797126364e-06
  95    4.1696677583988e-07
  96    8.7644977136926e-07
  97    -4.5223806595486e-06
  98    -8.7238845599939e-06
  99    2.4353036367235e-06
 100    1.399680835053e-05
 101    6.664596158466e-07
 102    9.074451476413e-06
 103    -0.00014968417894923
 104    7.3618207012497e-07
 105    5.7357805424143e-06
 106    1.0625523202655e-06
 107    0.00013666842990109
 108    -0.00012613306555898
 109    -0.00010770053103217
 110    5.1785538474155e-06
 111    8.8226176102243e-07
 112    -3.5034784873206e-07
 113    -1.954049415282e-06
 114    3.398940328734e-06
 115    2.8383756387898e-06
 116    2.871942330309e-05
 117    -0.00019350064656762
 118    1.6777464968964e-06
 119    -1.681003750593e-06
 120    -4.8421135978859e-06
 121    3.9435649579523e-05
 122    -1.3033827712159e-05
 123    -1.1418513122765e-05
 124    -1.0434947509102e-06
 125    1.6800359214384e-06
 126    1.6959516175422e-06
 127    -2.4459030402697e-07
 128    1.5424868616152e-06
 129    4.8757106042813e-06
 130    4.5162573638385e-05
 131    -7.9987338683909e-05
 132    -1.0197522165475e-06
 133    5.5307066503811e-06
 134    -1.9947839567435e-05
 135    0.00021794803496853
 136    -4.0020950685012e-05
 137    0.00030301506779479
 138    -7.3173206503516e-06
 139    -9.9051715811454e-06
 140    -2.8106136400627e-06
 141    -3.7926113447784e-06
 142    -4.2087932371079e-06
 143    1.2783210602993e-06
 144    1.7846511427165e-05
 145    -3.321458840663e-05
 146    -1.5771235811835e-06
 147    -6.1509960201737e-06
 148    -6.0240401587997e-06
 149    -1.7608978718462e-05
 150    3.3099761991303e-05
 151    2.2642122551607e-05
 152    5.203090201996e-06
 153    2.7643665877655e-06
 154    8.9217829602571e-07
 155    -3.603364396702e-06
 156    2.2113433827257e-06
 157    -6.4676630023057e-07
 158    -4.8239798413306e-06
 159    -4.7538069133963e-06
 160    -4.4040609664969e-06
 161    1.0028839818537e-06
 162    -2.7516958899821e-07
 163    2.9422536679192e-05
 164    -6.2381815019302e-06
 165    -3.8204302915071e-06
 166    -2.4134535584967e-06
 167    -1.1482545794124e-07
 168    2.3392110513493e-07
 169    -5.2587176335609e-08
 170    -9.4123360427036e-07
 171    4.6049367073167e-07
 172    1.0359291633342e-05
 173    -2.0271757299173e-05
 174    2.0841354253496e-06
 175    -2.3755540631123e-07
 176    -7.5374428625274e-06
 177    1.6954411297251e-05
 178    5.080768607902e-06
 179    2.8933488321861e-05
 180    -1.7195621634706e-06
 181    -2.6787864835587e-06
 182    -4.8410633072197e-07
 183    1.6949705162509e-06
 184    -2.8367237610738e-07
 185    2.2176956720968e-06
 186    1.9240098020037e-05
 187    -4.391724457488e-05
 188    1.1391948796838e-06
 189    -7.9162476057909e-07
 190    -4.2956517725267e-06
 191    -6.4948410884208e-07
 192    2.5614036476265e-06
 193    4.8168256781695e-05
 194    -2.3936920573272e-06
 195    -6.5905803572678e-07
 196    -8.4993419858605e-07
 197    2.483258840997e-08
 198    -3.3913043838598e-08
 199    5.0369078867537e-06
 200    1.322906641902e-06
 201    1.3745209678046e-06
 202    -1.6034891623229e-05
 203    8.5385811620708e-06
 204    1.6939042115553e-06
 205    2.571554303813e-06
 206    2.1095433222064e-05
 207    -9.0503916923977e-06
 208    6.6440710053853e-05
 209    -6.342497409155e-06
 210    2.3295268948959e-05
 211    -2.8991564526508e-06
 212    -1.0504426391101e-05
 213    8.5894397949231e-07
 214    1.3058496676262e-05
 215    -1.2555502323873e-06
 216    4.7432557611743e-05
 217    -2.2876273694121e-07
 218    -4.7244383009007e-06
 219    2.0351554982304e-07
 220    -1.6167295612463e-06
 221    2.6186098133871e-06
 222    4.352067459817e-05
 223    -0.0004513950591505
 224    1.8363096178272e-05
 225    5.3120316612664e-07
 226    -1.0883671714156e-05
 227    -0.00048422522195331
 228    -0.00019443276294778
 229    0.00050915254905441
 230    4.3861935900342e-06
 231    2.6426790262965e-05
 232    1.1895263856057e-05
 233    -1.3861388474186e-05
 234    -1.5406675462324e-05
 235    1.9284874450897e-05
 236    5.6643788561067e-05
 237    -0.00050300970028994
 238    1.2202433402084e-05
 239    -4.3762240771836e-06
 240    1.8757036705019e-05
 241    -5.3927102326392e-05
 242    -0.0002221388837622
 243    0.0013243176981431
 244    -2.52900681506e-05
 245    -4.9969070698089e-05
 246    -7.6627164074155e-06
 247    -1.4149943099297e-05
 248    -2.9785791390476e-06
 249     2.00606618165e-05
 250    -0.0002898474216705
 251    1.4691568165449e-05
 252    0.00030796734713815
 253    -0.00089679250257751
 254    -8.9394300990144e-05
 255    4.5008182101189e-05
 256    -0.00022652862897285
 257    0.00060593385545554
 258    -0.0002753338474977
 259    0.0015541242292803
 260    7.2509664987087e-05
 261    -2.2766074017742e-06
 262    1.1223524775142e-05
 263    -0.00011373328152238
 264    -7.8550521526445e-05
 265    6.5831459781697e-05
 266    -0.00016055199109557
 267    0.00014846412673107
 268    0.00064130634977134
 269    4.7639582050638e-05
 270    0.00030702657463529
 271    -0.0039882584067473
 272    -3.2818660113658e-05
 273    -2.1627197131939e-05
 274    -9.6733971361471e-05
 275    0.0017098169490731
 276     0.001208692981704
 277    -0.0015438427896671
 278    -4.5477954519968e-05
 279    0.00010920455898495
 280    2.5617642098229e-05