[Molden Format]
made by pyscf v[2.0.1]
[Atoms] (AU)
C   1   6     0.69100024066471     0.64692934207205    -3.48223131169301
H   2   1     2.68052439830868     1.13355088658700    -3.25784032593313
C   3   6    -0.36286361513219     0.85440132524594    -5.97030179418974
H   4   1    -2.35448549047279     0.36322488579172    -6.17995817793143
C   5   6     0.93697958957450     1.61209284601821    -8.05828437677121
H   6   1     0.50725181311820     3.44287068169954    -8.89764684313250
C   7   6     2.86970100877903     0.12057508237944    -9.23991306333710
H   8   1     3.28022106466413    -1.70875314533660    -8.37692190559989
H   9   1     1.55630230933075    -1.92953025305990    12.99630010416247
C   10   6     0.75233899775814    -2.21270439606481    11.10705728102219
H   11   1    -0.43433408177274    -3.90944857546550    11.22216085340412
C   12   6     2.86362581178706    -2.63237380607947     9.17926416456045
H   13   1     4.39038949912609    -1.24955421540245     9.49899813497433
H   14   1     3.74629220191363    -4.48798724300892     9.47414880959024
C   15   6     2.02478325613682    -2.42177285709634     6.44560829588644
C   16   6     3.88048732735477    -3.58795445234514     4.61402886975252
C   17   6    -0.18412382258602    -1.30464291234259     5.76021113872346
C   18   6    -2.10044360464350    -0.26837831858460     7.71610340967100
C   19   6    -3.08956938670431     2.35282328359417     6.88693925039594
C   20   6    -4.37372924086464    -2.09766595989678     7.93610724222001
C   21   6    -0.83850430601230     0.06372213486173    10.33002307638377
H   22   1     0.38411922151109     1.74281358582432    10.27380136542181
H   23   1    -2.30980003007874     0.45460143924521    11.73986301809809
H   24   1     4.58527064644668    -5.38706904487420     5.36778158031719
H   25   1     5.54944938085014    -2.37631462192748     4.35398898413318
H   26   1     3.06633019150423    -3.94118377050688     2.75255466040884
H   27   1    -4.17727778763735     2.26573369139522     5.12914900961283
H   28   1    -1.52662344944051     3.68001877445626     6.59540397144508
H   29   1    -4.32916174397830     3.13643051467482     8.35225460090378
H   30   1    -5.32329548508442    -2.36691813602939     6.11583672749896
H   31   1    -5.77989366602257    -1.33896741843465     9.25748940450990
H   32   1    -3.79310905208926    -3.96389819310853     8.61386170102686
C   33   6    -1.01100794811226    -1.06331657314144     3.11929490449947
C   34   6     0.37686231036534    -0.33275864505552     1.09165013605873
H   35   1    -3.01671213906703    -1.40297922279997     2.77827895090944
C   36   6    -0.64382707979370    -0.11591880174385    -1.42063131251064
H   37   1     2.35569259782137     0.17174499283897     1.33641070251401
H   38   1    -2.63317482980319    -0.60229203511219    -1.66119700387645
C   39   6     4.20991814769739     0.79575668965015   -11.31949989075694
C   40   6     6.14288813089389    -0.86010693489370   -12.38193355267250
H   41   1     3.89481568247576     2.59125541029260   -12.27063769452772
O   42   8     7.41472391465697    -0.37430332261595   -14.24398959848541
H   43   1     6.40229959564941    -2.67780216203268   -11.34807250251721
[GTO]
1 0
 s    6 1.00
             3047.5249  0.0018347001629433
             457.36951    0.01403730124668
             103.94869   0.068842606114048
             29.210155    0.23218442062076
              9.286663    0.46794134155879
              3.163927    0.36231203217765
 s    3 1.00
             7.8682724   -0.11933240861517
             1.8812885   -0.16085421161283
             0.5442493     1.1434564825515
 s    1 1.00
             0.1687144                   1
 p    3 1.00
             7.8682724   0.068999095584993
             1.8812885    0.31642397975315
             0.5442493    0.74430825237435
 p    1 1.00
             0.1687144                   1
 d    1 1.00
                   0.8                   1

2 0
 s    3 1.00
             18.731137    0.03349459952309
             2.8253937    0.23472694665786
             0.6401217    0.81375731841339
 s    1 1.00
             0.1612778                   1

3 0
 s    6 1.00
             3047.5249  0.0018347001629433
             457.36951    0.01403730124668
             103.94869   0.068842606114048
             29.210155    0.23218442062076
              9.286663    0.46794134155879
              3.163927    0.36231203217765
 s    3 1.00
             7.8682724   -0.11933240861517
             1.8812885   -0.16085421161283
             0.5442493     1.1434564825515
 s    1 1.00
             0.1687144                   1
 p    3 1.00
             7.8682724   0.068999095584993
             1.8812885    0.31642397975315
             0.5442493    0.74430825237435
 p    1 1.00
             0.1687144                   1
 d    1 1.00
                   0.8                   1

4 0
 s    3 1.00
             18.731137    0.03349459952309
             2.8253937    0.23472694665786
             0.6401217    0.81375731841339
 s    1 1.00
             0.1612778                   1

5 0
 s    6 1.00
             3047.5249  0.0018347001629433
             457.36951    0.01403730124668
             103.94869   0.068842606114048
             29.210155    0.23218442062076
              9.286663    0.46794134155879
              3.163927    0.36231203217765
 s    3 1.00
             7.8682724   -0.11933240861517
             1.8812885   -0.16085421161283
             0.5442493     1.1434564825515
 s    1 1.00
             0.1687144                   1
 p    3 1.00
             7.8682724   0.068999095584993
             1.8812885    0.31642397975315
             0.5442493    0.74430825237435
 p    1 1.00
             0.1687144                   1
 d    1 1.00
                   0.8                   1

6 0
 s    3 1.00
             18.731137    0.03349459952309
             2.8253937    0.23472694665786
             0.6401217    0.81375731841339
 s    1 1.00
             0.1612778                   1

7 0
 s    6 1.00
             3047.5249  0.0018347001629433
             457.36951    0.01403730124668
             103.94869   0.068842606114048
             29.210155    0.23218442062076
              9.286663    0.46794134155879
              3.163927    0.36231203217765
 s    3 1.00
             7.8682724   -0.11933240861517
             1.8812885   -0.16085421161283
             0.5442493     1.1434564825515
 s    1 1.00
             0.1687144                   1
 p    3 1.00
             7.8682724   0.068999095584993
             1.8812885    0.31642397975315
             0.5442493    0.74430825237435
 p    1 1.00
             0.1687144                   1
 d    1 1.00
                   0.8                   1

8 0
 s    3 1.00
             18.731137    0.03349459952309
             2.8253937    0.23472694665786
             0.6401217    0.81375731841339
 s    1 1.00
             0.1612778                   1

9 0
 s    3 1.00
             18.731137    0.03349459952309
             2.8253937    0.23472694665786
             0.6401217    0.81375731841339
 s    1 1.00
             0.1612778                   1

10 0
 s    6 1.00
             3047.5249  0.0018347001629433
             457.36951    0.01403730124668
             103.94869   0.068842606114048
             29.210155    0.23218442062076
              9.286663    0.46794134155879
              3.163927    0.36231203217765
 s    3 1.00
             7.8682724   -0.11933240861517
             1.8812885   -0.16085421161283
             0.5442493     1.1434564825515
 s    1 1.00
             0.1687144                   1
 p    3 1.00
             7.8682724   0.068999095584993
             1.8812885    0.31642397975315
             0.5442493    0.74430825237435
 p    1 1.00
             0.1687144                   1
 d    1 1.00
                   0.8                   1

11 0
 s    3 1.00
             18.731137    0.03349459952309
             2.8253937    0.23472694665786
             0.6401217    0.81375731841339
 s    1 1.00
             0.1612778                   1

12 0
 s    6 1.00
             3047.5249  0.0018347001629433
             457.36951    0.01403730124668
             103.94869   0.068842606114048
             29.210155    0.23218442062076
              9.286663    0.46794134155879
              3.163927    0.36231203217765
 s    3 1.00
             7.8682724   -0.11933240861517
             1.8812885   -0.16085421161283
             0.5442493     1.1434564825515
 s    1 1.00
             0.1687144                   1
 p    3 1.00
             7.8682724   0.068999095584993
             1.8812885    0.31642397975315
             0.5442493    0.74430825237435
 p    1 1.00
             0.1687144                   1
 d    1 1.00
                   0.8                   1

13 0
 s    3 1.00
             18.731137    0.03349459952309
             2.8253937    0.23472694665786
             0.6401217    0.81375731841339
 s    1 1.00
             0.1612778                   1

14 0
 s    3 1.00
             18.731137    0.03349459952309
             2.8253937    0.23472694665786
             0.6401217    0.81375731841339
 s    1 1.00
             0.1612778                   1

15 0
 s    6 1.00
             3047.5249  0.0018347001629433
             457.36951    0.01403730124668
             103.94869   0.068842606114048
             29.210155    0.23218442062076
              9.286663    0.46794134155879
              3.163927    0.36231203217765
 s    3 1.00
             7.8682724   -0.11933240861517
             1.8812885   -0.16085421161283
             0.5442493     1.1434564825515
 s    1 1.00
             0.1687144                   1
 p    3 1.00
             7.8682724   0.068999095584993
             1.8812885    0.31642397975315
             0.5442493    0.74430825237435
 p    1 1.00
             0.1687144                   1
 d    1 1.00
                   0.8                   1

16 0
 s    6 1.00
             3047.5249  0.0018347001629433
             457.36951    0.01403730124668
             103.94869   0.068842606114048
             29.210155    0.23218442062076
              9.286663    0.46794134155879
              3.163927    0.36231203217765
 s    3 1.00
             7.8682724   -0.11933240861517
             1.8812885   -0.16085421161283
             0.5442493     1.1434564825515
 s    1 1.00
             0.1687144                   1
 p    3 1.00
             7.8682724   0.068999095584993
             1.8812885    0.31642397975315
             0.5442493    0.74430825237435
 p    1 1.00
             0.1687144                   1
 d    1 1.00
                   0.8                   1

17 0
 s    6 1.00
             3047.5249  0.0018347001629433
             457.36951    0.01403730124668
             103.94869   0.068842606114048
             29.210155    0.23218442062076
              9.286663    0.46794134155879
              3.163927    0.36231203217765
 s    3 1.00
             7.8682724   -0.11933240861517
             1.8812885   -0.16085421161283
             0.5442493     1.1434564825515
 s    1 1.00
             0.1687144                   1
 p    3 1.00
             7.8682724   0.068999095584993
             1.8812885    0.31642397975315
             0.5442493    0.74430825237435
 p    1 1.00
             0.1687144                   1
 d    1 1.00
                   0.8                   1

18 0
 s    6 1.00
             3047.5249  0.0018347001629433
             457.36951    0.01403730124668
             103.94869   0.068842606114048
             29.210155    0.23218442062076
              9.286663    0.46794134155879
              3.163927    0.36231203217765
 s    3 1.00
             7.8682724   -0.11933240861517
             1.8812885   -0.16085421161283
             0.5442493     1.1434564825515
 s    1 1.00
             0.1687144                   1
 p    3 1.00
             7.8682724   0.068999095584993
             1.8812885    0.31642397975315
             0.5442493    0.74430825237435
 p    1 1.00
             0.1687144                   1
 d    1 1.00
                   0.8                   1

19 0
 s    6 1.00
             3047.5249  0.0018347001629433
             457.36951    0.01403730124668
             103.94869   0.068842606114048
             29.210155    0.23218442062076
              9.286663    0.46794134155879
              3.163927    0.36231203217765
 s    3 1.00
             7.8682724   -0.11933240861517
             1.8812885   -0.16085421161283
             0.5442493     1.1434564825515
 s    1 1.00
             0.1687144                   1
 p    3 1.00
             7.8682724   0.068999095584993
             1.8812885    0.31642397975315
             0.5442493    0.74430825237435
 p    1 1.00
             0.1687144                   1
 d    1 1.00
                   0.8                   1

20 0
 s    6 1.00
             3047.5249  0.0018347001629433
             457.36951    0.01403730124668
             103.94869   0.068842606114048
             29.210155    0.23218442062076
              9.286663    0.46794134155879
              3.163927    0.36231203217765
 s    3 1.00
             7.8682724   -0.11933240861517
             1.8812885   -0.16085421161283
             0.5442493     1.1434564825515
 s    1 1.00
             0.1687144                   1
 p    3 1.00
             7.8682724   0.068999095584993
             1.8812885    0.31642397975315
             0.5442493    0.74430825237435
 p    1 1.00
             0.1687144                   1
 d    1 1.00
                   0.8                   1

21 0
 s    6 1.00
             3047.5249  0.0018347001629433
             457.36951    0.01403730124668
             103.94869   0.068842606114048
             29.210155    0.23218442062076
              9.286663    0.46794134155879
              3.163927    0.36231203217765
 s    3 1.00
             7.8682724   -0.11933240861517
             1.8812885   -0.16085421161283
             0.5442493     1.1434564825515
 s    1 1.00
             0.1687144                   1
 p    3 1.00
             7.8682724   0.068999095584993
             1.8812885    0.31642397975315
             0.5442493    0.74430825237435
 p    1 1.00
             0.1687144                   1
 d    1 1.00
                   0.8                   1

22 0
 s    3 1.00
             18.731137    0.03349459952309
             2.8253937    0.23472694665786
             0.6401217    0.81375731841339
 s    1 1.00
             0.1612778                   1

23 0
 s    3 1.00
             18.731137    0.03349459952309
             2.8253937    0.23472694665786
             0.6401217    0.81375731841339
 s    1 1.00
             0.1612778                   1

24 0
 s    3 1.00
             18.731137    0.03349459952309
             2.8253937    0.23472694665786
             0.6401217    0.81375731841339
 s    1 1.00
             0.1612778                   1

25 0
 s    3 1.00
             18.731137    0.03349459952309
             2.8253937    0.23472694665786
             0.6401217    0.81375731841339
 s    1 1.00
             0.1612778                   1

26 0
 s    3 1.00
             18.731137    0.03349459952309
             2.8253937    0.23472694665786
             0.6401217    0.81375731841339
 s    1 1.00
             0.1612778                   1

27 0
 s    3 1.00
             18.731137    0.03349459952309
             2.8253937    0.23472694665786
             0.6401217    0.81375731841339
 s    1 1.00
             0.1612778                   1

28 0
 s    3 1.00
             18.731137    0.03349459952309
             2.8253937    0.23472694665786
             0.6401217    0.81375731841339
 s    1 1.00
             0.1612778                   1

29 0
 s    3 1.00
             18.731137    0.03349459952309
             2.8253937    0.23472694665786
             0.6401217    0.81375731841339
 s    1 1.00
             0.1612778                   1

30 0
 s    3 1.00
             18.731137    0.03349459952309
             2.8253937    0.23472694665786
             0.6401217    0.81375731841339
 s    1 1.00
             0.1612778                   1

31 0
 s    3 1.00
             18.731137    0.03349459952309
             2.8253937    0.23472694665786
             0.6401217    0.81375731841339
 s    1 1.00
             0.1612778                   1

32 0
 s    3 1.00
             18.731137    0.03349459952309
             2.8253937    0.23472694665786
             0.6401217    0.81375731841339
 s    1 1.00
             0.1612778                   1

33 0
 s    6 1.00
             3047.5249  0.0018347001629433
             457.36951    0.01403730124668
             103.94869   0.068842606114048
             29.210155    0.23218442062076
              9.286663    0.46794134155879
              3.163927    0.36231203217765
 s    3 1.00
             7.8682724   -0.11933240861517
             1.8812885   -0.16085421161283
             0.5442493     1.1434564825515
 s    1 1.00
             0.1687144                   1
 p    3 1.00
             7.8682724   0.068999095584993
             1.8812885    0.31642397975315
             0.5442493    0.74430825237435
 p    1 1.00
             0.1687144                   1
 d    1 1.00
                   0.8                   1

34 0
 s    6 1.00
             3047.5249  0.0018347001629433
             457.36951    0.01403730124668
             103.94869   0.068842606114048
             29.210155    0.23218442062076
              9.286663    0.46794134155879
              3.163927    0.36231203217765
 s    3 1.00
             7.8682724   -0.11933240861517
             1.8812885   -0.16085421161283
             0.5442493     1.1434564825515
 s    1 1.00
             0.1687144                   1
 p    3 1.00
             7.8682724   0.068999095584993
             1.8812885    0.31642397975315
             0.5442493    0.74430825237435
 p    1 1.00
             0.1687144                   1
 d    1 1.00
                   0.8                   1

35 0
 s    3 1.00
             18.731137    0.03349459952309
             2.8253937    0.23472694665786
             0.6401217    0.81375731841339
 s    1 1.00
             0.1612778                   1

36 0
 s    6 1.00
             3047.5249  0.0018347001629433
             457.36951    0.01403730124668
             103.94869   0.068842606114048
             29.210155    0.23218442062076
              9.286663    0.46794134155879
              3.163927    0.36231203217765
 s    3 1.00
             7.8682724   -0.11933240861517
             1.8812885   -0.16085421161283
             0.5442493     1.1434564825515
 s    1 1.00
             0.1687144                   1
 p    3 1.00
             7.8682724   0.068999095584993
             1.8812885    0.31642397975315
             0.5442493    0.74430825237435
 p    1 1.00
             0.1687144                   1
 d    1 1.00
                   0.8                   1

37 0
 s    3 1.00
             18.731137    0.03349459952309
             2.8253937    0.23472694665786
             0.6401217    0.81375731841339
 s    1 1.00
             0.1612778                   1

38 0
 s    3 1.00
             18.731137    0.03349459952309
             2.8253937    0.23472694665786
             0.6401217    0.81375731841339
 s    1 1.00
             0.1612778                   1

39 0
 s    6 1.00
             3047.5249  0.0018347001629433
             457.36951    0.01403730124668
             103.94869   0.068842606114048
             29.210155    0.23218442062076
              9.286663    0.46794134155879
              3.163927    0.36231203217765
 s    3 1.00
             7.8682724   -0.11933240861517
             1.8812885   -0.16085421161283
             0.5442493     1.1434564825515
 s    1 1.00
             0.1687144                   1
 p    3 1.00
             7.8682724   0.068999095584993
             1.8812885    0.31642397975315
             0.5442493    0.74430825237435
 p    1 1.00
             0.1687144                   1
 d    1 1.00
                   0.8                   1

40 0
 s    6 1.00
             3047.5249  0.0018347001629433
             457.36951    0.01403730124668
             103.94869   0.068842606114048
             29.210155    0.23218442062076
              9.286663    0.46794134155879
              3.163927    0.36231203217765
 s    3 1.00
             7.8682724   -0.11933240861517
             1.8812885   -0.16085421161283
             0.5442493     1.1434564825515
 s    1 1.00
             0.1687144                   1
 p    3 1.00
             7.8682724   0.068999095584993
             1.8812885    0.31642397975315
             0.5442493    0.74430825237435
 p    1 1.00
             0.1687144                   1
 d    1 1.00
                   0.8                   1

41 0
 s    3 1.00
             18.731137    0.03349459952309
             2.8253937    0.23472694665786
             0.6401217    0.81375731841339
 s    1 1.00
             0.1612778                   1

42 0
 s    6 1.00
             5484.6717   0.001831099805527
             825.23495   0.013950098518422
             188.04696    0.06844509273075
               52.9645    0.23271427528445
              16.89757    0.47019295006289
             5.7996353    0.35852086192309
 s    3 1.00
             15.539616   -0.11077750382508
             3.5999336   -0.14802630511126
             1.0137618     1.1307670390447
 s    1 1.00
             0.2700058                   1
 p    3 1.00
             15.539616   0.070874299543311
             3.5999336    0.33975279781076
             1.0137618    0.72715859531445
 p    1 1.00
             0.2700058                   1
 d    1 1.00
                   0.8                   1

43 0
 s    3 1.00
             18.731137    0.03349459952309
             2.8253937    0.23472694665786
             0.6401217    0.81375731841339
 s    1 1.00
             0.1612778                   1

[5d]
[7f]
[9g]

[MO]
 Sym= A
 Ene=               0
 Spin= Alpha
 Occup=    1.00000
   1     0.022190956528372
   2    -0.00072963368739983
   3    0.0068180485287817
   4    0.00040828876154255
   5    -0.00019641579438117
   6    0.0011122223887782
   7    0.00071590603646603
   8    0.0014031524335593
   9    -0.0049095316165617
  10    -0.00088562238849654
  11    -0.00089207148329502
  12    0.00012413570885959
  13    -0.00021345358865434
  14    4.5248169149597e-05
  15    -0.00045284311105182
  16    -0.00093396866419646
  17      0.99470882494698
  18     0.036681199725602
  19    -0.027928595331079
  20    0.00092561918277355
  21    0.00019609720487099
  22    -0.00041423563061925
  23    -0.0034441242837592
  24    -0.0011073429203102
  25    -0.00068724657668272
  26    0.00074527067435721
  27    -0.00029284572692274
  28    -0.00033380072653365
  29    0.00027311982398947
  30    0.0002401907000904
  31    -0.0011502230107169
  32    0.0037841468813508
  33     0.018853966787812
  34    -0.00026181780251817
  35    0.0019309254766657
  36    0.0008254472914046
  37    0.00034114197223031
  38    -0.0011301878561011
  39    -0.0030394065688906
  40    0.0025813514541936
  41    0.0031101019132937
  42    -0.00053414924879616
  43     0.001134076987195
  44    0.0005307641397754
  45    -0.00039209472104975
  46    -0.00035408722010777
  47    -0.00052135698970606
  48    -0.00044215054540166
  49    -0.00027377961460145
  50    -0.00048024317851824
  51    -0.00034117428355752
  52    0.00033785939841226
  53    7.6037738367073e-05
  54    -0.00030095131591336
  55    -0.0053870125382757
  56    0.0002334920143977
  57    0.0054433126003325
  58    -0.00016734517471515
  59    2.5129728155177e-05
  60    2.1990353920361e-05
  61    -9.2414436020251e-05
  62    -0.00027636532036193
  63    -0.00043421587092384
  64    0.00014206569222004
  65    -2.3538579913695e-06
  66    -4.6632185549901e-06
  67    4.681268039369e-08
  68    -1.9996416953238e-07
  69    2.210790369359e-06
  70    1.2461879780643e-06
  71    -3.8890637324304e-06
  72    -1.6867021901101e-07
  73    1.2546268702287e-05
  74    2.515885471338e-05
  75    1.0242403957844e-05
  76    -1.9311933831156e-07
  77    -1.7660348333704e-07
  78     1.15639415341e-07
  79    3.9871830454111e-07
  80    3.2188567613658e-09
  81    2.6401758658361e-06
  82    1.3333659516755e-05
  83    3.1411407892965e-08
  84    -2.3499510654447e-07
  85    -5.8139781809238e-05
  86    3.7588342915158e-06
  87    3.028521300502e-06
  88    4.4249839071893e-06
  89    1.7167382119751e-05
  90    -5.6718979237135e-05
  91    8.5933880866763e-06
  92    1.6192948548094e-06
  93    -2.1519833240973e-06
  94    3.2068288552753e-06
  95    -4.5069449771704e-07
  96    -1.0270969316192e-06
  97    6.4520813148744e-06
  98     1.21264348701e-05
  99    -3.1606737714019e-06
 100    -1.7704090078923e-05
 101    -4.3699066261733e-07
 102    -6.9091626321459e-06
 103    0.00014362991946052
 104    -1.8152082836525e-06
 105    -9.1594354437928e-06
 106    -1.9684220991138e-06
 107    -0.00015236649993432
 108    0.00015499928111097
 109    0.00014173121963376
 110    -6.3059970843683e-06
 111    -7.0522272527052e-07
 112    2.1347774464948e-07
 113    3.6603652526216e-07
 114    -4.1013749214121e-06
 115    -3.250563229191e-06
 116    -3.1952486815945e-05
 117    0.00022034503162082
 118    -1.6153231085656e-06
 119    6.0306600327634e-07
 120    5.8114943962686e-06
 121    -5.2532557335454e-05
 122    2.5601921183938e-05
 123    2.3980127588377e-05
 124    1.0666230626487e-06
 125    -3.0618799236343e-06
 126    -1.7971045394431e-06
 127    1.3288632777479e-06
 128    -2.2053072979011e-06
 129    -4.9926019883469e-06
 130    -4.8445827445932e-05
 131    0.00011683251705315
 132    1.9863956734089e-06
 133    -3.2413530619976e-06
 134    2.1930467802879e-05
 135    -0.00025045427379844
 136    4.1079866553464e-06
 137    -0.00036133835518076
 138    6.8160565671753e-06
 139    1.3134818153755e-05
 140    3.9160667399477e-06
 141    4.7789289111336e-06
 142    5.6543547074121e-06
 143    -2.4513425663594e-06
 144    -2.9879601052493e-05
 145    7.287153155633e-05
 146    1.9413560619327e-06
 147    4.9653522934036e-06
 148    1.0830009944221e-05
 149    2.5641024193213e-05
 150    -2.1529746263783e-06
 151    -7.3638167060533e-05
 152    -5.139698638881e-06
 153    -4.422554504769e-06
 154    -2.2620484057199e-06
 155    3.7691277118693e-06
 156    -3.7928611480139e-06
 157    1.4797395851539e-06
 158    1.1315584941613e-05
 159    -3.8499363752513e-05
 160    5.1624765669609e-06
 161    2.2577718548087e-07
 162    -1.8960990749831e-06
 163    -4.5991472861971e-05
 164    2.5359298454929e-05
 165    1.2025290326863e-05
 166    4.2465614331556e-06
 167    -1.2416274988029e-06
 168    -2.7285943731791e-07
 169    9.9915746458593e-07
 170    1.7027283461293e-06
 171    -6.182586595186e-07
 172    -1.3254549656569e-05
 173    2.6584024983524e-05
 174    -3.8271172136688e-06
 175    -2.1829090873583e-07
 176    1.0106914634653e-05
 177    -2.7104351639773e-06
 178    -3.0158315378241e-06
 179    -2.5605012357321e-05
 180    1.5199770438477e-06
 181    4.2112003210772e-06
 182    1.1981559309259e-06
 183    -1.1566260884983e-06
 184    1.2234185465246e-06
 185    -2.8295341030486e-06
 186    -2.4223735954145e-05
 187    6.9108559899588e-05
 188    -1.5790473504835e-06
 189    5.6162381519833e-07
 190    4.490026759519e-06
 191    -7.8025075981001e-06
 192    -1.2278627128056e-05
 193    -5.9496936168378e-05
 194    2.3445665933465e-06
 195    1.4812027029167e-06
 196    2.4070957469011e-06
 197    5.6900979685147e-08
 198    3.4956341513099e-07
 199    -5.8661724991091e-06
 200    2.125007953458e-06
 201    -2.5646334689397e-06
 202    1.6210668747557e-05
 203    -9.3739523355112e-06
 204    2.7333214988319e-06
 205    -1.6695824967306e-06
 206    -2.6338966045591e-05
 207    6.3802998120988e-06
 208    -5.0231369287946e-05
 209    1.0354921212666e-05
 210    -2.3941617257342e-05
 211    6.0667783800759e-06
 212    1.5007166215537e-05
 213    -8.1404131083927e-07
 214    -1.9123784991477e-05
 215    -1.5767220272909e-06
 216    -3.3382698550008e-05
 217    7.8496666265212e-07
 218    8.9523923132924e-06
 219    4.907397951258e-08
 220    -2.1202982312767e-06
 221    -6.8079488826147e-06
 222    -7.2889085561011e-05
 223    0.00076037253937741
 224    -1.3618997878617e-05
 225    -3.7517848208599e-06
 226    9.9735734574671e-06
 227    0.00057861548303819
 228    0.00027702779030619
 229    -0.00074852151483197
 230    1.3580499233717e-06
 231    -3.8177306300274e-05
 232    -1.6770406869985e-05
 233    1.9869861821473e-05
 234    1.9348827414279e-05
 235    -1.6332521116689e-05
 236    -4.37904708436e-05
 237    4.8542067002571e-05
 238    -1.764772821457e-05
 239    -1.4437516362959e-06
 240    3.4771044996304e-06
 241    0.00019201780263915
 242    0.00034692368702256
 243    -0.0014685159475119
 244    1.2870790041157e-05
 245    6.4742169050229e-05
 246    4.4371075263564e-06
 247    1.9268826895058e-05
 248    -6.2454418421139e-06
 249    -2.9006587675792e-05
 250    0.0002961732739729
 251    -1.9422359951207e-05
 252    -0.0003647296345205
 253    0.0016107511787896
 254    6.5866098493022e-05
 255    -2.0858954782396e-05
 256    0.00023351985223016
 257    -0.00019567771594248
 258    0.00016974812840926
 259    -0.0017147650528694
 260    -6.4217981907052e-05
 261    -8.2971512565073e-06
 262    2.2418884599663e-06
 263    0.00013502629502509
 264    6.1457026326749e-05
 265    -8.1240396150303e-05
 266    0.00018398770461179
 267    -0.00014188336353455
 268    -0.00054617881553241
 269    -7.0663781407223e-05
 270    -0.00046777555721285
 271    0.0062175544507506
 272    -0.00012486942043254
 273    7.5265796850985e-05
 274    7.0381728017317e-05
 275    -0.00094461420380146
 276    -0.0022004769102954
 277    0.0029597244924822
 278    0.00010011109056431
 279    -0.00014476403078501
 280    -0.00010725256775825