[Molden Format]
made by pyscf v[2.0.1]
[Atoms] (AU)
C   1   6     0.69100024066471     0.64692934207205    -3.48223131169301
H   2   1     2.68052439830868     1.13355088658700    -3.25784032593313
C   3   6    -0.36286361513219     0.85440132524594    -5.97030179418974
H   4   1    -2.35448549047279     0.36322488579172    -6.17995817793143
C   5   6     0.93697958957450     1.61209284601821    -8.05828437677121
H   6   1     2.28684852848462     3.15852966115860    -7.89296704602693
C   7   6     0.63106041134958     0.47904579632082   -10.50346361691732
H   8   1    -0.72718870892227    -1.06897620367389   -10.63951300078030
H   9   1     1.55630230933075    -1.92953025305990    12.99630010416247
C   10   6     0.75233899775814    -2.21270439606481    11.10705728102219
H   11   1    -0.43433408177274    -3.90944857546550    11.22216085340412
C   12   6     2.86362581178706    -2.63237380607947     9.17926416456045
H   13   1     4.39038949912609    -1.24955421540245     9.49899813497433
H   14   1     3.74629220191363    -4.48798724300892     9.47414880959024
C   15   6     2.02478325613682    -2.42177285709634     6.44560829588644
C   16   6     3.88048732735477    -3.58795445234514     4.61402886975252
C   17   6    -0.18412382258602    -1.30464291234259     5.76021113872346
C   18   6    -2.10044360464350    -0.26837831858460     7.71610340967100
C   19   6    -3.08956938670431     2.35282328359417     6.88693925039594
C   20   6    -4.37372924086464    -2.09766595989678     7.93610724222001
C   21   6    -0.83850430601230     0.06372213486173    10.33002307638377
H   22   1     0.38411922151109     1.74281358582432    10.27380136542181
H   23   1    -2.30980003007874     0.45460143924521    11.73986301809809
H   24   1     4.58527064644668    -5.38706904487420     5.36778158031719
H   25   1     5.54944938085014    -2.37631462192748     4.35398898413318
H   26   1     3.06633019150423    -3.94118377050688     2.75255466040884
H   27   1    -4.17727778763735     2.26573369139522     5.12914900961283
H   28   1    -1.52662344944051     3.68001877445626     6.59540397144508
H   29   1    -4.32916174397830     3.13643051467482     8.35225460090378
H   30   1    -5.32329548508442    -2.36691813602939     6.11583672749896
H   31   1    -5.77989366602257    -1.33896741843465     9.25748940450990
H   32   1    -3.79310905208926    -3.96389819310853     8.61386170102686
C   33   6    -1.01100794811226    -1.06331657314144     3.11929490449947
C   34   6     0.37686231036534    -0.33275864505552     1.09165013605873
H   35   1    -3.01671213906703    -1.40297922279997     2.77827895090944
C   36   6    -0.64382707979370    -0.11591880174385    -1.42063131251064
H   37   1     2.35569259782137     0.17174499283897     1.33641070251401
H   38   1    -2.63317482980319    -0.60229203511219    -1.66119700387645
C   39   6     1.88057107480096     1.17167710004378   -12.63318625924474
C   40   6     1.43424299107759    -0.10242214041261   -15.03828188134704
H   41   1     3.25774949416826     2.69847908646217   -12.62832443574420
O   42   8     2.48751113017790     0.42264932688836   -17.02215443525925
H   43   1     0.01015752982003    -1.65333508727432   -14.95564685399208
[GTO]
1 0
 s    6 1.00
             3047.5249  0.0018347001629433
             457.36951    0.01403730124668
             103.94869   0.068842606114048
             29.210155    0.23218442062076
              9.286663    0.46794134155879
              3.163927    0.36231203217765
 s    3 1.00
             7.8682724   -0.11933240861517
             1.8812885   -0.16085421161283
             0.5442493     1.1434564825515
 s    1 1.00
             0.1687144                   1
 p    3 1.00
             7.8682724   0.068999095584993
             1.8812885    0.31642397975315
             0.5442493    0.74430825237435
 p    1 1.00
             0.1687144                   1
 d    1 1.00
                   0.8                   1

2 0
 s    3 1.00
             18.731137    0.03349459952309
             2.8253937    0.23472694665786
             0.6401217    0.81375731841339
 s    1 1.00
             0.1612778                   1

3 0
 s    6 1.00
             3047.5249  0.0018347001629433
             457.36951    0.01403730124668
             103.94869   0.068842606114048
             29.210155    0.23218442062076
              9.286663    0.46794134155879
              3.163927    0.36231203217765
 s    3 1.00
             7.8682724   -0.11933240861517
             1.8812885   -0.16085421161283
             0.5442493     1.1434564825515
 s    1 1.00
             0.1687144                   1
 p    3 1.00
             7.8682724   0.068999095584993
             1.8812885    0.31642397975315
             0.5442493    0.74430825237435
 p    1 1.00
             0.1687144                   1
 d    1 1.00
                   0.8                   1

4 0
 s    3 1.00
             18.731137    0.03349459952309
             2.8253937    0.23472694665786
             0.6401217    0.81375731841339
 s    1 1.00
             0.1612778                   1

5 0
 s    6 1.00
             3047.5249  0.0018347001629433
             457.36951    0.01403730124668
             103.94869   0.068842606114048
             29.210155    0.23218442062076
              9.286663    0.46794134155879
              3.163927    0.36231203217765
 s    3 1.00
             7.8682724   -0.11933240861517
             1.8812885   -0.16085421161283
             0.5442493     1.1434564825515
 s    1 1.00
             0.1687144                   1
 p    3 1.00
             7.8682724   0.068999095584993
             1.8812885    0.31642397975315
             0.5442493    0.74430825237435
 p    1 1.00
             0.1687144                   1
 d    1 1.00
                   0.8                   1

6 0
 s    3 1.00
             18.731137    0.03349459952309
             2.8253937    0.23472694665786
             0.6401217    0.81375731841339
 s    1 1.00
             0.1612778                   1

7 0
 s    6 1.00
             3047.5249  0.0018347001629433
             457.36951    0.01403730124668
             103.94869   0.068842606114048
             29.210155    0.23218442062076
              9.286663    0.46794134155879
              3.163927    0.36231203217765
 s    3 1.00
             7.8682724   -0.11933240861517
             1.8812885   -0.16085421161283
             0.5442493     1.1434564825515
 s    1 1.00
             0.1687144                   1
 p    3 1.00
             7.8682724   0.068999095584993
             1.8812885    0.31642397975315
             0.5442493    0.74430825237435
 p    1 1.00
             0.1687144                   1
 d    1 1.00
                   0.8                   1

8 0
 s    3 1.00
             18.731137    0.03349459952309
             2.8253937    0.23472694665786
             0.6401217    0.81375731841339
 s    1 1.00
             0.1612778                   1

9 0
 s    3 1.00
             18.731137    0.03349459952309
             2.8253937    0.23472694665786
             0.6401217    0.81375731841339
 s    1 1.00
             0.1612778                   1

10 0
 s    6 1.00
             3047.5249  0.0018347001629433
             457.36951    0.01403730124668
             103.94869   0.068842606114048
             29.210155    0.23218442062076
              9.286663    0.46794134155879
              3.163927    0.36231203217765
 s    3 1.00
             7.8682724   -0.11933240861517
             1.8812885   -0.16085421161283
             0.5442493     1.1434564825515
 s    1 1.00
             0.1687144                   1
 p    3 1.00
             7.8682724   0.068999095584993
             1.8812885    0.31642397975315
             0.5442493    0.74430825237435
 p    1 1.00
             0.1687144                   1
 d    1 1.00
                   0.8                   1

11 0
 s    3 1.00
             18.731137    0.03349459952309
             2.8253937    0.23472694665786
             0.6401217    0.81375731841339
 s    1 1.00
             0.1612778                   1

12 0
 s    6 1.00
             3047.5249  0.0018347001629433
             457.36951    0.01403730124668
             103.94869   0.068842606114048
             29.210155    0.23218442062076
              9.286663    0.46794134155879
              3.163927    0.36231203217765
 s    3 1.00
             7.8682724   -0.11933240861517
             1.8812885   -0.16085421161283
             0.5442493     1.1434564825515
 s    1 1.00
             0.1687144                   1
 p    3 1.00
             7.8682724   0.068999095584993
             1.8812885    0.31642397975315
             0.5442493    0.74430825237435
 p    1 1.00
             0.1687144                   1
 d    1 1.00
                   0.8                   1

13 0
 s    3 1.00
             18.731137    0.03349459952309
             2.8253937    0.23472694665786
             0.6401217    0.81375731841339
 s    1 1.00
             0.1612778                   1

14 0
 s    3 1.00
             18.731137    0.03349459952309
             2.8253937    0.23472694665786
             0.6401217    0.81375731841339
 s    1 1.00
             0.1612778                   1

15 0
 s    6 1.00
             3047.5249  0.0018347001629433
             457.36951    0.01403730124668
             103.94869   0.068842606114048
             29.210155    0.23218442062076
              9.286663    0.46794134155879
              3.163927    0.36231203217765
 s    3 1.00
             7.8682724   -0.11933240861517
             1.8812885   -0.16085421161283
             0.5442493     1.1434564825515
 s    1 1.00
             0.1687144                   1
 p    3 1.00
             7.8682724   0.068999095584993
             1.8812885    0.31642397975315
             0.5442493    0.74430825237435
 p    1 1.00
             0.1687144                   1
 d    1 1.00
                   0.8                   1

16 0
 s    6 1.00
             3047.5249  0.0018347001629433
             457.36951    0.01403730124668
             103.94869   0.068842606114048
             29.210155    0.23218442062076
              9.286663    0.46794134155879
              3.163927    0.36231203217765
 s    3 1.00
             7.8682724   -0.11933240861517
             1.8812885   -0.16085421161283
             0.5442493     1.1434564825515
 s    1 1.00
             0.1687144                   1
 p    3 1.00
             7.8682724   0.068999095584993
             1.8812885    0.31642397975315
             0.5442493    0.74430825237435
 p    1 1.00
             0.1687144                   1
 d    1 1.00
                   0.8                   1

17 0
 s    6 1.00
             3047.5249  0.0018347001629433
             457.36951    0.01403730124668
             103.94869   0.068842606114048
             29.210155    0.23218442062076
              9.286663    0.46794134155879
              3.163927    0.36231203217765
 s    3 1.00
             7.8682724   -0.11933240861517
             1.8812885   -0.16085421161283
             0.5442493     1.1434564825515
 s    1 1.00
             0.1687144                   1
 p    3 1.00
             7.8682724   0.068999095584993
             1.8812885    0.31642397975315
             0.5442493    0.74430825237435
 p    1 1.00
             0.1687144                   1
 d    1 1.00
                   0.8                   1

18 0
 s    6 1.00
             3047.5249  0.0018347001629433
             457.36951    0.01403730124668
             103.94869   0.068842606114048
             29.210155    0.23218442062076
              9.286663    0.46794134155879
              3.163927    0.36231203217765
 s    3 1.00
             7.8682724   -0.11933240861517
             1.8812885   -0.16085421161283
             0.5442493     1.1434564825515
 s    1 1.00
             0.1687144                   1
 p    3 1.00
             7.8682724   0.068999095584993
             1.8812885    0.31642397975315
             0.5442493    0.74430825237435
 p    1 1.00
             0.1687144                   1
 d    1 1.00
                   0.8                   1

19 0
 s    6 1.00
             3047.5249  0.0018347001629433
             457.36951    0.01403730124668
             103.94869   0.068842606114048
             29.210155    0.23218442062076
              9.286663    0.46794134155879
              3.163927    0.36231203217765
 s    3 1.00
             7.8682724   -0.11933240861517
             1.8812885   -0.16085421161283
             0.5442493     1.1434564825515
 s    1 1.00
             0.1687144                   1
 p    3 1.00
             7.8682724   0.068999095584993
             1.8812885    0.31642397975315
             0.5442493    0.74430825237435
 p    1 1.00
             0.1687144                   1
 d    1 1.00
                   0.8                   1

20 0
 s    6 1.00
             3047.5249  0.0018347001629433
             457.36951    0.01403730124668
             103.94869   0.068842606114048
             29.210155    0.23218442062076
              9.286663    0.46794134155879
              3.163927    0.36231203217765
 s    3 1.00
             7.8682724   -0.11933240861517
             1.8812885   -0.16085421161283
             0.5442493     1.1434564825515
 s    1 1.00
             0.1687144                   1
 p    3 1.00
             7.8682724   0.068999095584993
             1.8812885    0.31642397975315
             0.5442493    0.74430825237435
 p    1 1.00
             0.1687144                   1
 d    1 1.00
                   0.8                   1

21 0
 s    6 1.00
             3047.5249  0.0018347001629433
             457.36951    0.01403730124668
             103.94869   0.068842606114048
             29.210155    0.23218442062076
              9.286663    0.46794134155879
              3.163927    0.36231203217765
 s    3 1.00
             7.8682724   -0.11933240861517
             1.8812885   -0.16085421161283
             0.5442493     1.1434564825515
 s    1 1.00
             0.1687144                   1
 p    3 1.00
             7.8682724   0.068999095584993
             1.8812885    0.31642397975315
             0.5442493    0.74430825237435
 p    1 1.00
             0.1687144                   1
 d    1 1.00
                   0.8                   1

22 0
 s    3 1.00
             18.731137    0.03349459952309
             2.8253937    0.23472694665786
             0.6401217    0.81375731841339
 s    1 1.00
             0.1612778                   1

23 0
 s    3 1.00
             18.731137    0.03349459952309
             2.8253937    0.23472694665786
             0.6401217    0.81375731841339
 s    1 1.00
             0.1612778                   1

24 0
 s    3 1.00
             18.731137    0.03349459952309
             2.8253937    0.23472694665786
             0.6401217    0.81375731841339
 s    1 1.00
             0.1612778                   1

25 0
 s    3 1.00
             18.731137    0.03349459952309
             2.8253937    0.23472694665786
             0.6401217    0.81375731841339
 s    1 1.00
             0.1612778                   1

26 0
 s    3 1.00
             18.731137    0.03349459952309
             2.8253937    0.23472694665786
             0.6401217    0.81375731841339
 s    1 1.00
             0.1612778                   1

27 0
 s    3 1.00
             18.731137    0.03349459952309
             2.8253937    0.23472694665786
             0.6401217    0.81375731841339
 s    1 1.00
             0.1612778                   1

28 0
 s    3 1.00
             18.731137    0.03349459952309
             2.8253937    0.23472694665786
             0.6401217    0.81375731841339
 s    1 1.00
             0.1612778                   1

29 0
 s    3 1.00
             18.731137    0.03349459952309
             2.8253937    0.23472694665786
             0.6401217    0.81375731841339
 s    1 1.00
             0.1612778                   1

30 0
 s    3 1.00
             18.731137    0.03349459952309
             2.8253937    0.23472694665786
             0.6401217    0.81375731841339
 s    1 1.00
             0.1612778                   1

31 0
 s    3 1.00
             18.731137    0.03349459952309
             2.8253937    0.23472694665786
             0.6401217    0.81375731841339
 s    1 1.00
             0.1612778                   1

32 0
 s    3 1.00
             18.731137    0.03349459952309
             2.8253937    0.23472694665786
             0.6401217    0.81375731841339
 s    1 1.00
             0.1612778                   1

33 0
 s    6 1.00
             3047.5249  0.0018347001629433
             457.36951    0.01403730124668
             103.94869   0.068842606114048
             29.210155    0.23218442062076
              9.286663    0.46794134155879
              3.163927    0.36231203217765
 s    3 1.00
             7.8682724   -0.11933240861517
             1.8812885   -0.16085421161283
             0.5442493     1.1434564825515
 s    1 1.00
             0.1687144                   1
 p    3 1.00
             7.8682724   0.068999095584993
             1.8812885    0.31642397975315
             0.5442493    0.74430825237435
 p    1 1.00
             0.1687144                   1
 d    1 1.00
                   0.8                   1

34 0
 s    6 1.00
             3047.5249  0.0018347001629433
             457.36951    0.01403730124668
             103.94869   0.068842606114048
             29.210155    0.23218442062076
              9.286663    0.46794134155879
              3.163927    0.36231203217765
 s    3 1.00
             7.8682724   -0.11933240861517
             1.8812885   -0.16085421161283
             0.5442493     1.1434564825515
 s    1 1.00
             0.1687144                   1
 p    3 1.00
             7.8682724   0.068999095584993
             1.8812885    0.31642397975315
             0.5442493    0.74430825237435
 p    1 1.00
             0.1687144                   1
 d    1 1.00
                   0.8                   1

35 0
 s    3 1.00
             18.731137    0.03349459952309
             2.8253937    0.23472694665786
             0.6401217    0.81375731841339
 s    1 1.00
             0.1612778                   1

36 0
 s    6 1.00
             3047.5249  0.0018347001629433
             457.36951    0.01403730124668
             103.94869   0.068842606114048
             29.210155    0.23218442062076
              9.286663    0.46794134155879
              3.163927    0.36231203217765
 s    3 1.00
             7.8682724   -0.11933240861517
             1.8812885   -0.16085421161283
             0.5442493     1.1434564825515
 s    1 1.00
             0.1687144                   1
 p    3 1.00
             7.8682724   0.068999095584993
             1.8812885    0.31642397975315
             0.5442493    0.74430825237435
 p    1 1.00
             0.1687144                   1
 d    1 1.00
                   0.8                   1

37 0
 s    3 1.00
             18.731137    0.03349459952309
             2.8253937    0.23472694665786
             0.6401217    0.81375731841339
 s    1 1.00
             0.1612778                   1

38 0
 s    3 1.00
             18.731137    0.03349459952309
             2.8253937    0.23472694665786
             0.6401217    0.81375731841339
 s    1 1.00
             0.1612778                   1

39 0
 s    6 1.00
             3047.5249  0.0018347001629433
             457.36951    0.01403730124668
             103.94869   0.068842606114048
             29.210155    0.23218442062076
              9.286663    0.46794134155879
              3.163927    0.36231203217765
 s    3 1.00
             7.8682724   -0.11933240861517
             1.8812885   -0.16085421161283
             0.5442493     1.1434564825515
 s    1 1.00
             0.1687144                   1
 p    3 1.00
             7.8682724   0.068999095584993
             1.8812885    0.31642397975315
             0.5442493    0.74430825237435
 p    1 1.00
             0.1687144                   1
 d    1 1.00
                   0.8                   1

40 0
 s    6 1.00
             3047.5249  0.0018347001629433
             457.36951    0.01403730124668
             103.94869   0.068842606114048
             29.210155    0.23218442062076
              9.286663    0.46794134155879
              3.163927    0.36231203217765
 s    3 1.00
             7.8682724   -0.11933240861517
             1.8812885   -0.16085421161283
             0.5442493     1.1434564825515
 s    1 1.00
             0.1687144                   1
 p    3 1.00
             7.8682724   0.068999095584993
             1.8812885    0.31642397975315
             0.5442493    0.74430825237435
 p    1 1.00
             0.1687144                   1
 d    1 1.00
                   0.8                   1

41 0
 s    3 1.00
             18.731137    0.03349459952309
             2.8253937    0.23472694665786
             0.6401217    0.81375731841339
 s    1 1.00
             0.1612778                   1

42 0
 s    6 1.00
             5484.6717   0.001831099805527
             825.23495   0.013950098518422
             188.04696    0.06844509273075
               52.9645    0.23271427528445
              16.89757    0.47019295006289
             5.7996353    0.35852086192309
 s    3 1.00
             15.539616   -0.11077750382508
             3.5999336   -0.14802630511126
             1.0137618     1.1307670390447
 s    1 1.00
             0.2700058                   1
 p    3 1.00
             15.539616   0.070874299543311
             3.5999336    0.33975279781076
             1.0137618    0.72715859531445
 p    1 1.00
             0.2700058                   1
 d    1 1.00
                   0.8                   1

43 0
 s    3 1.00
             18.731137    0.03349459952309
             2.8253937    0.23472694665786
             0.6401217    0.81375731841339
 s    1 1.00
             0.1612778                   1

[5d]
[7f]
[9g]

[MO]
 Sym= A
 Ene=               0
 Spin= Alpha
 Occup=    1.00000
   1     -0.01848614459139
   2    0.00081827190351641
   3    -0.0063754644737603
   4    -0.00040134975946454
   5    6.9419314403675e-05
   6    -0.0011451407517118
   7    -0.00063693623730423
   8    -0.00074638156915551
   9    0.0036096517369342
  10    0.00095170351640929
  11    0.00091468991504144
  12    -0.00012858635084729
  13    0.0002373731644932
  14    -4.3791444641623e-05
  15    0.00042501400521221
  16    0.00085692694035027
  17     -0.99448463220812
  18    -0.036131346724733
  19     0.026813227696026
  20    -0.0007006950216931
  21    -0.00017100633399943
  22    0.00022936010766397
  23    0.0029759131879867
  24    0.00092688418454456
  25    0.00012216299564778
  26    -0.00079944705751465
  27    0.00023717845092443
  28    0.00038235207465191
  29    -0.00025001939718558
  30    -0.00014120128164817
  31      0.00106809129719
  32    -0.0037930799185572
  33    -0.029509841702229
  34    0.00045216434697535
  35    -0.0047005699719202
  36    -0.00081431642925081
  37    -0.00036555068284548
  38    0.0012791814586397
  39    0.0002776501388311
  40    -0.00096559010815443
  41    -0.0045767967054534
  42    0.00063827127841383
  43    -0.00097914579573628
  44    -0.00051151795122662
  45    0.00035576533340614
  46    0.0004156765227425
  47    0.00046894945898464
  48    0.00057081910026381
  49    -0.00081962608422578
  50    0.00037033458696825
  51    -0.00044165658070609
  52    -1.0168447700193e-05
  53    -0.0001134876762634
  54    0.00030949099773016
  55    0.00097635074108246
  56    0.00036870228440807
  57    -0.0040366865484683
  58    3.083627025197e-05
  59    -7.3261171785434e-05
  60    -0.00010790144617187
  61    4.2472834907583e-05
  62    -0.00011503044097235
  63    0.00025431778420685
  64    0.00020289907205734
  65    1.9544575678842e-06
  66    5.1079676366082e-06
  67    -3.7807229560575e-08
  68    -3.3577818427256e-07
  69    -5.2291710248638e-06
  70    -1.042806147851e-06
  71    2.7269480313981e-06
  72    5.6756513898332e-07
  73    -8.1754950735284e-06
  74    -1.9258883494684e-05
  75    -9.8806261476315e-06
  76    3.4466515271006e-07
  77    3.2009640439493e-07
  78    -1.1336152789926e-07
  79    -3.2653549483781e-07
  80    1.0457603474173e-07
  81    -1.7117663280484e-06
  82    -9.6891304703763e-06
  83    8.3159995866922e-08
  84    5.5636846359839e-07
  85    4.0093032385597e-05
  86    -2.3358146263244e-06
  87    -2.3480285029606e-06
  88    -3.2758711354063e-06
  89    -1.3983550389441e-05
  90    4.2077671577882e-05
  91    -4.8503934126497e-06
  92    -1.344025047362e-06
  93    1.7559635765034e-06
  94    -2.1292571423894e-06
  95    3.3239479894807e-07
  96    8.4905792396179e-07
  97    -4.1024716907329e-06
  98    -8.3488536624153e-06
  99    2.3321173988553e-06
 100    1.3194302996845e-05
 101    4.2488984265384e-07
 102    7.6259428798204e-06
 103    -0.00011930349121143
 104    4.9825728212506e-07
 105    5.5974352398221e-06
 106    4.3713555576835e-07
 107    0.00011965671035889
 108    -0.00011307050514665
 109    -0.00010277879379839
 110    5.1469671110214e-06
 111    1.0206980054733e-06
 112    -3.8923500017045e-07
 113    -1.675563808308e-06
 114    2.8682284894022e-06
 115    2.7451898533806e-06
 116    2.7939929944028e-05
 117    -0.00018280407818845
 118    1.3323032699424e-06
 119    -9.1407907328351e-07
 120    -4.9408563159444e-06
 121    3.8943333520096e-05
 122    -1.6014554727189e-05
 123    -7.8469432579165e-06
 124    -8.938031888725e-07
 125    1.5921778495052e-06
 126    1.5006919025369e-06
 127    -3.7082899437413e-07
 128    1.4733003182018e-06
 129    4.6169336031718e-06
 130    4.278003600388e-05
 131    -6.0375609951179e-05
 132    2.9292207159182e-07
 133    5.1146403435509e-06
 134    -1.9522013919123e-05
 135    0.00018093976173811
 136    -2.9741739027732e-05
 137    0.00027323813070986
 138    -6.1644809231857e-06
 139    -9.4604989135397e-06
 140    -2.2511117961787e-06
 141    -3.8330968920467e-06
 142    -3.8116915477689e-06
 143    1.3169481391923e-06
 144    1.7541345369683e-05
 145    -4.2573020930307e-05
 146    -1.5402678436018e-06
 147    -5.8756903975478e-06
 148    -5.0186672089605e-06
 149    -1.8798724860313e-05
 150    3.3906704867463e-05
 151    2.364368348068e-05
 152    4.4964907993846e-06
 153    2.8289365547205e-06
 154    5.6616280056532e-07
 155    -3.3524959369271e-06
 156    1.9524927716515e-06
 157    -5.6796804978147e-07
 158    -4.2199439513111e-06
 159    -5.49974738145e-06
 160    -4.0804306128436e-06
 161    9.8401182047361e-07
 162    -1.6762979601624e-07
 163    2.712291944832e-05
 164    -6.0387923120381e-06
 165    -3.8331004050352e-06
 166    -2.2295357317816e-06
 167    -1.9682108984511e-08
 168    2.5178865191919e-07
 169    -1.0028705580793e-07
 170    -7.90965112636e-07
 171    5.1237045768904e-07
 172    1.0566124750068e-05
 173    -2.1496494175586e-05
 174    1.9266679517498e-06
 175    -2.8320420951923e-07
 176    -7.1054312753851e-06
 177      1.7506383176e-05
 178    5.9101329862219e-06
 179    2.8702183928048e-05
 180    -1.6996076444312e-06
 181    -2.4145716339047e-06
 182    -5.4233563989295e-07
 183    1.6304311574203e-06
 184    -1.2517300954196e-07
 185    1.9797168575776e-06
 186    1.7098527431009e-05
 187    -3.7772726857332e-05
 188    8.1726722347013e-07
 189    -7.2444618128577e-07
 190    -3.9962457644559e-06
 191    9.5205869083765e-07
 192    1.7735991881603e-06
 193    4.3104638677423e-05
 194    -2.061044847169e-06
 195    -5.5700832343197e-07
 196    -6.6474420834847e-07
 197    -7.9126493727281e-08
 198    -2.4645872978343e-08
 199    4.3722509409568e-06
 200    7.3618548401653e-07
 201    1.3888375673824e-06
 202    -1.4370977206028e-05
 203    7.7090338628904e-06
 204    -8.8613008080815e-07
 205    3.0235210394324e-06
 206    2.0086159198833e-05
 207    -8.2244146346088e-06
 208     6.34668911474e-05
 209    -5.9677264179276e-06
 210    2.2177608251746e-05
 211    -2.6783783995075e-06
 212    -9.4075029274266e-06
 213    9.064325571913e-07
 214    1.2135445642075e-05
 215    -1.6819942116012e-06
 216    4.9352824405943e-05
 217    1.5165649592458e-08
 218    -4.7187661729086e-06
 219    4.1731087110945e-07
 220    -1.2545969276422e-06
 221    1.9173724932078e-06
 222    3.7904999343422e-05
 223    -0.00042130238819175
 224    1.8683706109157e-05
 225    1.5652822197424e-06
 226    -9.163583706433e-06
 227    -0.00046827999809382
 228    -0.00018153494829739
 229    0.00043725047424377
 230    4.6445630405317e-06
 231    2.4010006395831e-05
 232    1.0190991539679e-05
 233    -1.2864962048374e-05
 234    -1.4217616711812e-05
 235    1.9956665732356e-05
 236    5.9216765239628e-05
 237    -0.00059704746199709
 238    1.1664585692573e-05
 239    -5.1577523353832e-06
 240    2.2165569406826e-05
 241    -3.0534061296467e-05
 242    -0.00022108297860282
 243    0.0013056446320284
 244    -2.7041864467416e-05
 245    -4.7470145546061e-05
 246    -4.9402462382925e-06
 247    -1.3820238835381e-05
 248    -2.0417546104883e-06
 249    1.7615743219169e-05
 250    -0.00028603008695449
 251    1.2366235205196e-05
 252    0.00028902231815432
 253    -0.00066140592104962
 254    -8.925627329435e-05
 255    4.0063531648336e-05
 256    -0.00022881565021079
 257    0.00069221889570926
 258    -0.00020395039711725
 259     0.001486727824556
 260    7.5076988733801e-05
 261    -5.5855265834704e-06
 262    6.2113482613241e-06
 263    -0.0001130475774303
 264    -7.3456387724438e-05
 265    6.2727252029191e-05
 266    -0.00014865712150937
 267    0.00014940350423289
 268    0.00065597054477652
 269    3.7181126626019e-05
 270    0.00023727274427278
 271    -0.0030323168193861
 272    -3.520025361353e-05
 273    3.8813660144021e-06
 274    -6.4257700781658e-05
 275    0.0013898509221465
 276    0.00070541147570211
 277    -0.001404768255551
 278    -3.593265327029e-05
 279    8.3733364775235e-05
 280    1.7995297597178e-05