[Molden Format]
made by pyscf v[2.0.1]
[Atoms] (AU)
C   1   6     0.69100024066471     0.64692934207205    -3.48223131169301
H   2   1     2.68052439830868     1.13355088658700    -3.25784032593313
C   3   6    -0.36286361513219     0.85440132524594    -5.97030179418974
H   4   1    -2.35448549047279     0.36322488579172    -6.17995817793143
C   5   6     0.93697958957450     1.61209284601821    -8.05828437677121
H   6   1     1.11826626333964     3.62551264984471    -8.45099117670825
C   7   6     2.10097243920823    -0.10888483292738    -9.80174075747215
H   8   1     1.90436861547379    -2.12023320363586    -9.38275759847606
H   9   1     1.55630230933075    -1.92953025305990    12.99630010416247
C   10   6     0.75233899775814    -2.21270439606481    11.10705728102219
H   11   1    -0.43433408177274    -3.90944857546550    11.22216085340412
C   12   6     2.86362581178706    -2.63237380607947     9.17926416456045
H   13   1     4.39038949912609    -1.24955421540245     9.49899813497433
H   14   1     3.74629220191363    -4.48798724300892     9.47414880959024
C   15   6     2.02478325613682    -2.42177285709634     6.44560829588644
C   16   6     3.88048732735477    -3.58795445234514     4.61402886975252
C   17   6    -0.18412382258602    -1.30464291234259     5.76021113872346
C   18   6    -2.10044360464350    -0.26837831858460     7.71610340967100
C   19   6    -3.08956938670431     2.35282328359417     6.88693925039594
C   20   6    -4.37372924086464    -2.09766595989678     7.93610724222001
C   21   6    -0.83850430601230     0.06372213486173    10.33002307638377
H   22   1     0.38411922151109     1.74281358582432    10.27380136542181
H   23   1    -2.30980003007874     0.45460143924521    11.73986301809809
H   24   1     4.58527064644668    -5.38706904487420     5.36778158031719
H   25   1     5.54944938085014    -2.37631462192748     4.35398898413318
H   26   1     3.06633019150423    -3.94118377050688     2.75255466040884
H   27   1    -4.17727778763735     2.26573369139522     5.12914900961283
H   28   1    -1.52662344944051     3.68001877445626     6.59540397144508
H   29   1    -4.32916174397830     3.13643051467482     8.35225460090378
H   30   1    -5.32329548508442    -2.36691813602939     6.11583672749896
H   31   1    -5.77989366602257    -1.33896741843465     9.25748940450990
H   32   1    -3.79310905208926    -3.96389819310853     8.61386170102686
C   33   6    -1.01100794811226    -1.06331657314144     3.11929490449947
C   34   6     0.37686231036534    -0.33275864505552     1.09165013605873
H   35   1    -3.01671213906703    -1.40297922279997     2.77827895090944
C   36   6    -0.64382707979370    -0.11591880174385    -1.42063131251064
H   37   1     2.35569259782137     0.17174499283897     1.33641070251401
H   38   1    -2.63317482980319    -0.60229203511219    -1.66119700387645
C   39   6     3.40965399787931     0.55809653308114   -11.90393532262733
C   40   6     4.52549279160481    -1.34135539088305   -13.56345596406470
H   41   1     3.67536210453709     2.52791097593625   -12.43024189111277
O   42   8     5.72170846290986    -0.87635365493868   -15.48013684009233
H   43   1     4.20717735374393    -3.33265649371778   -12.95224886476863
[GTO]
1 0
 s    6 1.00
             3047.5249  0.0018347001629433
             457.36951    0.01403730124668
             103.94869   0.068842606114048
             29.210155    0.23218442062076
              9.286663    0.46794134155879
              3.163927    0.36231203217765
 s    3 1.00
             7.8682724   -0.11933240861517
             1.8812885   -0.16085421161283
             0.5442493     1.1434564825515
 s    1 1.00
             0.1687144                   1
 p    3 1.00
             7.8682724   0.068999095584993
             1.8812885    0.31642397975315
             0.5442493    0.74430825237435
 p    1 1.00
             0.1687144                   1
 d    1 1.00
                   0.8                   1

2 0
 s    3 1.00
             18.731137    0.03349459952309
             2.8253937    0.23472694665786
             0.6401217    0.81375731841339
 s    1 1.00
             0.1612778                   1

3 0
 s    6 1.00
             3047.5249  0.0018347001629433
             457.36951    0.01403730124668
             103.94869   0.068842606114048
             29.210155    0.23218442062076
              9.286663    0.46794134155879
              3.163927    0.36231203217765
 s    3 1.00
             7.8682724   -0.11933240861517
             1.8812885   -0.16085421161283
             0.5442493     1.1434564825515
 s    1 1.00
             0.1687144                   1
 p    3 1.00
             7.8682724   0.068999095584993
             1.8812885    0.31642397975315
             0.5442493    0.74430825237435
 p    1 1.00
             0.1687144                   1
 d    1 1.00
                   0.8                   1

4 0
 s    3 1.00
             18.731137    0.03349459952309
             2.8253937    0.23472694665786
             0.6401217    0.81375731841339
 s    1 1.00
             0.1612778                   1

5 0
 s    6 1.00
             3047.5249  0.0018347001629433
             457.36951    0.01403730124668
             103.94869   0.068842606114048
             29.210155    0.23218442062076
              9.286663    0.46794134155879
              3.163927    0.36231203217765
 s    3 1.00
             7.8682724   -0.11933240861517
             1.8812885   -0.16085421161283
             0.5442493     1.1434564825515
 s    1 1.00
             0.1687144                   1
 p    3 1.00
             7.8682724   0.068999095584993
             1.8812885    0.31642397975315
             0.5442493    0.74430825237435
 p    1 1.00
             0.1687144                   1
 d    1 1.00
                   0.8                   1

6 0
 s    3 1.00
             18.731137    0.03349459952309
             2.8253937    0.23472694665786
             0.6401217    0.81375731841339
 s    1 1.00
             0.1612778                   1

7 0
 s    6 1.00
             3047.5249  0.0018347001629433
             457.36951    0.01403730124668
             103.94869   0.068842606114048
             29.210155    0.23218442062076
              9.286663    0.46794134155879
              3.163927    0.36231203217765
 s    3 1.00
             7.8682724   -0.11933240861517
             1.8812885   -0.16085421161283
             0.5442493     1.1434564825515
 s    1 1.00
             0.1687144                   1
 p    3 1.00
             7.8682724   0.068999095584993
             1.8812885    0.31642397975315
             0.5442493    0.74430825237435
 p    1 1.00
             0.1687144                   1
 d    1 1.00
                   0.8                   1

8 0
 s    3 1.00
             18.731137    0.03349459952309
             2.8253937    0.23472694665786
             0.6401217    0.81375731841339
 s    1 1.00
             0.1612778                   1

9 0
 s    3 1.00
             18.731137    0.03349459952309
             2.8253937    0.23472694665786
             0.6401217    0.81375731841339
 s    1 1.00
             0.1612778                   1

10 0
 s    6 1.00
             3047.5249  0.0018347001629433
             457.36951    0.01403730124668
             103.94869   0.068842606114048
             29.210155    0.23218442062076
              9.286663    0.46794134155879
              3.163927    0.36231203217765
 s    3 1.00
             7.8682724   -0.11933240861517
             1.8812885   -0.16085421161283
             0.5442493     1.1434564825515
 s    1 1.00
             0.1687144                   1
 p    3 1.00
             7.8682724   0.068999095584993
             1.8812885    0.31642397975315
             0.5442493    0.74430825237435
 p    1 1.00
             0.1687144                   1
 d    1 1.00
                   0.8                   1

11 0
 s    3 1.00
             18.731137    0.03349459952309
             2.8253937    0.23472694665786
             0.6401217    0.81375731841339
 s    1 1.00
             0.1612778                   1

12 0
 s    6 1.00
             3047.5249  0.0018347001629433
             457.36951    0.01403730124668
             103.94869   0.068842606114048
             29.210155    0.23218442062076
              9.286663    0.46794134155879
              3.163927    0.36231203217765
 s    3 1.00
             7.8682724   -0.11933240861517
             1.8812885   -0.16085421161283
             0.5442493     1.1434564825515
 s    1 1.00
             0.1687144                   1
 p    3 1.00
             7.8682724   0.068999095584993
             1.8812885    0.31642397975315
             0.5442493    0.74430825237435
 p    1 1.00
             0.1687144                   1
 d    1 1.00
                   0.8                   1

13 0
 s    3 1.00
             18.731137    0.03349459952309
             2.8253937    0.23472694665786
             0.6401217    0.81375731841339
 s    1 1.00
             0.1612778                   1

14 0
 s    3 1.00
             18.731137    0.03349459952309
             2.8253937    0.23472694665786
             0.6401217    0.81375731841339
 s    1 1.00
             0.1612778                   1

15 0
 s    6 1.00
             3047.5249  0.0018347001629433
             457.36951    0.01403730124668
             103.94869   0.068842606114048
             29.210155    0.23218442062076
              9.286663    0.46794134155879
              3.163927    0.36231203217765
 s    3 1.00
             7.8682724   -0.11933240861517
             1.8812885   -0.16085421161283
             0.5442493     1.1434564825515
 s    1 1.00
             0.1687144                   1
 p    3 1.00
             7.8682724   0.068999095584993
             1.8812885    0.31642397975315
             0.5442493    0.74430825237435
 p    1 1.00
             0.1687144                   1
 d    1 1.00
                   0.8                   1

16 0
 s    6 1.00
             3047.5249  0.0018347001629433
             457.36951    0.01403730124668
             103.94869   0.068842606114048
             29.210155    0.23218442062076
              9.286663    0.46794134155879
              3.163927    0.36231203217765
 s    3 1.00
             7.8682724   -0.11933240861517
             1.8812885   -0.16085421161283
             0.5442493     1.1434564825515
 s    1 1.00
             0.1687144                   1
 p    3 1.00
             7.8682724   0.068999095584993
             1.8812885    0.31642397975315
             0.5442493    0.74430825237435
 p    1 1.00
             0.1687144                   1
 d    1 1.00
                   0.8                   1

17 0
 s    6 1.00
             3047.5249  0.0018347001629433
             457.36951    0.01403730124668
             103.94869   0.068842606114048
             29.210155    0.23218442062076
              9.286663    0.46794134155879
              3.163927    0.36231203217765
 s    3 1.00
             7.8682724   -0.11933240861517
             1.8812885   -0.16085421161283
             0.5442493     1.1434564825515
 s    1 1.00
             0.1687144                   1
 p    3 1.00
             7.8682724   0.068999095584993
             1.8812885    0.31642397975315
             0.5442493    0.74430825237435
 p    1 1.00
             0.1687144                   1
 d    1 1.00
                   0.8                   1

18 0
 s    6 1.00
             3047.5249  0.0018347001629433
             457.36951    0.01403730124668
             103.94869   0.068842606114048
             29.210155    0.23218442062076
              9.286663    0.46794134155879
              3.163927    0.36231203217765
 s    3 1.00
             7.8682724   -0.11933240861517
             1.8812885   -0.16085421161283
             0.5442493     1.1434564825515
 s    1 1.00
             0.1687144                   1
 p    3 1.00
             7.8682724   0.068999095584993
             1.8812885    0.31642397975315
             0.5442493    0.74430825237435
 p    1 1.00
             0.1687144                   1
 d    1 1.00
                   0.8                   1

19 0
 s    6 1.00
             3047.5249  0.0018347001629433
             457.36951    0.01403730124668
             103.94869   0.068842606114048
             29.210155    0.23218442062076
              9.286663    0.46794134155879
              3.163927    0.36231203217765
 s    3 1.00
             7.8682724   -0.11933240861517
             1.8812885   -0.16085421161283
             0.5442493     1.1434564825515
 s    1 1.00
             0.1687144                   1
 p    3 1.00
             7.8682724   0.068999095584993
             1.8812885    0.31642397975315
             0.5442493    0.74430825237435
 p    1 1.00
             0.1687144                   1
 d    1 1.00
                   0.8                   1

20 0
 s    6 1.00
             3047.5249  0.0018347001629433
             457.36951    0.01403730124668
             103.94869   0.068842606114048
             29.210155    0.23218442062076
              9.286663    0.46794134155879
              3.163927    0.36231203217765
 s    3 1.00
             7.8682724   -0.11933240861517
             1.8812885   -0.16085421161283
             0.5442493     1.1434564825515
 s    1 1.00
             0.1687144                   1
 p    3 1.00
             7.8682724   0.068999095584993
             1.8812885    0.31642397975315
             0.5442493    0.74430825237435
 p    1 1.00
             0.1687144                   1
 d    1 1.00
                   0.8                   1

21 0
 s    6 1.00
             3047.5249  0.0018347001629433
             457.36951    0.01403730124668
             103.94869   0.068842606114048
             29.210155    0.23218442062076
              9.286663    0.46794134155879
              3.163927    0.36231203217765
 s    3 1.00
             7.8682724   -0.11933240861517
             1.8812885   -0.16085421161283
             0.5442493     1.1434564825515
 s    1 1.00
             0.1687144                   1
 p    3 1.00
             7.8682724   0.068999095584993
             1.8812885    0.31642397975315
             0.5442493    0.74430825237435
 p    1 1.00
             0.1687144                   1
 d    1 1.00
                   0.8                   1

22 0
 s    3 1.00
             18.731137    0.03349459952309
             2.8253937    0.23472694665786
             0.6401217    0.81375731841339
 s    1 1.00
             0.1612778                   1

23 0
 s    3 1.00
             18.731137    0.03349459952309
             2.8253937    0.23472694665786
             0.6401217    0.81375731841339
 s    1 1.00
             0.1612778                   1

24 0
 s    3 1.00
             18.731137    0.03349459952309
             2.8253937    0.23472694665786
             0.6401217    0.81375731841339
 s    1 1.00
             0.1612778                   1

25 0
 s    3 1.00
             18.731137    0.03349459952309
             2.8253937    0.23472694665786
             0.6401217    0.81375731841339
 s    1 1.00
             0.1612778                   1

26 0
 s    3 1.00
             18.731137    0.03349459952309
             2.8253937    0.23472694665786
             0.6401217    0.81375731841339
 s    1 1.00
             0.1612778                   1

27 0
 s    3 1.00
             18.731137    0.03349459952309
             2.8253937    0.23472694665786
             0.6401217    0.81375731841339
 s    1 1.00
             0.1612778                   1

28 0
 s    3 1.00
             18.731137    0.03349459952309
             2.8253937    0.23472694665786
             0.6401217    0.81375731841339
 s    1 1.00
             0.1612778                   1

29 0
 s    3 1.00
             18.731137    0.03349459952309
             2.8253937    0.23472694665786
             0.6401217    0.81375731841339
 s    1 1.00
             0.1612778                   1

30 0
 s    3 1.00
             18.731137    0.03349459952309
             2.8253937    0.23472694665786
             0.6401217    0.81375731841339
 s    1 1.00
             0.1612778                   1

31 0
 s    3 1.00
             18.731137    0.03349459952309
             2.8253937    0.23472694665786
             0.6401217    0.81375731841339
 s    1 1.00
             0.1612778                   1

32 0
 s    3 1.00
             18.731137    0.03349459952309
             2.8253937    0.23472694665786
             0.6401217    0.81375731841339
 s    1 1.00
             0.1612778                   1

33 0
 s    6 1.00
             3047.5249  0.0018347001629433
             457.36951    0.01403730124668
             103.94869   0.068842606114048
             29.210155    0.23218442062076
              9.286663    0.46794134155879
              3.163927    0.36231203217765
 s    3 1.00
             7.8682724   -0.11933240861517
             1.8812885   -0.16085421161283
             0.5442493     1.1434564825515
 s    1 1.00
             0.1687144                   1
 p    3 1.00
             7.8682724   0.068999095584993
             1.8812885    0.31642397975315
             0.5442493    0.74430825237435
 p    1 1.00
             0.1687144                   1
 d    1 1.00
                   0.8                   1

34 0
 s    6 1.00
             3047.5249  0.0018347001629433
             457.36951    0.01403730124668
             103.94869   0.068842606114048
             29.210155    0.23218442062076
              9.286663    0.46794134155879
              3.163927    0.36231203217765
 s    3 1.00
             7.8682724   -0.11933240861517
             1.8812885   -0.16085421161283
             0.5442493     1.1434564825515
 s    1 1.00
             0.1687144                   1
 p    3 1.00
             7.8682724   0.068999095584993
             1.8812885    0.31642397975315
             0.5442493    0.74430825237435
 p    1 1.00
             0.1687144                   1
 d    1 1.00
                   0.8                   1

35 0
 s    3 1.00
             18.731137    0.03349459952309
             2.8253937    0.23472694665786
             0.6401217    0.81375731841339
 s    1 1.00
             0.1612778                   1

36 0
 s    6 1.00
             3047.5249  0.0018347001629433
             457.36951    0.01403730124668
             103.94869   0.068842606114048
             29.210155    0.23218442062076
              9.286663    0.46794134155879
              3.163927    0.36231203217765
 s    3 1.00
             7.8682724   -0.11933240861517
             1.8812885   -0.16085421161283
             0.5442493     1.1434564825515
 s    1 1.00
             0.1687144                   1
 p    3 1.00
             7.8682724   0.068999095584993
             1.8812885    0.31642397975315
             0.5442493    0.74430825237435
 p    1 1.00
             0.1687144                   1
 d    1 1.00
                   0.8                   1

37 0
 s    3 1.00
             18.731137    0.03349459952309
             2.8253937    0.23472694665786
             0.6401217    0.81375731841339
 s    1 1.00
             0.1612778                   1

38 0
 s    3 1.00
             18.731137    0.03349459952309
             2.8253937    0.23472694665786
             0.6401217    0.81375731841339
 s    1 1.00
             0.1612778                   1

39 0
 s    6 1.00
             3047.5249  0.0018347001629433
             457.36951    0.01403730124668
             103.94869   0.068842606114048
             29.210155    0.23218442062076
              9.286663    0.46794134155879
              3.163927    0.36231203217765
 s    3 1.00
             7.8682724   -0.11933240861517
             1.8812885   -0.16085421161283
             0.5442493     1.1434564825515
 s    1 1.00
             0.1687144                   1
 p    3 1.00
             7.8682724   0.068999095584993
             1.8812885    0.31642397975315
             0.5442493    0.74430825237435
 p    1 1.00
             0.1687144                   1
 d    1 1.00
                   0.8                   1

40 0
 s    6 1.00
             3047.5249  0.0018347001629433
             457.36951    0.01403730124668
             103.94869   0.068842606114048
             29.210155    0.23218442062076
              9.286663    0.46794134155879
              3.163927    0.36231203217765
 s    3 1.00
             7.8682724   -0.11933240861517
             1.8812885   -0.16085421161283
             0.5442493     1.1434564825515
 s    1 1.00
             0.1687144                   1
 p    3 1.00
             7.8682724   0.068999095584993
             1.8812885    0.31642397975315
             0.5442493    0.74430825237435
 p    1 1.00
             0.1687144                   1
 d    1 1.00
                   0.8                   1

41 0
 s    3 1.00
             18.731137    0.03349459952309
             2.8253937    0.23472694665786
             0.6401217    0.81375731841339
 s    1 1.00
             0.1612778                   1

42 0
 s    6 1.00
             5484.6717   0.001831099805527
             825.23495   0.013950098518422
             188.04696    0.06844509273075
               52.9645    0.23271427528445
              16.89757    0.47019295006289
             5.7996353    0.35852086192309
 s    3 1.00
             15.539616   -0.11077750382508
             3.5999336   -0.14802630511126
             1.0137618     1.1307670390447
 s    1 1.00
             0.2700058                   1
 p    3 1.00
             15.539616   0.070874299543311
             3.5999336    0.33975279781076
             1.0137618    0.72715859531445
 p    1 1.00
             0.2700058                   1
 d    1 1.00
                   0.8                   1

43 0
 s    3 1.00
             18.731137    0.03349459952309
             2.8253937    0.23472694665786
             0.6401217    0.81375731841339
 s    1 1.00
             0.1612778                   1

[5d]
[7f]
[9g]

[MO]
 Sym= A
 Ene=               0
 Spin= Alpha
 Occup=    1.00000
   1    -0.020626771222084
   2    0.00083854161498936
   3    -0.0068075681143958
   4    -0.00036695418133544
   5    0.00011308842091033
   6    -0.0011713852189106
   7    -0.00083704788737003
   8    -0.0011980227380013
   9    0.0054149226453689
  10    0.00089321890221318
  11    0.00085559445822333
  12    -0.00014330312396915
  13    0.00020576705637817
  14    -3.9109751240119e-05
  15    0.00049427536388803
  16    0.00088371791255764
  17     -0.99484258166884
  18    -0.036832867049172
  19       0.0283740145151
  20    -0.00090901050669119
  21    -0.0001530959397576
  22    0.00056258819363884
  23    0.0035074519809124
  24    0.0010398545946479
  25    0.00076152798036804
  26    -0.0007730791519033
  27    0.00029699025174572
  28    0.00034484773359758
  29    -0.00029979311904869
  30    -0.00019370073626396
  31    0.0011035806971418
  32    -0.0038853618987046
  33    -0.013313124701283
  34    0.00025406509734409
  35    -0.00094945746244783
  36    -0.00083472458179984
  37    -0.00031447680320474
  38    0.0011172915317865
  39     0.002121977847991
  40    -0.0035272326226361
  41    -0.0042225744693623
  42    0.00061417999101011
  43    -0.0011665121517354
  44    -0.00044398104581345
  45    0.0003315983248899
  46    0.00038947728412364
  47    0.00054885653257414
  48    0.00060884452937301
  49    0.00029524949966816
  50    0.00055135471374457
  51    -0.00036846662950324
  52    -0.00022253952698693
  53    -2.141576427801e-05
  54    0.00041730723060631
  55    0.0045228634968284
  56    -0.0011535579512601
  57    -0.0071143970200316
  58    0.0001349465756118
  59    1.2685579232666e-05
  60    -0.00018081704046853
  61    0.00024737092285298
  62    0.00015282947744397
  63     0.000473290859311
  64    -0.00024600697700093
  65    2.6818628694622e-06
  66    4.2968305107142e-06
  67    1.220952437866e-07
  68    1.3748501730025e-06
  69    -7.4301217887081e-06
  70    -2.3158661026293e-06
  71    4.5381117436087e-06
  72    2.5167700390112e-07
  73    -1.2706812146729e-05
  74    -2.4123714207148e-05
  75    -9.1876314877535e-06
  76    1.3797762634605e-07
  77    3.7002785175434e-07
  78    -3.5088363469894e-07
  79    -5.7988953527452e-07
  80    6.2579322398751e-08
  81    -2.3192379989823e-06
  82    -1.2035616813763e-05
  83    -1.9181636881223e-07
  84    -1.3434214246377e-06
  85    6.5449659446149e-05
  86    -3.4482372185087e-06
  87    -2.9345166060761e-06
  88    -5.1106275174568e-06
  89    -2.410986376923e-05
  90    6.2229561893406e-05
  91    -7.1498483750174e-06
  92    -1.6022052210587e-06
  93    2.770027244034e-06
  94    -3.6263172518231e-06
  95    7.503516628907e-07
  96     1.09165098073e-06
  97    -6.4335097870169e-06
  98    -1.0920646660547e-05
  99    3.0678379754934e-06
 100    1.8048022846106e-05
 101    1.0760652929281e-06
 102    1.216092014712e-05
 103    -0.00023275757590203
 104    7.611118173759e-07
 105    6.2005408581222e-06
 106    3.2846723882845e-06
 107    0.00018900716825068
 108    -0.00018187551235456
 109    -0.00013421017186695
 110    5.7733412025304e-06
 111    1.5873823431936e-07
 112    -5.8544124712275e-08
 113    -1.572550856958e-06
 114    5.3653205245324e-06
 115    3.209033453663e-06
 116    3.2209104796253e-05
 117    -0.00023270506790157
 118    2.3760613269379e-06
 119    -3.0771485188585e-06
 120    -5.2690998050539e-06
 121      4.7673903442e-05
 122    -1.0038741196714e-05
 123    -2.8384132632975e-05
 124    -1.550306163071e-06
 125    2.6767555507186e-06
 126    2.4066836325327e-06
 127    -4.6176236401676e-07
 128    2.1402850250948e-06
 129    5.3775549229411e-06
 130    5.2107403610343e-05
 131    -0.00015095671230109
 132    -5.6227652014543e-06
 133    4.8162181750559e-06
 134    -2.1830499565777e-05
 135    0.00034591163932271
 136    -4.4910719343195e-05
 137    0.00040252235878512
 138    -9.5277024857285e-06
 139    -1.2844993290969e-05
 140    -5.635858533546e-06
 141    -4.3613292034606e-06
 142    -6.6084584751358e-06
 143    1.9616039563125e-06
 144    2.5081144876276e-05
 145    -2.359739803593e-05
 146    -2.4607372533796e-06
 147    -5.8480352623585e-06
 148    -1.1624129944493e-05
 149    -1.432934378418e-05
 150    3.6662518951175e-06
 151    5.6108229197613e-05
 152    6.9527481511352e-06
 153    3.5860200406663e-06
 154    2.9243306689964e-06
 155    -4.1907457627606e-06
 156    3.8585375303055e-06
 157    -1.4106349326361e-06
 158    -1.1823970702931e-05
 159    3.049483931122e-05
 160    -5.7552584109021e-06
 161    2.4803449368718e-07
 162    1.4383453039127e-06
 163    4.7418117735225e-05
 164    -2.1599084571323e-05
 165    -9.5498531822118e-06
 166    -4.0896250212266e-06
 167    4.7839037998185e-07
 168    2.0529565755926e-07
 169    -6.8745363925067e-07
 170    -1.8364219156535e-06
 171    4.3542497496899e-07
 172    1.1685651884963e-05
 173    -2.126934793275e-05
 174    3.7990124325781e-06
 175    2.3058902023556e-07
 176    -1.0627791336584e-05
 177    2.7708847438813e-06
 178    1.6593083643686e-06
 179    2.6336135121681e-05
 180    -1.5826952111979e-06
 181    -4.500568641395e-06
 182    -7.1848095420159e-07
 183    1.2886234938865e-06
 184    -1.4972549492525e-06
 185    3.2394200385692e-06
 186    2.8520744119792e-05
 187    -8.0971111889203e-05
 188    2.4159319282132e-06
 189    -7.61262615553e-07
 190    -5.2522280038111e-06
 191    8.9274715802887e-07
 192    1.2365704015223e-05
 193    7.0108167010039e-05
 194    -3.3257777030062e-06
 195    -1.5495307790739e-06
 196    -2.5234136329555e-06
 197    3.4059403518626e-07
 198    -3.4529587817368e-07
 199    7.5749998709519e-06
 200    5.2714358896319e-07
 201    1.9119615380987e-06
 202    -2.0627111332146e-05
 203    1.0888508477814e-05
 204    5.7903615222168e-06
 205    1.0048458906059e-06
 206     2.64251269632e-05
 207    -1.0040150438554e-05
 208    6.4368145570962e-05
 209    -1.0428956789066e-05
 210    2.6064469183792e-05
 211    -5.7389978392849e-06
 212    -1.6708632115772e-05
 213    7.246774585431e-07
 214    2.0403125511169e-05
 215    2.4969921245685e-06
 216    2.9052534005276e-05
 217    -1.5386347234423e-06
 218    -8.3053904014727e-06
 219    -5.2554976009868e-07
 220    8.6017269739178e-07
 221    7.9029067455297e-06
 222    8.1431878149228e-05
 223    -0.00080038368532368
 224    1.2323769612348e-05
 225    4.1608883197519e-06
 226    -1.2178624448791e-05
 227    -0.00059783819318734
 228    -0.00028417415055407
 229    0.00087823166742702
 230    -1.49320822468e-06
 231    4.0879082936723e-05
 232    2.0518983681313e-05
 233    -2.0426929680768e-05
 234    -2.1351909392071e-05
 235    1.4699607703371e-05
 236    3.8366182944998e-05
 237    0.00015938402719004
 238    1.9477235524256e-05
 239    2.3103494669508e-06
 240    -8.7268778634308e-06
 241    -0.0002629057096086
 242    -0.00031438200689079
 243    0.0014559049397565
 244    -1.0619988275797e-05
 245    -6.6129326044511e-05
 246    -1.3419356874915e-05
 247    -1.7766172248173e-05
 248    3.3014627900202e-07
 249    3.2515193281531e-05
 250    -0.00029479124701268
 251    2.4613941593617e-05
 252    0.00039026780472417
 253    -0.0020337435875546
 254    -7.2649713930185e-05
 255    3.4208186633913e-05
 256    -0.00021751161111722
 257    4.5863263847174e-05
 258    -0.0004101233065697
 259     0.001733811695563
 260    5.8599090803945e-05
 261    1.4747305626148e-05
 262    1.7330315332073e-05
 263    -0.00013011071455176
 264    -8.2797579375114e-05
 265    8.6003353382168e-05
 266    -0.00019220945251818
 267    0.00013535111245971
 268    0.00050992822704506
 269    7.4370961463362e-05
 270    0.00049574706449448
 271    -0.0065783604442925
 272    6.4994301815451e-05
 273    -0.00010943911909663
 274    -0.00012527869529616
 275    0.0016224300397672
 276    0.0027225676857069
 277    -0.0025287720396046
 278    -7.5686308547026e-05
 279    0.00017353212482249
 280    8.4766201740043e-05
 281    2.9692790257676e-05