[Molden Format]
made by pyscf v[2.0.1]
[Atoms] (AU)
C   1   6     0.69100024066471     0.64692934207205    -3.48223131169301
H   2   1     2.68052439830868     1.13355088658700    -3.25784032593313
C   3   6    -0.36286361513219     0.85440132524594    -5.97030179418974
H   4   1    -2.35448549047279     0.36322488579172    -6.17995817793143
C   5   6     0.93697958957450     1.61209284601821    -8.05828437677121
H   6   1     1.09182490265505     3.62435627880799    -8.46787148771875
C   7   6     2.13423629966321    -0.10744231105711    -9.78050935942977
H   8   1     1.96390963868834    -2.11762116447114    -9.34474333768613
H   9   1     1.55630230933075    -1.92953025305990    12.99630010416247
C   10   6     0.75233899775814    -2.21270439606481    11.10705728102219
H   11   1    -0.43433408177274    -3.90944857546550    11.22216085340412
C   12   6     2.86362581178706    -2.63237380607947     9.17926416456045
H   13   1     4.39038949912609    -1.24955421540245     9.49899813497433
H   14   1     3.74629220191363    -4.48798724300892     9.47414880959024
C   15   6     2.02478325613682    -2.42177285709634     6.44560829588644
C   16   6     3.88048732735477    -3.58795445234514     4.61402886975252
C   17   6    -0.18412382258602    -1.30464291234259     5.76021113872346
C   18   6    -2.10044360464350    -0.26837831858460     7.71610340967100
C   19   6    -3.08956938670431     2.35282328359417     6.88693925039594
C   20   6    -4.37372924086464    -2.09766595989678     7.93610724222001
C   21   6    -0.83850430601230     0.06372213486173    10.33002307638377
H   22   1     0.38411922151109     1.74281358582432    10.27380136542181
H   23   1    -2.30980003007874     0.45460143924521    11.73986301809809
H   24   1     4.58527064644668    -5.38706904487420     5.36778158031719
H   25   1     5.54944938085014    -2.37631462192748     4.35398898413318
H   26   1     3.06633019150423    -3.94118377050688     2.75255466040884
H   27   1    -4.17727778763735     2.26573369139522     5.12914900961283
H   28   1    -1.52662344944051     3.68001877445626     6.59540397144508
H   29   1    -4.32916174397830     3.13643051467482     8.35225460090378
H   30   1    -5.32329548508442    -2.36691813602939     6.11583672749896
H   31   1    -5.77989366602257    -1.33896741843465     9.25748940450990
H   32   1    -3.79310905208926    -3.96389819310853     8.61386170102686
C   33   6    -1.01100794811226    -1.06331657314144     3.11929490449947
C   34   6     0.37686231036534    -0.33275864505552     1.09165013605873
H   35   1    -3.01671213906703    -1.40297922279997     2.77827895090944
C   36   6    -0.64382707979370    -0.11591880174385    -1.42063131251064
H   37   1     2.35569259782137     0.17174499283897     1.33641070251401
H   38   1    -2.63317482980319    -0.60229203511219    -1.66119700387645
C   39   6     3.44427310754987     0.55955226130243   -11.88185544133447
C   40   6     4.59546774580895    -1.33837842065929   -13.51881378425706
H   41   1     3.68484150802705     2.52824088205540   -12.42422090941845
O   42   8     5.79494197127018    -0.87330187518197   -15.43343894779829
H   43   1     4.30216020100717    -3.32855150553013   -12.89162904717628
[GTO]
1 0
 s    6 1.00
             3047.5249  0.0018347001629433
             457.36951    0.01403730124668
             103.94869   0.068842606114048
             29.210155    0.23218442062076
              9.286663    0.46794134155879
              3.163927    0.36231203217765
 s    3 1.00
             7.8682724   -0.11933240861517
             1.8812885   -0.16085421161283
             0.5442493     1.1434564825515
 s    1 1.00
             0.1687144                   1
 p    3 1.00
             7.8682724   0.068999095584993
             1.8812885    0.31642397975315
             0.5442493    0.74430825237435
 p    1 1.00
             0.1687144                   1
 d    1 1.00
                   0.8                   1

2 0
 s    3 1.00
             18.731137    0.03349459952309
             2.8253937    0.23472694665786
             0.6401217    0.81375731841339
 s    1 1.00
             0.1612778                   1

3 0
 s    6 1.00
             3047.5249  0.0018347001629433
             457.36951    0.01403730124668
             103.94869   0.068842606114048
             29.210155    0.23218442062076
              9.286663    0.46794134155879
              3.163927    0.36231203217765
 s    3 1.00
             7.8682724   -0.11933240861517
             1.8812885   -0.16085421161283
             0.5442493     1.1434564825515
 s    1 1.00
             0.1687144                   1
 p    3 1.00
             7.8682724   0.068999095584993
             1.8812885    0.31642397975315
             0.5442493    0.74430825237435
 p    1 1.00
             0.1687144                   1
 d    1 1.00
                   0.8                   1

4 0
 s    3 1.00
             18.731137    0.03349459952309
             2.8253937    0.23472694665786
             0.6401217    0.81375731841339
 s    1 1.00
             0.1612778                   1

5 0
 s    6 1.00
             3047.5249  0.0018347001629433
             457.36951    0.01403730124668
             103.94869   0.068842606114048
             29.210155    0.23218442062076
              9.286663    0.46794134155879
              3.163927    0.36231203217765
 s    3 1.00
             7.8682724   -0.11933240861517
             1.8812885   -0.16085421161283
             0.5442493     1.1434564825515
 s    1 1.00
             0.1687144                   1
 p    3 1.00
             7.8682724   0.068999095584993
             1.8812885    0.31642397975315
             0.5442493    0.74430825237435
 p    1 1.00
             0.1687144                   1
 d    1 1.00
                   0.8                   1

6 0
 s    3 1.00
             18.731137    0.03349459952309
             2.8253937    0.23472694665786
             0.6401217    0.81375731841339
 s    1 1.00
             0.1612778                   1

7 0
 s    6 1.00
             3047.5249  0.0018347001629433
             457.36951    0.01403730124668
             103.94869   0.068842606114048
             29.210155    0.23218442062076
              9.286663    0.46794134155879
              3.163927    0.36231203217765
 s    3 1.00
             7.8682724   -0.11933240861517
             1.8812885   -0.16085421161283
             0.5442493     1.1434564825515
 s    1 1.00
             0.1687144                   1
 p    3 1.00
             7.8682724   0.068999095584993
             1.8812885    0.31642397975315
             0.5442493    0.74430825237435
 p    1 1.00
             0.1687144                   1
 d    1 1.00
                   0.8                   1

8 0
 s    3 1.00
             18.731137    0.03349459952309
             2.8253937    0.23472694665786
             0.6401217    0.81375731841339
 s    1 1.00
             0.1612778                   1

9 0
 s    3 1.00
             18.731137    0.03349459952309
             2.8253937    0.23472694665786
             0.6401217    0.81375731841339
 s    1 1.00
             0.1612778                   1

10 0
 s    6 1.00
             3047.5249  0.0018347001629433
             457.36951    0.01403730124668
             103.94869   0.068842606114048
             29.210155    0.23218442062076
              9.286663    0.46794134155879
              3.163927    0.36231203217765
 s    3 1.00
             7.8682724   -0.11933240861517
             1.8812885   -0.16085421161283
             0.5442493     1.1434564825515
 s    1 1.00
             0.1687144                   1
 p    3 1.00
             7.8682724   0.068999095584993
             1.8812885    0.31642397975315
             0.5442493    0.74430825237435
 p    1 1.00
             0.1687144                   1
 d    1 1.00
                   0.8                   1

11 0
 s    3 1.00
             18.731137    0.03349459952309
             2.8253937    0.23472694665786
             0.6401217    0.81375731841339
 s    1 1.00
             0.1612778                   1

12 0
 s    6 1.00
             3047.5249  0.0018347001629433
             457.36951    0.01403730124668
             103.94869   0.068842606114048
             29.210155    0.23218442062076
              9.286663    0.46794134155879
              3.163927    0.36231203217765
 s    3 1.00
             7.8682724   -0.11933240861517
             1.8812885   -0.16085421161283
             0.5442493     1.1434564825515
 s    1 1.00
             0.1687144                   1
 p    3 1.00
             7.8682724   0.068999095584993
             1.8812885    0.31642397975315
             0.5442493    0.74430825237435
 p    1 1.00
             0.1687144                   1
 d    1 1.00
                   0.8                   1

13 0
 s    3 1.00
             18.731137    0.03349459952309
             2.8253937    0.23472694665786
             0.6401217    0.81375731841339
 s    1 1.00
             0.1612778                   1

14 0
 s    3 1.00
             18.731137    0.03349459952309
             2.8253937    0.23472694665786
             0.6401217    0.81375731841339
 s    1 1.00
             0.1612778                   1

15 0
 s    6 1.00
             3047.5249  0.0018347001629433
             457.36951    0.01403730124668
             103.94869   0.068842606114048
             29.210155    0.23218442062076
              9.286663    0.46794134155879
              3.163927    0.36231203217765
 s    3 1.00
             7.8682724   -0.11933240861517
             1.8812885   -0.16085421161283
             0.5442493     1.1434564825515
 s    1 1.00
             0.1687144                   1
 p    3 1.00
             7.8682724   0.068999095584993
             1.8812885    0.31642397975315
             0.5442493    0.74430825237435
 p    1 1.00
             0.1687144                   1
 d    1 1.00
                   0.8                   1

16 0
 s    6 1.00
             3047.5249  0.0018347001629433
             457.36951    0.01403730124668
             103.94869   0.068842606114048
             29.210155    0.23218442062076
              9.286663    0.46794134155879
              3.163927    0.36231203217765
 s    3 1.00
             7.8682724   -0.11933240861517
             1.8812885   -0.16085421161283
             0.5442493     1.1434564825515
 s    1 1.00
             0.1687144                   1
 p    3 1.00
             7.8682724   0.068999095584993
             1.8812885    0.31642397975315
             0.5442493    0.74430825237435
 p    1 1.00
             0.1687144                   1
 d    1 1.00
                   0.8                   1

17 0
 s    6 1.00
             3047.5249  0.0018347001629433
             457.36951    0.01403730124668
             103.94869   0.068842606114048
             29.210155    0.23218442062076
              9.286663    0.46794134155879
              3.163927    0.36231203217765
 s    3 1.00
             7.8682724   -0.11933240861517
             1.8812885   -0.16085421161283
             0.5442493     1.1434564825515
 s    1 1.00
             0.1687144                   1
 p    3 1.00
             7.8682724   0.068999095584993
             1.8812885    0.31642397975315
             0.5442493    0.74430825237435
 p    1 1.00
             0.1687144                   1
 d    1 1.00
                   0.8                   1

18 0
 s    6 1.00
             3047.5249  0.0018347001629433
             457.36951    0.01403730124668
             103.94869   0.068842606114048
             29.210155    0.23218442062076
              9.286663    0.46794134155879
              3.163927    0.36231203217765
 s    3 1.00
             7.8682724   -0.11933240861517
             1.8812885   -0.16085421161283
             0.5442493     1.1434564825515
 s    1 1.00
             0.1687144                   1
 p    3 1.00
             7.8682724   0.068999095584993
             1.8812885    0.31642397975315
             0.5442493    0.74430825237435
 p    1 1.00
             0.1687144                   1
 d    1 1.00
                   0.8                   1

19 0
 s    6 1.00
             3047.5249  0.0018347001629433
             457.36951    0.01403730124668
             103.94869   0.068842606114048
             29.210155    0.23218442062076
              9.286663    0.46794134155879
              3.163927    0.36231203217765
 s    3 1.00
             7.8682724   -0.11933240861517
             1.8812885   -0.16085421161283
             0.5442493     1.1434564825515
 s    1 1.00
             0.1687144                   1
 p    3 1.00
             7.8682724   0.068999095584993
             1.8812885    0.31642397975315
             0.5442493    0.74430825237435
 p    1 1.00
             0.1687144                   1
 d    1 1.00
                   0.8                   1

20 0
 s    6 1.00
             3047.5249  0.0018347001629433
             457.36951    0.01403730124668
             103.94869   0.068842606114048
             29.210155    0.23218442062076
              9.286663    0.46794134155879
              3.163927    0.36231203217765
 s    3 1.00
             7.8682724   -0.11933240861517
             1.8812885   -0.16085421161283
             0.5442493     1.1434564825515
 s    1 1.00
             0.1687144                   1
 p    3 1.00
             7.8682724   0.068999095584993
             1.8812885    0.31642397975315
             0.5442493    0.74430825237435
 p    1 1.00
             0.1687144                   1
 d    1 1.00
                   0.8                   1

21 0
 s    6 1.00
             3047.5249  0.0018347001629433
             457.36951    0.01403730124668
             103.94869   0.068842606114048
             29.210155    0.23218442062076
              9.286663    0.46794134155879
              3.163927    0.36231203217765
 s    3 1.00
             7.8682724   -0.11933240861517
             1.8812885   -0.16085421161283
             0.5442493     1.1434564825515
 s    1 1.00
             0.1687144                   1
 p    3 1.00
             7.8682724   0.068999095584993
             1.8812885    0.31642397975315
             0.5442493    0.74430825237435
 p    1 1.00
             0.1687144                   1
 d    1 1.00
                   0.8                   1

22 0
 s    3 1.00
             18.731137    0.03349459952309
             2.8253937    0.23472694665786
             0.6401217    0.81375731841339
 s    1 1.00
             0.1612778                   1

23 0
 s    3 1.00
             18.731137    0.03349459952309
             2.8253937    0.23472694665786
             0.6401217    0.81375731841339
 s    1 1.00
             0.1612778                   1

24 0
 s    3 1.00
             18.731137    0.03349459952309
             2.8253937    0.23472694665786
             0.6401217    0.81375731841339
 s    1 1.00
             0.1612778                   1

25 0
 s    3 1.00
             18.731137    0.03349459952309
             2.8253937    0.23472694665786
             0.6401217    0.81375731841339
 s    1 1.00
             0.1612778                   1

26 0
 s    3 1.00
             18.731137    0.03349459952309
             2.8253937    0.23472694665786
             0.6401217    0.81375731841339
 s    1 1.00
             0.1612778                   1

27 0
 s    3 1.00
             18.731137    0.03349459952309
             2.8253937    0.23472694665786
             0.6401217    0.81375731841339
 s    1 1.00
             0.1612778                   1

28 0
 s    3 1.00
             18.731137    0.03349459952309
             2.8253937    0.23472694665786
             0.6401217    0.81375731841339
 s    1 1.00
             0.1612778                   1

29 0
 s    3 1.00
             18.731137    0.03349459952309
             2.8253937    0.23472694665786
             0.6401217    0.81375731841339
 s    1 1.00
             0.1612778                   1

30 0
 s    3 1.00
             18.731137    0.03349459952309
             2.8253937    0.23472694665786
             0.6401217    0.81375731841339
 s    1 1.00
             0.1612778                   1

31 0
 s    3 1.00
             18.731137    0.03349459952309
             2.8253937    0.23472694665786
             0.6401217    0.81375731841339
 s    1 1.00
             0.1612778                   1

32 0
 s    3 1.00
             18.731137    0.03349459952309
             2.8253937    0.23472694665786
             0.6401217    0.81375731841339
 s    1 1.00
             0.1612778                   1

33 0
 s    6 1.00
             3047.5249  0.0018347001629433
             457.36951    0.01403730124668
             103.94869   0.068842606114048
             29.210155    0.23218442062076
              9.286663    0.46794134155879
              3.163927    0.36231203217765
 s    3 1.00
             7.8682724   -0.11933240861517
             1.8812885   -0.16085421161283
             0.5442493     1.1434564825515
 s    1 1.00
             0.1687144                   1
 p    3 1.00
             7.8682724   0.068999095584993
             1.8812885    0.31642397975315
             0.5442493    0.74430825237435
 p    1 1.00
             0.1687144                   1
 d    1 1.00
                   0.8                   1

34 0
 s    6 1.00
             3047.5249  0.0018347001629433
             457.36951    0.01403730124668
             103.94869   0.068842606114048
             29.210155    0.23218442062076
              9.286663    0.46794134155879
              3.163927    0.36231203217765
 s    3 1.00
             7.8682724   -0.11933240861517
             1.8812885   -0.16085421161283
             0.5442493     1.1434564825515
 s    1 1.00
             0.1687144                   1
 p    3 1.00
             7.8682724   0.068999095584993
             1.8812885    0.31642397975315
             0.5442493    0.74430825237435
 p    1 1.00
             0.1687144                   1
 d    1 1.00
                   0.8                   1

35 0
 s    3 1.00
             18.731137    0.03349459952309
             2.8253937    0.23472694665786
             0.6401217    0.81375731841339
 s    1 1.00
             0.1612778                   1

36 0
 s    6 1.00
             3047.5249  0.0018347001629433
             457.36951    0.01403730124668
             103.94869   0.068842606114048
             29.210155    0.23218442062076
              9.286663    0.46794134155879
              3.163927    0.36231203217765
 s    3 1.00
             7.8682724   -0.11933240861517
             1.8812885   -0.16085421161283
             0.5442493     1.1434564825515
 s    1 1.00
             0.1687144                   1
 p    3 1.00
             7.8682724   0.068999095584993
             1.8812885    0.31642397975315
             0.5442493    0.74430825237435
 p    1 1.00
             0.1687144                   1
 d    1 1.00
                   0.8                   1

37 0
 s    3 1.00
             18.731137    0.03349459952309
             2.8253937    0.23472694665786
             0.6401217    0.81375731841339
 s    1 1.00
             0.1612778                   1

38 0
 s    3 1.00
             18.731137    0.03349459952309
             2.8253937    0.23472694665786
             0.6401217    0.81375731841339
 s    1 1.00
             0.1612778                   1

39 0
 s    6 1.00
             3047.5249  0.0018347001629433
             457.36951    0.01403730124668
             103.94869   0.068842606114048
             29.210155    0.23218442062076
              9.286663    0.46794134155879
              3.163927    0.36231203217765
 s    3 1.00
             7.8682724   -0.11933240861517
             1.8812885   -0.16085421161283
             0.5442493     1.1434564825515
 s    1 1.00
             0.1687144                   1
 p    3 1.00
             7.8682724   0.068999095584993
             1.8812885    0.31642397975315
             0.5442493    0.74430825237435
 p    1 1.00
             0.1687144                   1
 d    1 1.00
                   0.8                   1

40 0
 s    6 1.00
             3047.5249  0.0018347001629433
             457.36951    0.01403730124668
             103.94869   0.068842606114048
             29.210155    0.23218442062076
              9.286663    0.46794134155879
              3.163927    0.36231203217765
 s    3 1.00
             7.8682724   -0.11933240861517
             1.8812885   -0.16085421161283
             0.5442493     1.1434564825515
 s    1 1.00
             0.1687144                   1
 p    3 1.00
             7.8682724   0.068999095584993
             1.8812885    0.31642397975315
             0.5442493    0.74430825237435
 p    1 1.00
             0.1687144                   1
 d    1 1.00
                   0.8                   1

41 0
 s    3 1.00
             18.731137    0.03349459952309
             2.8253937    0.23472694665786
             0.6401217    0.81375731841339
 s    1 1.00
             0.1612778                   1

42 0
 s    6 1.00
             5484.6717   0.001831099805527
             825.23495   0.013950098518422
             188.04696    0.06844509273075
               52.9645    0.23271427528445
              16.89757    0.47019295006289
             5.7996353    0.35852086192309
 s    3 1.00
             15.539616   -0.11077750382508
             3.5999336   -0.14802630511126
             1.0137618     1.1307670390447
 s    1 1.00
             0.2700058                   1
 p    3 1.00
             15.539616   0.070874299543311
             3.5999336    0.33975279781076
             1.0137618    0.72715859531445
 p    1 1.00
             0.2700058                   1
 d    1 1.00
                   0.8                   1

43 0
 s    3 1.00
             18.731137    0.03349459952309
             2.8253937    0.23472694665786
             0.6401217    0.81375731841339
 s    1 1.00
             0.1612778                   1

[5d]
[7f]
[9g]

[MO]
 Sym= A
 Ene=               0
 Spin= Alpha
 Occup=    1.00000
   1     0.020477240170453
   2    -0.00084311309814315
   3    0.0068268262231538
   4    0.0003683845844454
   5    -0.00011979362390832
   6    0.0011679177347419
   7    0.00083548622277574
   8    0.0012120942222449
   9    -0.005434122157608
  10    -0.00089184936275639
  11    -0.00085519607578338
  12    0.00014239411519246
  13    -0.00020561210241491
  14    3.8942627914271e-05
  15    -0.00049399535801971
  16    -0.00088619592893456
  17      0.99485065044786
  18     0.036839583158745
  19    -0.028397345267107
  20    0.00091256951026662
  21    0.0001579111070411
  22    -0.00056583786416455
  23    -0.0035223408174172
  24    -0.0010445694398461
  25    -0.00076979407329059
  26    0.00077215908798598
  27    -0.00029830070611816
  28    -0.00034391107773038
  29    0.00029951649720424
  30    0.00019653609191225
  31    -0.0011069450694769
  32    0.0038792410664489
  33     0.012983610252706
  34    -0.00026186464299562
  35    0.00094179418430371
  36    0.00083183125176409
  37    0.00031471881302459
  38    -0.0011179255580219
  39    -0.002183959965458
  40    0.0035353711748125
  41    0.0041833321150798
  42    -0.00061092842157554
  43     0.001169389789161
  44    0.00044647870338928
  45    -0.00033296129589596
  46    -0.00038690558451276
  47    -0.00055002313378904
  48    -0.00061025158769564
  49    -0.00028773612387873
  50    -0.00055042713740334
  51    0.00035621733080195
  52    0.00023278908193705
  53    2.2396697679514e-05
  54    -0.00041103287687301
  55    -0.0046039683027708
  56    0.0011498301909439
  57    0.0070955975821953
  58    -0.00013848633003857
  59    -1.4395758821113e-05
  60    0.00017627279568093
  61    -0.00024493051812056
  62    -0.00016214657042217
  63    -0.00047450562627182
  64    0.00024660265685844
  65    -2.6555122048942e-06
  66    -4.1249173708409e-06
  67    -1.0013572287809e-07
  68    -1.4404241658587e-06
  69    7.2630520856241e-06
  70    2.2069865501615e-06
  71    -4.4878456550533e-06
  72    -1.7123581703384e-07
  73    1.2640131921009e-05
  74    2.4466395986757e-05
  75    9.0439036217007e-06
  76    -1.3519292759366e-07
  77    -3.5397521901398e-07
  78    3.4411065151907e-07
  79    5.8161916266747e-07
  80    -5.3172420190879e-08
  81    2.3472936292436e-06
  82    1.2257834830771e-05
  83    2.2602171818068e-07
  84    1.2916328843214e-06
  85    -6.6099238893462e-05
  86    3.6271970806441e-06
  87     3.02570591915e-06
  88    5.2339344248436e-06
  89    2.4124083200457e-05
  90    -6.2514923227334e-05
  91    7.5577941629966e-06
  92    1.584957686182e-06
  93    -2.7279342647281e-06
  94    3.6845063623181e-06
  95    -7.3103397048178e-07
  96    -1.0580411657912e-06
  97    6.7623961449511e-06
  98    1.1615995892076e-05
  99    -3.2156347447869e-06
 100    -1.8419549276529e-05
 101    -1.162502959672e-06
 102    -1.1866506097174e-05
 103    0.00023254375888864
 104    -1.6707935712781e-06
 105    -7.3590283295882e-06
 106    -3.3728583087544e-06
 107    -0.0001893251242837
 108    0.00018103843463751
 109    0.00013502469550111
 110    -5.7997639567249e-06
 111    -1.7494197373514e-07
 112    5.5177241979586e-08
 113    1.5298148719958e-06
 114    -5.3560142547979e-06
 115    -3.2337880041457e-06
 116    -3.2130271205776e-05
 117    0.00023287830629042
 118    -2.3941522307274e-06
 119    3.1021400319392e-06
 120    5.1959093731973e-06
 121    -4.7827053296783e-05
 122    1.0238395193076e-05
 123    2.8384574642778e-05
 124    1.5393906270158e-06
 125    -2.7434542633292e-06
 126    -2.4261038091391e-06
 127    5.2941346740258e-07
 128    -2.1178837651781e-06
 129    -5.3789844844398e-06
 130    -5.2083563055042e-05
 131    0.00015151768211401
 132    5.7608538254045e-06
 133    -4.72812518399e-06
 134    2.1802707470575e-05
 135    -0.00034561093055845
 136    4.3746702603948e-05
 137    -0.00040300078665889
 138    9.4394617756581e-06
 139    1.2945223584793e-05
 140    5.505812616612e-06
 141    4.3360658632839e-06
 142    6.5519199042985e-06
 143    -1.8981655005416e-06
 144    -2.5554269367826e-05
 145    2.4214855268808e-05
 146    2.1930051758551e-06
 147    5.833198340461e-06
 148    1.2099428739204e-05
 149    1.4239150570451e-05
 150    -3.110601571402e-06
 151    -5.7035402594783e-05
 152    -6.9082420760554e-06
 153    -3.6187981781197e-06
 154    -2.9516026396013e-06
 155    4.1839415297567e-06
 156    -3.8806869653968e-06
 157    1.4885969158699e-06
 158    1.1801139603874e-05
 159    -3.1721940862712e-05
 160    5.7799539347088e-06
 161    -1.543480335288e-07
 162    -1.2699452960935e-06
 163    -4.7467017151843e-05
 164    2.1867661430173e-05
 165    9.7901376444873e-06
 166    4.1446710246577e-06
 167    -5.3999296745191e-07
 168    -1.9512625552028e-07
 169    7.0741093075301e-07
 170    1.8518262599335e-06
 171    -4.4702141974595e-07
 172    -1.1716709266712e-05
 173    2.1307110460957e-05
 174    -3.7788068665549e-06
 175    -1.9745554257445e-07
 176    1.0613924507256e-05
 177    -2.5039921447333e-06
 178    -1.5375388322457e-06
 179    -2.6231929956163e-05
 180    1.5785716530336e-06
 181    4.5467094457017e-06
 182    7.4152961494137e-07
 183    -1.2783475006335e-06
 184    1.5168685352787e-06
 185    -3.2691347997213e-06
 186    -2.8497517446933e-05
 187    8.1374053217534e-05
 188    -2.4397428723086e-06
 189    7.4168374639562e-07
 190    5.0849957505944e-06
 191    -1.3283772566287e-06
 192    -1.2445947269431e-05
 193    -7.0311174738012e-05
 194    3.3011685076788e-06
 195    1.5854588905534e-06
 196    2.550310719497e-06
 197    -3.3732623296509e-07
 198    3.613976095312e-07
 199    -7.5184724724673e-06
 200    -3.5576008198339e-07
 201    -2.0604576451378e-06
 202    2.0267993309117e-05
 203    -1.1058515183094e-05
 204    -6.059250181685e-06
 205    -7.5602618447384e-07
 206    -2.6070205544463e-05
 207    9.8708456025274e-06
 208    -6.4136091513517e-05
 209    1.0403016857594e-05
 210    -2.5955963551754e-05
 211    5.7760060571667e-06
 212    1.6846113662239e-05
 213    -6.1535616484943e-07
 214    -2.0184889014346e-05
 215    -2.4919929974745e-06
 216    -2.8665182038371e-05
 217    1.4725391469283e-06
 218    8.2262850590822e-06
 219    5.3221276865314e-07
 220    -8.5252498781775e-07
 221    -7.9807826419122e-06
 222    -8.1970920526819e-05
 223    0.00080680578645071
 224    -1.2884449390344e-05
 225    -1.3898388050151e-06
 226    1.2616341139396e-05
 227    0.00059878109734406
 228    0.00028851508072404
 229    -0.00088147310320385
 230    1.6317415962832e-06
 231    -4.1083777449173e-05
 232    -2.0559150120913e-05
 233    2.0532485743982e-05
 234    2.1408586198032e-05
 235    -1.4601976774846e-05
 236    -3.8000683674504e-05
 237    -0.00016894410406536
 238    -1.9379696339394e-05
 239    -3.2115415644039e-06
 240    9.1559499386733e-06
 241    0.0002659491592787
 242    0.00031677985871574
 243    -0.0014579658993716
 244    1.0425838062656e-05
 245    6.6281508369384e-05
 246    1.3597535852733e-05
 247    1.7914766889993e-05
 248    -5.6502493255464e-07
 249    -3.2615913003783e-05
 250    0.00029467053826562
 251    -2.4679975110644e-05
 252    -0.00039101597796467
 253    0.0020437284688045
 254    7.3482456491369e-05
 255    -3.9882910567994e-05
 256    0.00021621905910699
 257    -3.7199692417712e-05
 258    0.00040016765708711
 259    -0.0017349228901929
 260    -5.8238359356764e-05
 261    -1.5137291533529e-05
 262    -1.6875997913469e-05
 263    0.0001306928817053
 264    8.2168716106317e-05
 265    -8.6211260152493e-05
 266    0.00019253072448425
 267    -0.00013505958831853
 268    -0.00050829067840011
 269    -7.4608348120834e-05
 270    -0.00049796449492572
 271    0.0066057934265499
 272    -6.0702810190351e-05
 273     0.000110769318719
 274    0.00012867774666569
 275    -0.0015885395890966
 276    -0.0027325149947548
 277    0.0025624104344902
 278    7.6841013835647e-05
 279    -0.00017359480958683
 280    -8.6710556965005e-05