[Molden Format]
made by pyscf v[2.0.1]
[Atoms] (AU)
C   1   6     0.69100024069495     0.64692934212497    -3.48223131168734
H   2   1     2.68052439835215     1.13355088667581    -3.25784032595959
C   3   6    -0.36286361514353     0.85440132525350    -5.97030179416329
H   4   1    -2.35448549056350     0.36322488588432    -6.17995817799568
C   5   6     0.93697958950647     1.61209284601065    -8.05828437675987
H   6   1     2.92721069186250     2.10853558287052    -7.87534295441726
C   7   6    -0.17413039189613     1.80008207487984   -10.52534301739428
H   8   1    -2.16943049770440     1.29533627648343   -10.67939296478009
H   9   1     1.55630230933264    -1.92953025311848    12.99630010417381
C   10   6     0.75233899783373    -2.21270439606859    11.10705728099195
H   11   1    -0.43433408176896    -3.90944857543337    11.22216085348160
C   12   6     2.86362581169447    -2.63237380608325     9.17926416459635
H   13   1     4.39038949906562    -1.24955421532309     9.49899813488174
H   14   1     3.74629220184371    -4.48798724298246     9.47414880962803
C   15   6     2.02478325622942    -2.42177285713224     6.44560829586187
C   16   6     3.88048732732831    -3.58795445236593     4.61402886975252
C   17   6    -0.18412382264649    -1.30464291231236     5.76021113881606
C   18   6    -2.10044360460382    -0.26837831862807     7.71610340970501
C   19   6    -3.08956938678556     2.35282328352614     6.88693925042618
C   20   6    -4.37372924094212    -2.09766595985142     7.93610724215954
C   21   6    -0.83850430593104     0.06372213486551    10.33002307643668
H   22   1     0.38411922142983     1.74281358590180    10.27380136539346
H   23   1    -2.30980003011276     0.45460143923765    11.73986301804329
H   24   1     4.58527064636731    -5.38706904479673     5.36778158023404
H   25   1     5.54944938091628    -2.37631462201630     4.35398898404058
H   26   1     3.06633019144754    -3.94118377051822     2.75255466032570
H   27   1    -4.17727778763546     2.26573369145191     5.12914900957504
H   28   1    -1.52662344935358     3.68001877441469     6.59540397151878
H   29   1    -4.32916174393862     3.13643051473529     8.35225460094913
H   30   1    -5.32329548507875    -2.36691813603695     6.11583672741581
H   31   1    -5.77989366598289    -1.33896741838552     9.25748940451935
H   32   1    -3.79310905209871    -3.96389819308585     8.61386170106276
C   33   6    -1.01100794815762    -1.06331657313199     3.11929490450892
C   34   6     0.37686231029920    -0.33275864510088     1.09165013596992
H   35   1    -3.01671213911428    -1.40297922289257     2.77827895090755
C   36   6    -0.64382707979748    -0.11591880174763    -1.42063131255788
H   37   1     2.35569259790262     0.17174499287298     1.33641070253857
H   38   1    -2.63317482972383    -0.60229203504227    -1.66119700396716
C   39   6     1.04406642127022     2.54697835791677   -12.65486785204246
C   40   6    -0.25769856063703     2.67711278008941   -15.08293200861523
H   41   1     3.03094671002655     3.07573165426063   -12.63261900496242
O   42   8     0.71886931482866     3.33224024015006   -17.06735820381613
H   43   1    -2.28855418566595     2.11893682007881   -15.01778643592878
[GTO]
1 0
 s    6 1.00
             3047.5249  0.0018347001629433
             457.36951    0.01403730124668
             103.94869   0.068842606114048
             29.210155    0.23218442062076
              9.286663    0.46794134155879
              3.163927    0.36231203217765
 s    3 1.00
             7.8682724   -0.11933240861517
             1.8812885   -0.16085421161283
             0.5442493     1.1434564825515
 s    1 1.00
             0.1687144                   1
 p    3 1.00
             7.8682724   0.068999095584993
             1.8812885    0.31642397975315
             0.5442493    0.74430825237435
 p    1 1.00
             0.1687144                   1
 d    1 1.00
                   0.8                   1

2 0
 s    3 1.00
             18.731137    0.03349459952309
             2.8253937    0.23472694665786
             0.6401217    0.81375731841339
 s    1 1.00
             0.1612778                   1

3 0
 s    6 1.00
             3047.5249  0.0018347001629433
             457.36951    0.01403730124668
             103.94869   0.068842606114048
             29.210155    0.23218442062076
              9.286663    0.46794134155879
              3.163927    0.36231203217765
 s    3 1.00
             7.8682724   -0.11933240861517
             1.8812885   -0.16085421161283
             0.5442493     1.1434564825515
 s    1 1.00
             0.1687144                   1
 p    3 1.00
             7.8682724   0.068999095584993
             1.8812885    0.31642397975315
             0.5442493    0.74430825237435
 p    1 1.00
             0.1687144                   1
 d    1 1.00
                   0.8                   1

4 0
 s    3 1.00
             18.731137    0.03349459952309
             2.8253937    0.23472694665786
             0.6401217    0.81375731841339
 s    1 1.00
             0.1612778                   1

5 0
 s    6 1.00
             3047.5249  0.0018347001629433
             457.36951    0.01403730124668
             103.94869   0.068842606114048
             29.210155    0.23218442062076
              9.286663    0.46794134155879
              3.163927    0.36231203217765
 s    3 1.00
             7.8682724   -0.11933240861517
             1.8812885   -0.16085421161283
             0.5442493     1.1434564825515
 s    1 1.00
             0.1687144                   1
 p    3 1.00
             7.8682724   0.068999095584993
             1.8812885    0.31642397975315
             0.5442493    0.74430825237435
 p    1 1.00
             0.1687144                   1
 d    1 1.00
                   0.8                   1

6 0
 s    3 1.00
             18.731137    0.03349459952309
             2.8253937    0.23472694665786
             0.6401217    0.81375731841339
 s    1 1.00
             0.1612778                   1

7 0
 s    6 1.00
             3047.5249  0.0018347001629433
             457.36951    0.01403730124668
             103.94869   0.068842606114048
             29.210155    0.23218442062076
              9.286663    0.46794134155879
              3.163927    0.36231203217765
 s    3 1.00
             7.8682724   -0.11933240861517
             1.8812885   -0.16085421161283
             0.5442493     1.1434564825515
 s    1 1.00
             0.1687144                   1
 p    3 1.00
             7.8682724   0.068999095584993
             1.8812885    0.31642397975315
             0.5442493    0.74430825237435
 p    1 1.00
             0.1687144                   1
 d    1 1.00
                   0.8                   1

8 0
 s    3 1.00
             18.731137    0.03349459952309
             2.8253937    0.23472694665786
             0.6401217    0.81375731841339
 s    1 1.00
             0.1612778                   1

9 0
 s    3 1.00
             18.731137    0.03349459952309
             2.8253937    0.23472694665786
             0.6401217    0.81375731841339
 s    1 1.00
             0.1612778                   1

10 0
 s    6 1.00
             3047.5249  0.0018347001629433
             457.36951    0.01403730124668
             103.94869   0.068842606114048
             29.210155    0.23218442062076
              9.286663    0.46794134155879
              3.163927    0.36231203217765
 s    3 1.00
             7.8682724   -0.11933240861517
             1.8812885   -0.16085421161283
             0.5442493     1.1434564825515
 s    1 1.00
             0.1687144                   1
 p    3 1.00
             7.8682724   0.068999095584993
             1.8812885    0.31642397975315
             0.5442493    0.74430825237435
 p    1 1.00
             0.1687144                   1
 d    1 1.00
                   0.8                   1

11 0
 s    3 1.00
             18.731137    0.03349459952309
             2.8253937    0.23472694665786
             0.6401217    0.81375731841339
 s    1 1.00
             0.1612778                   1

12 0
 s    6 1.00
             3047.5249  0.0018347001629433
             457.36951    0.01403730124668
             103.94869   0.068842606114048
             29.210155    0.23218442062076
              9.286663    0.46794134155879
              3.163927    0.36231203217765
 s    3 1.00
             7.8682724   -0.11933240861517
             1.8812885   -0.16085421161283
             0.5442493     1.1434564825515
 s    1 1.00
             0.1687144                   1
 p    3 1.00
             7.8682724   0.068999095584993
             1.8812885    0.31642397975315
             0.5442493    0.74430825237435
 p    1 1.00
             0.1687144                   1
 d    1 1.00
                   0.8                   1

13 0
 s    3 1.00
             18.731137    0.03349459952309
             2.8253937    0.23472694665786
             0.6401217    0.81375731841339
 s    1 1.00
             0.1612778                   1

14 0
 s    3 1.00
             18.731137    0.03349459952309
             2.8253937    0.23472694665786
             0.6401217    0.81375731841339
 s    1 1.00
             0.1612778                   1

15 0
 s    6 1.00
             3047.5249  0.0018347001629433
             457.36951    0.01403730124668
             103.94869   0.068842606114048
             29.210155    0.23218442062076
              9.286663    0.46794134155879
              3.163927    0.36231203217765
 s    3 1.00
             7.8682724   -0.11933240861517
             1.8812885   -0.16085421161283
             0.5442493     1.1434564825515
 s    1 1.00
             0.1687144                   1
 p    3 1.00
             7.8682724   0.068999095584993
             1.8812885    0.31642397975315
             0.5442493    0.74430825237435
 p    1 1.00
             0.1687144                   1
 d    1 1.00
                   0.8                   1

16 0
 s    6 1.00
             3047.5249  0.0018347001629433
             457.36951    0.01403730124668
             103.94869   0.068842606114048
             29.210155    0.23218442062076
              9.286663    0.46794134155879
              3.163927    0.36231203217765
 s    3 1.00
             7.8682724   -0.11933240861517
             1.8812885   -0.16085421161283
             0.5442493     1.1434564825515
 s    1 1.00
             0.1687144                   1
 p    3 1.00
             7.8682724   0.068999095584993
             1.8812885    0.31642397975315
             0.5442493    0.74430825237435
 p    1 1.00
             0.1687144                   1
 d    1 1.00
                   0.8                   1

17 0
 s    6 1.00
             3047.5249  0.0018347001629433
             457.36951    0.01403730124668
             103.94869   0.068842606114048
             29.210155    0.23218442062076
              9.286663    0.46794134155879
              3.163927    0.36231203217765
 s    3 1.00
             7.8682724   -0.11933240861517
             1.8812885   -0.16085421161283
             0.5442493     1.1434564825515
 s    1 1.00
             0.1687144                   1
 p    3 1.00
             7.8682724   0.068999095584993
             1.8812885    0.31642397975315
             0.5442493    0.74430825237435
 p    1 1.00
             0.1687144                   1
 d    1 1.00
                   0.8                   1

18 0
 s    6 1.00
             3047.5249  0.0018347001629433
             457.36951    0.01403730124668
             103.94869   0.068842606114048
             29.210155    0.23218442062076
              9.286663    0.46794134155879
              3.163927    0.36231203217765
 s    3 1.00
             7.8682724   -0.11933240861517
             1.8812885   -0.16085421161283
             0.5442493     1.1434564825515
 s    1 1.00
             0.1687144                   1
 p    3 1.00
             7.8682724   0.068999095584993
             1.8812885    0.31642397975315
             0.5442493    0.74430825237435
 p    1 1.00
             0.1687144                   1
 d    1 1.00
                   0.8                   1

19 0
 s    6 1.00
             3047.5249  0.0018347001629433
             457.36951    0.01403730124668
             103.94869   0.068842606114048
             29.210155    0.23218442062076
              9.286663    0.46794134155879
              3.163927    0.36231203217765
 s    3 1.00
             7.8682724   -0.11933240861517
             1.8812885   -0.16085421161283
             0.5442493     1.1434564825515
 s    1 1.00
             0.1687144                   1
 p    3 1.00
             7.8682724   0.068999095584993
             1.8812885    0.31642397975315
             0.5442493    0.74430825237435
 p    1 1.00
             0.1687144                   1
 d    1 1.00
                   0.8                   1

20 0
 s    6 1.00
             3047.5249  0.0018347001629433
             457.36951    0.01403730124668
             103.94869   0.068842606114048
             29.210155    0.23218442062076
              9.286663    0.46794134155879
              3.163927    0.36231203217765
 s    3 1.00
             7.8682724   -0.11933240861517
             1.8812885   -0.16085421161283
             0.5442493     1.1434564825515
 s    1 1.00
             0.1687144                   1
 p    3 1.00
             7.8682724   0.068999095584993
             1.8812885    0.31642397975315
             0.5442493    0.74430825237435
 p    1 1.00
             0.1687144                   1
 d    1 1.00
                   0.8                   1

21 0
 s    6 1.00
             3047.5249  0.0018347001629433
             457.36951    0.01403730124668
             103.94869   0.068842606114048
             29.210155    0.23218442062076
              9.286663    0.46794134155879
              3.163927    0.36231203217765
 s    3 1.00
             7.8682724   -0.11933240861517
             1.8812885   -0.16085421161283
             0.5442493     1.1434564825515
 s    1 1.00
             0.1687144                   1
 p    3 1.00
             7.8682724   0.068999095584993
             1.8812885    0.31642397975315
             0.5442493    0.74430825237435
 p    1 1.00
             0.1687144                   1
 d    1 1.00
                   0.8                   1

22 0
 s    3 1.00
             18.731137    0.03349459952309
             2.8253937    0.23472694665786
             0.6401217    0.81375731841339
 s    1 1.00
             0.1612778                   1

23 0
 s    3 1.00
             18.731137    0.03349459952309
             2.8253937    0.23472694665786
             0.6401217    0.81375731841339
 s    1 1.00
             0.1612778                   1

24 0
 s    3 1.00
             18.731137    0.03349459952309
             2.8253937    0.23472694665786
             0.6401217    0.81375731841339
 s    1 1.00
             0.1612778                   1

25 0
 s    3 1.00
             18.731137    0.03349459952309
             2.8253937    0.23472694665786
             0.6401217    0.81375731841339
 s    1 1.00
             0.1612778                   1

26 0
 s    3 1.00
             18.731137    0.03349459952309
             2.8253937    0.23472694665786
             0.6401217    0.81375731841339
 s    1 1.00
             0.1612778                   1

27 0
 s    3 1.00
             18.731137    0.03349459952309
             2.8253937    0.23472694665786
             0.6401217    0.81375731841339
 s    1 1.00
             0.1612778                   1

28 0
 s    3 1.00
             18.731137    0.03349459952309
             2.8253937    0.23472694665786
             0.6401217    0.81375731841339
 s    1 1.00
             0.1612778                   1

29 0
 s    3 1.00
             18.731137    0.03349459952309
             2.8253937    0.23472694665786
             0.6401217    0.81375731841339
 s    1 1.00
             0.1612778                   1

30 0
 s    3 1.00
             18.731137    0.03349459952309
             2.8253937    0.23472694665786
             0.6401217    0.81375731841339
 s    1 1.00
             0.1612778                   1

31 0
 s    3 1.00
             18.731137    0.03349459952309
             2.8253937    0.23472694665786
             0.6401217    0.81375731841339
 s    1 1.00
             0.1612778                   1

32 0
 s    3 1.00
             18.731137    0.03349459952309
             2.8253937    0.23472694665786
             0.6401217    0.81375731841339
 s    1 1.00
             0.1612778                   1

33 0
 s    6 1.00
             3047.5249  0.0018347001629433
             457.36951    0.01403730124668
             103.94869   0.068842606114048
             29.210155    0.23218442062076
              9.286663    0.46794134155879
              3.163927    0.36231203217765
 s    3 1.00
             7.8682724   -0.11933240861517
             1.8812885   -0.16085421161283
             0.5442493     1.1434564825515
 s    1 1.00
             0.1687144                   1
 p    3 1.00
             7.8682724   0.068999095584993
             1.8812885    0.31642397975315
             0.5442493    0.74430825237435
 p    1 1.00
             0.1687144                   1
 d    1 1.00
                   0.8                   1

34 0
 s    6 1.00
             3047.5249  0.0018347001629433
             457.36951    0.01403730124668
             103.94869   0.068842606114048
             29.210155    0.23218442062076
              9.286663    0.46794134155879
              3.163927    0.36231203217765
 s    3 1.00
             7.8682724   -0.11933240861517
             1.8812885   -0.16085421161283
             0.5442493     1.1434564825515
 s    1 1.00
             0.1687144                   1
 p    3 1.00
             7.8682724   0.068999095584993
             1.8812885    0.31642397975315
             0.5442493    0.74430825237435
 p    1 1.00
             0.1687144                   1
 d    1 1.00
                   0.8                   1

35 0
 s    3 1.00
             18.731137    0.03349459952309
             2.8253937    0.23472694665786
             0.6401217    0.81375731841339
 s    1 1.00
             0.1612778                   1

36 0
 s    6 1.00
             3047.5249  0.0018347001629433
             457.36951    0.01403730124668
             103.94869   0.068842606114048
             29.210155    0.23218442062076
              9.286663    0.46794134155879
              3.163927    0.36231203217765
 s    3 1.00
             7.8682724   -0.11933240861517
             1.8812885   -0.16085421161283
             0.5442493     1.1434564825515
 s    1 1.00
             0.1687144                   1
 p    3 1.00
             7.8682724   0.068999095584993
             1.8812885    0.31642397975315
             0.5442493    0.74430825237435
 p    1 1.00
             0.1687144                   1
 d    1 1.00
                   0.8                   1

37 0
 s    3 1.00
             18.731137    0.03349459952309
             2.8253937    0.23472694665786
             0.6401217    0.81375731841339
 s    1 1.00
             0.1612778                   1

38 0
 s    3 1.00
             18.731137    0.03349459952309
             2.8253937    0.23472694665786
             0.6401217    0.81375731841339
 s    1 1.00
             0.1612778                   1

39 0
 s    6 1.00
             3047.5249  0.0018347001629433
             457.36951    0.01403730124668
             103.94869   0.068842606114048
             29.210155    0.23218442062076
              9.286663    0.46794134155879
              3.163927    0.36231203217765
 s    3 1.00
             7.8682724   -0.11933240861517
             1.8812885   -0.16085421161283
             0.5442493     1.1434564825515
 s    1 1.00
             0.1687144                   1
 p    3 1.00
             7.8682724   0.068999095584993
             1.8812885    0.31642397975315
             0.5442493    0.74430825237435
 p    1 1.00
             0.1687144                   1
 d    1 1.00
                   0.8                   1

40 0
 s    6 1.00
             3047.5249  0.0018347001629433
             457.36951    0.01403730124668
             103.94869   0.068842606114048
             29.210155    0.23218442062076
              9.286663    0.46794134155879
              3.163927    0.36231203217765
 s    3 1.00
             7.8682724   -0.11933240861517
             1.8812885   -0.16085421161283
             0.5442493     1.1434564825515
 s    1 1.00
             0.1687144                   1
 p    3 1.00
             7.8682724   0.068999095584993
             1.8812885    0.31642397975315
             0.5442493    0.74430825237435
 p    1 1.00
             0.1687144                   1
 d    1 1.00
                   0.8                   1

41 0
 s    3 1.00
             18.731137    0.03349459952309
             2.8253937    0.23472694665786
             0.6401217    0.81375731841339
 s    1 1.00
             0.1612778                   1

42 0
 s    6 1.00
             5484.6717   0.001831099805527
             825.23495   0.013950098518422
             188.04696    0.06844509273075
               52.9645    0.23271427528445
              16.89757    0.47019295006289
             5.7996353    0.35852086192309
 s    3 1.00
             15.539616   -0.11077750382508
             3.5999336   -0.14802630511126
             1.0137618     1.1307670390447
 s    1 1.00
             0.2700058                   1
 p    3 1.00
             15.539616   0.070874299543311
             3.5999336    0.33975279781076
             1.0137618    0.72715859531445
 p    1 1.00
             0.2700058                   1
 d    1 1.00
                   0.8                   1

43 0
 s    3 1.00
             18.731137    0.03349459952309
             2.8253937    0.23472694665786
             0.6401217    0.81375731841339
 s    1 1.00
             0.1612778                   1

[5d]
[7f]
[9g]

[MO]
 Sym= A
 Ene=               0
 Spin= Alpha
 Occup=    1.00000
   1    -6.6023218164534e-06
   2    6.7693632883585e-05
   3    -0.0004554227679012
   4    1.5369562033367e-05
   5    7.4823594864246e-06
   6    -1.7432127185093e-05
   7    -9.9471081814413e-05
   8    -0.00030984666387792
   9    0.0014427304861078
  10    -2.2019951033359e-05
  11    -5.2563168775739e-05
  12    -4.0460406562451e-06
  13    -1.4605257062811e-05
  14    2.9051792106119e-06
  15    6.7087659388226e-05
  16    -0.00011270511043291
  17    -0.00042850181647854
  18    0.00028058209972261
  19    -0.00036116423275904
  20    -6.8237904675663e-05
  21    2.2418595147427e-05
  22    -0.00020529441824006
  23    0.00072311249950195
  24    -6.3617838945544e-05
  25    0.0013032571270599
  26    7.5895667519334e-05
  27    -1.5067561965381e-06
  28    1.0398278320856e-06
  29    -0.00012019861885504
  30    -6.8894596587783e-05
  31    0.00014054057513424
  32    0.00061642510013948
  33    -0.013581393093034
  34    0.0010375708754776
  35    -0.0073293750069926
  36    -0.00045218948391951
  37    9.7741097977999e-05
  38    -0.0011128394205222
  39    -0.00012262668024989
  40    -0.00080333916340007
  41    0.0039171042265583
  42    0.00089103714722345
  43    0.00094338271201029
  44    -0.00010408279324223
  45    0.00026082741711504
  46    -4.3320283056685e-05
  47    0.0004185569234157
  48    0.00070643176063612
  49     -0.99500963933461
  50    -0.036062345854512
  51     0.027920167175143
  52    -0.00067108733310447
  53    -0.00019944256876784
  54    9.640780545655e-05
  55    0.0032833113716181
  56    0.00078426419407213
  57    0.00049611224098881
  58    -0.00083063683126829
  59    0.00025939573086278
  60    0.00042229290568761
  61    -0.00021282782677566
  62    -0.0002022672375926
  63    0.0011163116842626
  64    -0.0038636345278859
  65    5.9827824508132e-07
  66    5.1722578903378e-07
  67    5.935059825699e-08
  68    1.0080529961633e-06
  69    -4.2929685527944e-06
  70    -4.5432572050188e-07
  71    8.4720619134606e-07
  72    -1.7521633293771e-07
  73    -2.0885677222441e-06
  74    -3.2732956824129e-06
  75    -7.5354390424092e-07
  76    1.7031275837709e-08
  77    1.574366124301e-07
  78    -1.6371560156869e-07
  79    -1.7360551829954e-07
  80    1.1124088747497e-07
  81    -4.3981357461941e-07
  82    -6.6156967207199e-07
  83    -5.3401213177725e-08
  84    3.3626097958511e-07
  85    2.3288431441706e-05
  86    -1.2445137499534e-06
  87    -3.0663551344017e-07
  88    -1.7296850877674e-06
  89    -7.1399750941561e-06
  90    1.0783756773641e-05
  91    -4.1381940568892e-06
  92    -4.0009411113187e-07
  93    6.2353976894505e-07
  94    -7.083536810186e-07
  95    4.427971364433e-08
  96    2.379985862883e-07
  97    -1.3832586619031e-06
  98    -2.0042910932569e-06
  99    2.0646340428414e-07
 100    3.2342927764908e-06
 101    1.0513567421349e-07
 102    1.4397109233259e-06
 103    -3.101504145655e-05
 104    -2.7841947579545e-07
 105    1.9346586319672e-06
 106    1.3040006845196e-06
 107     4.45028563525e-05
 108    -3.7109156585689e-05
 109     -5.4597186755e-05
 110    1.2640768608399e-06
 111    4.3318243390269e-07
 112    -3.0680991586303e-07
 113    -4.1910030796507e-07
 114    1.1212316685607e-06
 115    8.6976618355802e-07
 116    8.3416039770827e-06
 117    -6.4936886906899e-05
 118    8.856339486195e-07
 119    -5.5130852500871e-07
 120    -2.1078393678631e-06
 121    1.6257952732821e-05
 122    -9.1370278226052e-06
 123    -8.5207070443472e-06
 124    -1.0264058394328e-08
 125    7.5428888693219e-07
 126    -3.209873331299e-08
 127    -4.85231839561e-07
 128    6.1960701225357e-07
 129    1.3217279552563e-06
 130    1.344847240444e-05
 131    -9.2694869536719e-05
 132    -9.5379728857826e-07
 133    5.3051962167388e-07
 134    -5.5869156448478e-06
 135    5.7965956311858e-05
 136    -4.9451340504227e-06
 137    0.00014628651218076
 138    -3.9808740864474e-06
 139    -2.6652358756716e-06
 140    -5.286660343895e-07
 141    -5.2401640639906e-07
 142    -6.9294487142746e-07
 143    8.4946617887655e-07
 144    8.2147842583506e-06
 145    -2.9734201075223e-05
 146    -1.1331520972395e-06
 147    -9.0563683296824e-07
 148    -2.552064819432e-06
 149    -1.4391707040008e-05
 150    7.3895373461412e-06
 151    2.0168314097701e-05
 152    1.9289373811994e-06
 153    1.0500092419952e-06
 154    4.8479249312056e-07
 155    -1.1702863193058e-06
 156    1.5501721211747e-06
 157    -3.1138659321715e-07
 158    -2.5574489537975e-06
 159    7.8737130295085e-06
 160    -1.1842075573895e-06
 161    -3.1921488362087e-07
 162    5.2855555664244e-07
 163    1.1151844332282e-05
 164    -3.6085835925356e-06
 165    -4.9771683155343e-06
 166    -1.1450751591094e-06
 167    4.1628805295115e-07
 168    2.015064789402e-07
 169    -1.0102115639918e-07
 170    -4.674632134084e-07
 171    -1.6370624041301e-07
 172    -2.7458223831422e-08
 173    1.1128456220512e-05
 174    2.2378180173571e-06
 175    5.6150450437938e-07
 176    -1.9087825843762e-06
 177    -5.7435619453742e-06
 178    -2.8650389220273e-06
 179    -8.1571738851704e-07
 180    -3.3701899488157e-08
 181    -7.9414579468568e-07
 182    -2.490063277465e-07
 183    4.7636293048875e-07
 184    -5.6141111713891e-07
 185    6.8896004880625e-07
 186    6.6215386244862e-06
 187    -1.7002888657229e-05
 188    6.9681891971169e-07
 189    -1.442016938555e-07
 190    -1.6423546610885e-06
 191    -1.9184205253386e-06
 192    7.5419097475506e-07
 193    1.4795017839518e-05
 194    -7.716689521451e-07
 195    -2.4468361988235e-07
 196    -5.8639920711163e-07
 197    -8.364105866641e-08
 198    1.1604779742855e-07
 199    1.6632023730603e-06
 200    2.1402782549575e-06
 201    1.0205688000693e-07
 202    -5.4734006625852e-06
 203    2.3119797187398e-06
 204    -2.3783813510101e-07
 205    7.4961078313763e-07
 206    6.4734657239177e-06
 207    -6.4830341811238e-07
 208    1.1335645689435e-05
 209    -2.1493176892504e-06
 210    3.0005011486715e-06
 211    -1.5365879340548e-06
 212    -4.4329857082869e-06
 213    2.5189487236229e-07
 214    4.7221063338058e-06
 215    2.3197207048913e-06
 216    -1.3679557457165e-05
 217    -1.1849586788389e-06
 218    -3.5785644040323e-06
 219    -6.5694753507624e-07
 220    -1.1193206127832e-06
 221    2.8389954772317e-06
 222    2.4001415745826e-05
 223    -8.8429620514434e-05
 224    -4.2751283793198e-06
 225    -1.8670782684653e-08
 226    -5.8620067301565e-06
 227    -2.643096472625e-05
 228    -5.013653958664e-05
 229    0.00023766001499498
 230    -7.1415490183435e-07
 231    9.5038925581303e-06
 232    4.4042077430716e-06
 233    -5.137217761754e-06
 234    -4.7342373600385e-06
 235    7.336715030909e-07
 236    2.1648344767241e-05
 237    0.00015830133545593
 238    2.489257910266e-06
 239    4.1495105728168e-06
 240    -1.8954076443622e-05
 241    -1.0682791385744e-05
 242    -2.6766469874151e-05
 243    0.00013915266270756
 244    1.2981730596898e-06
 245    -1.5155627096734e-05
 246    -2.9233731038387e-06
 247    -7.0066311888518e-06
 248    -9.9995968325442e-07
 249    6.953619103956e-06
 250    1.0097862166133e-05
 251    7.5672052849016e-06
 252    4.6464514030738e-05
 253    -0.00079757210641442
 254    1.1106523419298e-05
 255    2.7568536334903e-06
 256    9.7464495845075e-07
 257    -0.00050072959276066
 258    -0.00021651919959736
 259    0.00041555724012536
 260    -4.1796480845995e-06
 261    2.7366749655022e-05
 262    1.2721605668078e-05
 263    -1.391358102112e-05
 264    -1.4705958994299e-05
 265    9.2862937564976e-06
 266    -4.6396178920749e-05
 267    9.9444191136418e-06
 268    -0.00024028787565611
 269    -0.00020548638000975
 270    0.0018546496310603
 271    -0.0085544320574182
 272    -0.0008429057033048
 273    -0.00051514791882765
 274    0.0014650400623281
 275    0.00016372620553654
 276    0.00076572912417195
 277    -0.0036608077465183
 278    0.00064287613407657
 279    -0.00097548688768871
 280    -0.00057489739014498