[Molden Format]
made by pyscf v[2.0.1]
[Atoms] (AU)
C   1   6     0.69100024066471     0.64692934207205    -3.48223131169301
H   2   1     2.68052439830868     1.13355088658700    -3.25784032593313
C   3   6    -0.36286361513219     0.85440132524594    -5.97030179418974
H   4   1    -2.35448549047279     0.36322488579172    -6.17995817793143
C   5   6     0.93697958957450     1.61209284601821    -8.05828437677121
H   6   1     0.85962833397368     3.59050820045091    -8.62470494839578
C   7   6     2.42635389771936    -0.06497183323565    -9.58324401854610
H   8   1     2.48676726707897    -2.04132781761705    -8.99156043119802
H   9   1     1.55630230933075    -1.92953025305990    12.99630010416247
C   10   6     0.75233899775814    -2.21270439606481    11.10705728102219
H   11   1    -0.43433408177274    -3.90944857546550    11.22216085340412
C   12   6     2.86362581178706    -2.63237380607947     9.17926416456045
H   13   1     4.39038949912609    -1.24955421540245     9.49899813497433
H   14   1     3.74629220191363    -4.48798724300892     9.47414880959024
C   15   6     2.02478325613682    -2.42177285709634     6.44560829588644
C   16   6     3.88048732735477    -3.58795445234514     4.61402886975252
C   17   6    -0.18412382258602    -1.30464291234259     5.76021113872346
C   18   6    -2.10044360464350    -0.26837831858460     7.71610340967100
C   19   6    -3.08956938670431     2.35282328359417     6.88693925039594
C   20   6    -4.37372924086464    -2.09766595989678     7.93610724222001
C   21   6    -0.83850430601230     0.06372213486173    10.33002307638377
H   22   1     0.38411922151109     1.74281358582432    10.27380136542181
H   23   1    -2.30980003007874     0.45460143924521    11.73986301809809
H   24   1     4.58527064644668    -5.38706904487420     5.36778158031719
H   25   1     5.54944938085014    -2.37631462192748     4.35398898413318
H   26   1     3.06633019150423    -3.94118377050688     2.75255466040884
H   27   1    -4.17727778763735     2.26573369139522     5.12914900961283
H   28   1    -1.52662344944051     3.68001877445626     6.59540397144508
H   29   1    -4.32916174397830     3.13643051467482     8.35225460090378
H   30   1    -5.32329548508442    -2.36691813602939     6.11583672749896
H   31   1    -5.77989366602257    -1.33896741843465     9.25748940450990
H   32   1    -3.79310905208926    -3.96389819310853     8.61386170102686
C   33   6    -1.01100794811226    -1.06331657314144     3.11929490449947
C   34   6     0.37686231036534    -0.33275864505552     1.09165013605873
H   35   1    -3.01671213906703    -1.40297922279997     2.77827895090944
C   36   6    -0.64382707979370    -0.11591880174385    -1.42063131251064
H   37   1     2.35569259782137     0.17174499283897     1.33641070251401
H   38   1    -2.63317482980319    -0.60229203511219    -1.66119700387645
C   39   6     3.74832505967432     0.60333842975764   -11.67668310140841
C   40   6     5.21001738076888    -1.24955999097241   -13.10400422335708
H   41   1     3.76814643119893     2.53960520723023   -12.36823673003836
O   42   8     6.43815552067501    -0.78092818090474   -14.99949494178040
H   43   1     5.13629360998863    -3.20740752771493   -12.32839043702936
[GTO]
1 0
 s    6 1.00
             3047.5249  0.0018347001629433
             457.36951    0.01403730124668
             103.94869   0.068842606114048
             29.210155    0.23218442062076
              9.286663    0.46794134155879
              3.163927    0.36231203217765
 s    3 1.00
             7.8682724   -0.11933240861517
             1.8812885   -0.16085421161283
             0.5442493     1.1434564825515
 s    1 1.00
             0.1687144                   1
 p    3 1.00
             7.8682724   0.068999095584993
             1.8812885    0.31642397975315
             0.5442493    0.74430825237435
 p    1 1.00
             0.1687144                   1
 d    1 1.00
                   0.8                   1

2 0
 s    3 1.00
             18.731137    0.03349459952309
             2.8253937    0.23472694665786
             0.6401217    0.81375731841339
 s    1 1.00
             0.1612778                   1

3 0
 s    6 1.00
             3047.5249  0.0018347001629433
             457.36951    0.01403730124668
             103.94869   0.068842606114048
             29.210155    0.23218442062076
              9.286663    0.46794134155879
              3.163927    0.36231203217765
 s    3 1.00
             7.8682724   -0.11933240861517
             1.8812885   -0.16085421161283
             0.5442493     1.1434564825515
 s    1 1.00
             0.1687144                   1
 p    3 1.00
             7.8682724   0.068999095584993
             1.8812885    0.31642397975315
             0.5442493    0.74430825237435
 p    1 1.00
             0.1687144                   1
 d    1 1.00
                   0.8                   1

4 0
 s    3 1.00
             18.731137    0.03349459952309
             2.8253937    0.23472694665786
             0.6401217    0.81375731841339
 s    1 1.00
             0.1612778                   1

5 0
 s    6 1.00
             3047.5249  0.0018347001629433
             457.36951    0.01403730124668
             103.94869   0.068842606114048
             29.210155    0.23218442062076
              9.286663    0.46794134155879
              3.163927    0.36231203217765
 s    3 1.00
             7.8682724   -0.11933240861517
             1.8812885   -0.16085421161283
             0.5442493     1.1434564825515
 s    1 1.00
             0.1687144                   1
 p    3 1.00
             7.8682724   0.068999095584993
             1.8812885    0.31642397975315
             0.5442493    0.74430825237435
 p    1 1.00
             0.1687144                   1
 d    1 1.00
                   0.8                   1

6 0
 s    3 1.00
             18.731137    0.03349459952309
             2.8253937    0.23472694665786
             0.6401217    0.81375731841339
 s    1 1.00
             0.1612778                   1

7 0
 s    6 1.00
             3047.5249  0.0018347001629433
             457.36951    0.01403730124668
             103.94869   0.068842606114048
             29.210155    0.23218442062076
              9.286663    0.46794134155879
              3.163927    0.36231203217765
 s    3 1.00
             7.8682724   -0.11933240861517
             1.8812885   -0.16085421161283
             0.5442493     1.1434564825515
 s    1 1.00
             0.1687144                   1
 p    3 1.00
             7.8682724   0.068999095584993
             1.8812885    0.31642397975315
             0.5442493    0.74430825237435
 p    1 1.00
             0.1687144                   1
 d    1 1.00
                   0.8                   1

8 0
 s    3 1.00
             18.731137    0.03349459952309
             2.8253937    0.23472694665786
             0.6401217    0.81375731841339
 s    1 1.00
             0.1612778                   1

9 0
 s    3 1.00
             18.731137    0.03349459952309
             2.8253937    0.23472694665786
             0.6401217    0.81375731841339
 s    1 1.00
             0.1612778                   1

10 0
 s    6 1.00
             3047.5249  0.0018347001629433
             457.36951    0.01403730124668
             103.94869   0.068842606114048
             29.210155    0.23218442062076
              9.286663    0.46794134155879
              3.163927    0.36231203217765
 s    3 1.00
             7.8682724   -0.11933240861517
             1.8812885   -0.16085421161283
             0.5442493     1.1434564825515
 s    1 1.00
             0.1687144                   1
 p    3 1.00
             7.8682724   0.068999095584993
             1.8812885    0.31642397975315
             0.5442493    0.74430825237435
 p    1 1.00
             0.1687144                   1
 d    1 1.00
                   0.8                   1

11 0
 s    3 1.00
             18.731137    0.03349459952309
             2.8253937    0.23472694665786
             0.6401217    0.81375731841339
 s    1 1.00
             0.1612778                   1

12 0
 s    6 1.00
             3047.5249  0.0018347001629433
             457.36951    0.01403730124668
             103.94869   0.068842606114048
             29.210155    0.23218442062076
              9.286663    0.46794134155879
              3.163927    0.36231203217765
 s    3 1.00
             7.8682724   -0.11933240861517
             1.8812885   -0.16085421161283
             0.5442493     1.1434564825515
 s    1 1.00
             0.1687144                   1
 p    3 1.00
             7.8682724   0.068999095584993
             1.8812885    0.31642397975315
             0.5442493    0.74430825237435
 p    1 1.00
             0.1687144                   1
 d    1 1.00
                   0.8                   1

13 0
 s    3 1.00
             18.731137    0.03349459952309
             2.8253937    0.23472694665786
             0.6401217    0.81375731841339
 s    1 1.00
             0.1612778                   1

14 0
 s    3 1.00
             18.731137    0.03349459952309
             2.8253937    0.23472694665786
             0.6401217    0.81375731841339
 s    1 1.00
             0.1612778                   1

15 0
 s    6 1.00
             3047.5249  0.0018347001629433
             457.36951    0.01403730124668
             103.94869   0.068842606114048
             29.210155    0.23218442062076
              9.286663    0.46794134155879
              3.163927    0.36231203217765
 s    3 1.00
             7.8682724   -0.11933240861517
             1.8812885   -0.16085421161283
             0.5442493     1.1434564825515
 s    1 1.00
             0.1687144                   1
 p    3 1.00
             7.8682724   0.068999095584993
             1.8812885    0.31642397975315
             0.5442493    0.74430825237435
 p    1 1.00
             0.1687144                   1
 d    1 1.00
                   0.8                   1

16 0
 s    6 1.00
             3047.5249  0.0018347001629433
             457.36951    0.01403730124668
             103.94869   0.068842606114048
             29.210155    0.23218442062076
              9.286663    0.46794134155879
              3.163927    0.36231203217765
 s    3 1.00
             7.8682724   -0.11933240861517
             1.8812885   -0.16085421161283
             0.5442493     1.1434564825515
 s    1 1.00
             0.1687144                   1
 p    3 1.00
             7.8682724   0.068999095584993
             1.8812885    0.31642397975315
             0.5442493    0.74430825237435
 p    1 1.00
             0.1687144                   1
 d    1 1.00
                   0.8                   1

17 0
 s    6 1.00
             3047.5249  0.0018347001629433
             457.36951    0.01403730124668
             103.94869   0.068842606114048
             29.210155    0.23218442062076
              9.286663    0.46794134155879
              3.163927    0.36231203217765
 s    3 1.00
             7.8682724   -0.11933240861517
             1.8812885   -0.16085421161283
             0.5442493     1.1434564825515
 s    1 1.00
             0.1687144                   1
 p    3 1.00
             7.8682724   0.068999095584993
             1.8812885    0.31642397975315
             0.5442493    0.74430825237435
 p    1 1.00
             0.1687144                   1
 d    1 1.00
                   0.8                   1

18 0
 s    6 1.00
             3047.5249  0.0018347001629433
             457.36951    0.01403730124668
             103.94869   0.068842606114048
             29.210155    0.23218442062076
              9.286663    0.46794134155879
              3.163927    0.36231203217765
 s    3 1.00
             7.8682724   -0.11933240861517
             1.8812885   -0.16085421161283
             0.5442493     1.1434564825515
 s    1 1.00
             0.1687144                   1
 p    3 1.00
             7.8682724   0.068999095584993
             1.8812885    0.31642397975315
             0.5442493    0.74430825237435
 p    1 1.00
             0.1687144                   1
 d    1 1.00
                   0.8                   1

19 0
 s    6 1.00
             3047.5249  0.0018347001629433
             457.36951    0.01403730124668
             103.94869   0.068842606114048
             29.210155    0.23218442062076
              9.286663    0.46794134155879
              3.163927    0.36231203217765
 s    3 1.00
             7.8682724   -0.11933240861517
             1.8812885   -0.16085421161283
             0.5442493     1.1434564825515
 s    1 1.00
             0.1687144                   1
 p    3 1.00
             7.8682724   0.068999095584993
             1.8812885    0.31642397975315
             0.5442493    0.74430825237435
 p    1 1.00
             0.1687144                   1
 d    1 1.00
                   0.8                   1

20 0
 s    6 1.00
             3047.5249  0.0018347001629433
             457.36951    0.01403730124668
             103.94869   0.068842606114048
             29.210155    0.23218442062076
              9.286663    0.46794134155879
              3.163927    0.36231203217765
 s    3 1.00
             7.8682724   -0.11933240861517
             1.8812885   -0.16085421161283
             0.5442493     1.1434564825515
 s    1 1.00
             0.1687144                   1
 p    3 1.00
             7.8682724   0.068999095584993
             1.8812885    0.31642397975315
             0.5442493    0.74430825237435
 p    1 1.00
             0.1687144                   1
 d    1 1.00
                   0.8                   1

21 0
 s    6 1.00
             3047.5249  0.0018347001629433
             457.36951    0.01403730124668
             103.94869   0.068842606114048
             29.210155    0.23218442062076
              9.286663    0.46794134155879
              3.163927    0.36231203217765
 s    3 1.00
             7.8682724   -0.11933240861517
             1.8812885   -0.16085421161283
             0.5442493     1.1434564825515
 s    1 1.00
             0.1687144                   1
 p    3 1.00
             7.8682724   0.068999095584993
             1.8812885    0.31642397975315
             0.5442493    0.74430825237435
 p    1 1.00
             0.1687144                   1
 d    1 1.00
                   0.8                   1

22 0
 s    3 1.00
             18.731137    0.03349459952309
             2.8253937    0.23472694665786
             0.6401217    0.81375731841339
 s    1 1.00
             0.1612778                   1

23 0
 s    3 1.00
             18.731137    0.03349459952309
             2.8253937    0.23472694665786
             0.6401217    0.81375731841339
 s    1 1.00
             0.1612778                   1

24 0
 s    3 1.00
             18.731137    0.03349459952309
             2.8253937    0.23472694665786
             0.6401217    0.81375731841339
 s    1 1.00
             0.1612778                   1

25 0
 s    3 1.00
             18.731137    0.03349459952309
             2.8253937    0.23472694665786
             0.6401217    0.81375731841339
 s    1 1.00
             0.1612778                   1

26 0
 s    3 1.00
             18.731137    0.03349459952309
             2.8253937    0.23472694665786
             0.6401217    0.81375731841339
 s    1 1.00
             0.1612778                   1

27 0
 s    3 1.00
             18.731137    0.03349459952309
             2.8253937    0.23472694665786
             0.6401217    0.81375731841339
 s    1 1.00
             0.1612778                   1

28 0
 s    3 1.00
             18.731137    0.03349459952309
             2.8253937    0.23472694665786
             0.6401217    0.81375731841339
 s    1 1.00
             0.1612778                   1

29 0
 s    3 1.00
             18.731137    0.03349459952309
             2.8253937    0.23472694665786
             0.6401217    0.81375731841339
 s    1 1.00
             0.1612778                   1

30 0
 s    3 1.00
             18.731137    0.03349459952309
             2.8253937    0.23472694665786
             0.6401217    0.81375731841339
 s    1 1.00
             0.1612778                   1

31 0
 s    3 1.00
             18.731137    0.03349459952309
             2.8253937    0.23472694665786
             0.6401217    0.81375731841339
 s    1 1.00
             0.1612778                   1

32 0
 s    3 1.00
             18.731137    0.03349459952309
             2.8253937    0.23472694665786
             0.6401217    0.81375731841339
 s    1 1.00
             0.1612778                   1

33 0
 s    6 1.00
             3047.5249  0.0018347001629433
             457.36951    0.01403730124668
             103.94869   0.068842606114048
             29.210155    0.23218442062076
              9.286663    0.46794134155879
              3.163927    0.36231203217765
 s    3 1.00
             7.8682724   -0.11933240861517
             1.8812885   -0.16085421161283
             0.5442493     1.1434564825515
 s    1 1.00
             0.1687144                   1
 p    3 1.00
             7.8682724   0.068999095584993
             1.8812885    0.31642397975315
             0.5442493    0.74430825237435
 p    1 1.00
             0.1687144                   1
 d    1 1.00
                   0.8                   1

34 0
 s    6 1.00
             3047.5249  0.0018347001629433
             457.36951    0.01403730124668
             103.94869   0.068842606114048
             29.210155    0.23218442062076
              9.286663    0.46794134155879
              3.163927    0.36231203217765
 s    3 1.00
             7.8682724   -0.11933240861517
             1.8812885   -0.16085421161283
             0.5442493     1.1434564825515
 s    1 1.00
             0.1687144                   1
 p    3 1.00
             7.8682724   0.068999095584993
             1.8812885    0.31642397975315
             0.5442493    0.74430825237435
 p    1 1.00
             0.1687144                   1
 d    1 1.00
                   0.8                   1

35 0
 s    3 1.00
             18.731137    0.03349459952309
             2.8253937    0.23472694665786
             0.6401217    0.81375731841339
 s    1 1.00
             0.1612778                   1

36 0
 s    6 1.00
             3047.5249  0.0018347001629433
             457.36951    0.01403730124668
             103.94869   0.068842606114048
             29.210155    0.23218442062076
              9.286663    0.46794134155879
              3.163927    0.36231203217765
 s    3 1.00
             7.8682724   -0.11933240861517
             1.8812885   -0.16085421161283
             0.5442493     1.1434564825515
 s    1 1.00
             0.1687144                   1
 p    3 1.00
             7.8682724   0.068999095584993
             1.8812885    0.31642397975315
             0.5442493    0.74430825237435
 p    1 1.00
             0.1687144                   1
 d    1 1.00
                   0.8                   1

37 0
 s    3 1.00
             18.731137    0.03349459952309
             2.8253937    0.23472694665786
             0.6401217    0.81375731841339
 s    1 1.00
             0.1612778                   1

38 0
 s    3 1.00
             18.731137    0.03349459952309
             2.8253937    0.23472694665786
             0.6401217    0.81375731841339
 s    1 1.00
             0.1612778                   1

39 0
 s    6 1.00
             3047.5249  0.0018347001629433
             457.36951    0.01403730124668
             103.94869   0.068842606114048
             29.210155    0.23218442062076
              9.286663    0.46794134155879
              3.163927    0.36231203217765
 s    3 1.00
             7.8682724   -0.11933240861517
             1.8812885   -0.16085421161283
             0.5442493     1.1434564825515
 s    1 1.00
             0.1687144                   1
 p    3 1.00
             7.8682724   0.068999095584993
             1.8812885    0.31642397975315
             0.5442493    0.74430825237435
 p    1 1.00
             0.1687144                   1
 d    1 1.00
                   0.8                   1

40 0
 s    6 1.00
             3047.5249  0.0018347001629433
             457.36951    0.01403730124668
             103.94869   0.068842606114048
             29.210155    0.23218442062076
              9.286663    0.46794134155879
              3.163927    0.36231203217765
 s    3 1.00
             7.8682724   -0.11933240861517
             1.8812885   -0.16085421161283
             0.5442493     1.1434564825515
 s    1 1.00
             0.1687144                   1
 p    3 1.00
             7.8682724   0.068999095584993
             1.8812885    0.31642397975315
             0.5442493    0.74430825237435
 p    1 1.00
             0.1687144                   1
 d    1 1.00
                   0.8                   1

41 0
 s    3 1.00
             18.731137    0.03349459952309
             2.8253937    0.23472694665786
             0.6401217    0.81375731841339
 s    1 1.00
             0.1612778                   1

42 0
 s    6 1.00
             5484.6717   0.001831099805527
             825.23495   0.013950098518422
             188.04696    0.06844509273075
               52.9645    0.23271427528445
              16.89757    0.47019295006289
             5.7996353    0.35852086192309
 s    3 1.00
             15.539616   -0.11077750382508
             3.5999336   -0.14802630511126
             1.0137618     1.1307670390447
 s    1 1.00
             0.2700058                   1
 p    3 1.00
             15.539616   0.070874299543311
             3.5999336    0.33975279781076
             1.0137618    0.72715859531445
 p    1 1.00
             0.2700058                   1
 d    1 1.00
                   0.8                   1

43 0
 s    3 1.00
             18.731137    0.03349459952309
             2.8253937    0.23472694665786
             0.6401217    0.81375731841339
 s    1 1.00
             0.1612778                   1

[5d]
[7f]
[9g]

[MO]
 Sym= A
 Ene=               0
 Spin= Alpha
 Occup=    1.00000
   1     0.021835119882999
   2    -0.00078152475889105
   3      0.00684340506654
   4    0.00037823420849018
   5    -0.00015492555329093
   6    0.0011492110710898
   7    0.00082718335487728
   8    0.0013443385858861
   9    -0.0054524132527979
  10    -0.0008816197668662
  11    -0.00086351504714752
  12    0.0001414298623617
  13    -0.00020500214823951
  14    4.1407248977213e-05
  15    -0.00048893273929195
  16    -0.00090135802862138
  17      0.99481497663979
  18     0.036845130627925
  19    -0.028419537551583
  20    0.0009398473908173
  21    0.00017978638798543
  22    -0.00054223759803569
  23    -0.0035920927284589
  24    -0.0011053787055336
  25    -0.000800638547681
  26    0.00075835023413129
  27    -0.00030304375446926
  28    -0.00033955137387093
  29    0.00029515628321095
  30    0.0002138178175349
  31    -0.001129949986515
  32    0.0038307006477114
  33     0.013563507734997
  34    -0.00025304011024875
  35    0.0010369452246641
  36    0.00082900612629292
  37    0.00031866768537077
  38    -0.0011120600710984
  39    -0.0026512072753983
  40    0.0034154360736533
  41     0.003802596503313
  42    -0.0005758259072111
  43    0.0011771720777994
  44    0.00048064479322551
  45    -0.00035811844849771
  46    -0.0003534540144763
  47    -0.00055017602410355
  48    -0.00057456488948858
  49    -0.0002735084774876
  50    -0.00053736652404494
  51    0.00017221352670107
  52    0.00028916216711017
  53    3.3841460584607e-05
  54    -0.00037446228397987
  55    -0.0052070953411475
  56    0.00097195004164893
  57    0.0066968219142033
  58    -0.00016230517473757
  59    -1.5917976623138e-05
  60    0.00012326223780992
  61    -0.00020492919054266
  62    -0.00023240348875063
  63    -0.0004741023002887
  64    0.00023417901728111
  65    -2.5969344918765e-06
  66    -4.1788840097761e-06
  67    -6.676235682975e-08
  68    -1.2196283510937e-06
  69    5.798544584077e-06
  70    1.962888699349e-06
  71    -4.4481959320904e-06
  72    -8.0940285050173e-08
  73    1.3009376965861e-05
  74    2.5131828301668e-05
  75    9.2979555895634e-06
  76    -1.3256725529932e-07
  77    -2.9863033221363e-07
  78    2.8580565015165e-07
  79    5.4106392235894e-07
  80    -3.1391843197978e-08
  81    2.5138937825918e-06
  82    1.2819858231167e-05
  83    1.728777477164e-07
  84    9.4048455846127e-07
  85    -6.6344418903225e-05
  86    3.8622155485919e-06
  87    3.1171021318964e-06
  88    5.0836020920109e-06
  89    2.2813825866591e-05
  90    -6.2388722800066e-05
  91    8.2799769267183e-06
  92    1.6214075602026e-06
  93    -2.6280907925327e-06
  94    3.6779129811199e-06
  95    -6.6555062718379e-07
  96    -1.0712087530376e-06
  97    6.9432506112287e-06
  98    1.1999905319384e-05
  99    -3.2700582050461e-06
 100    -1.86306374919e-05
 101    -9.4686424389907e-07
 102    -1.0581827952939e-05
 103    0.00021203640547568
 104    -1.748817904076e-06
 105    -8.1896515074965e-06
 106    -3.1575218183547e-06
 107    -0.00018350836282783
 108    0.00017914167702966
 109    0.00014200373897887
 110    -6.0279985142206e-06
 111    -2.9244503136001e-07
 112    8.9890164402931e-08
 113    1.1077297975082e-06
 114    -5.1622523069722e-06
 115    -3.2951651756932e-06
 116    -3.2476926292837e-05
 117    0.00023409696898197
 118    -2.2161260000592e-06
 119    2.5392725078784e-06
 120    5.3226015283624e-06
 121    -5.0767105450879e-05
 122    1.5165107982179e-05
 123    2.9156562732055e-05
 124    1.4316235713041e-06
 125    -2.9745043718988e-06
 126    -2.2774382504423e-06
 127    8.4343323403388e-07
 128    -2.2234841976493e-06
 129    -5.3514581494915e-06
 130    -5.1867117727263e-05
 131    0.00015238677109135
 132    4.8058380611784e-06
 133    -4.6035314828108e-06
 134    2.196620852876e-05
 135    -0.00032910247766159
 136    3.0181381182037e-05
 137    -0.00040514831594733
 138    8.9740770221759e-06
 139    1.3401025099722e-05
 140     5.31620924553e-06
 141    4.5386612425975e-06
 142    6.4903967818436e-06
 143    -2.2036215275265e-06
 144    -2.8032554683981e-05
 145    4.1102484294407e-05
 146    2.2155629881211e-06
 147    5.5706403497058e-06
 148    1.2321198289388e-05
 149    1.879909575266e-05
 150    6.2459287738626e-07
 151    -6.6355297700966e-05
 152    -6.548614649125e-06
 153    -3.9692541792787e-06
 154    -2.9519873314189e-06
 155    4.1259845859759e-06
 156    -4.1010155229595e-06
 157    1.5449973269099e-06
 158    1.2498988626994e-05
 159    -3.7900563927964e-05
 160    5.7764862558088e-06
 161    -2.6445957844406e-08
 162    -1.683808530811e-06
 163    -4.9278113466782e-05
 164    2.4754748366355e-05
 165    1.1144107839776e-05
 166    4.3875997287176e-06
 167    -8.5051312143581e-07
 168    -2.1570538072981e-07
 169    8.6119991644234e-07
 170    1.9309836669605e-06
 171    -4.733790090757e-07
 172    -1.23955886603e-05
 173    2.3135157736109e-05
 174    -4.0894144082217e-06
 175    -3.166125629296e-07
 176    1.0785924345015e-05
 177    -1.0803390754227e-06
 178    -1.4701774376614e-06
 179    -2.5666156949584e-05
 180    1.5395994948864e-06
 181    4.6300121257459e-06
 182    9.2844687825998e-07
 183    -1.205447267224e-06
 184    1.5579670299263e-06
 185    -3.2477567008247e-06
 186    -2.8183571216844e-05
 187    8.1114580876035e-05
 188    -2.2881030188165e-06
 189    6.8441404152278e-07
 190    4.9934748549694e-06
 191    -3.4726709298412e-06
 192    -1.3508809126879e-05
 193    -6.9143388127093e-05
 194    3.0840237037337e-06
 195    1.6458351411786e-06
 196    2.7046806077194e-06
 197    -2.3612142099938e-07
 198    3.8225051805465e-07
 199    -7.2670548029608e-06
 200    5.0185186339404e-07
 201    -2.3098395284606e-06
 202    1.9542008335452e-05
 203    -1.0860185535381e-05
 204    -3.7208724251486e-06
 205    -8.284850286113e-07
 206    -2.6605322403914e-05
 207    8.7886297155544e-06
 208    -5.9004837859434e-05
 209    1.0873717166594e-05
 210    -2.5778368889898e-05
 211    6.2184606621404e-06
 212    1.6986008718618e-05
 213    -7.281909879248e-07
 214    -2.0804883342428e-05
 215    -2.6044976934518e-06
 216    -2.8030624133148e-05
 217    1.4211336694223e-06
 218    8.8821153495365e-06
 219    4.6901508819448e-07
 220    -1.4604484685023e-06
 221    -8.141654022606e-06
 222    -8.3131045556105e-05
 223    0.00082490641852039
 224    -1.2126601177053e-05
 225    -3.1220725236453e-06
 226    1.2196036081372e-05
 227    0.0006012752831606
 228    0.00029482559204221
 229    -0.00088375619716111
 230    2.1177183699751e-06
 231    -4.1839735944522e-05
 232    -2.0342603180542e-05
 233    2.1021361024442e-05
 234    2.1407856938365e-05
 235    -1.465304209365e-05
 236    -3.7503277374978e-05
 237    -0.00017540048994662
 238    -2.006605954192e-05
 239    -1.674439737481e-06
 240    1.0624614412855e-05
 241    0.00026473535800229
 242    0.00033726408278227
 243    -0.0014700445624352
 244    9.2275811764568e-06
 245    6.7540339672413e-05
 246    1.0970936245866e-05
 247    1.8840058250418e-05
 248    -2.8734109437738e-06
 249    -3.3320143350299e-05
 250    0.00029471655021788
 251    -2.4104270728681e-05
 252    -0.00039403096062874
 253    0.0020642252906567
 254    6.7255443271821e-05
 255    -2.8787660026522e-05
 256    0.00022221722516558
 257    -1.5662100436465e-05
 258    0.00034320195252934
 259    -0.0017588584681195
 260    -5.843475992531e-05
 261    -1.4512350444514e-05
 262    -1.0744899902327e-05
 263    0.0001341915535587
 264    7.5098079604307e-05
 265    -8.6505681543194e-05
 266    0.00019290228786546
 267    -0.00013608528402093
 268    -0.00050480929053308
 269    -7.5460328447718e-05
 270    -0.00050342461292859
 271    0.0066919371397398
 272    -8.8366714389539e-05
 273    0.00010859075201629
 274    0.00011291916184734
 275    -0.0013209741142156
 276    -0.0026949618290426
 277    0.0028033660250513
 278    8.7066056846421e-05
 279    -0.00016910721729537
 280    -0.00010129061133716
 281    -2.637033132182e-05