[Molden Format]
made by pyscf v[2.0.1]
[Atoms] (AU)
C   1   6     0.69100024066471     0.64692934207205    -3.48223131169301
H   2   1     2.68052439830868     1.13355088658700    -3.25784032593313
C   3   6    -0.36286361513219     0.85440132524594    -5.97030179418974
H   4   1    -2.35448549047279     0.36322488579172    -6.17995817793143
C   5   6     0.93697958957450     1.61209284601821    -8.05828437677121
H   6   1     0.73648971111668     3.55370010139060    -8.71472010856714
C   7   6     2.58127687438623    -0.01872844577485    -9.47001807350619
H   8   1     2.76404479428938    -1.95840164828389    -8.78885291415754
H   9   1     1.55630230933075    -1.92953025305990    12.99630010416247
C   10   6     0.75233899775814    -2.21270439606481    11.10705728102219
H   11   1    -0.43433408177274    -3.90944857546550    11.22216085340412
C   12   6     2.86362581178706    -2.63237380607947     9.17926416456045
H   13   1     4.39038949912609    -1.24955421540245     9.49899813497433
H   14   1     3.74629220191363    -4.48798724300892     9.47414880959024
C   15   6     2.02478325613682    -2.42177285709634     6.44560829588644
C   16   6     3.88048732735477    -3.58795445234514     4.61402886975252
C   17   6    -0.18412382258602    -1.30464291234259     5.76021113872346
C   18   6    -2.10044360464350    -0.26837831858460     7.71610340967100
C   19   6    -3.08956938670431     2.35282328359417     6.88693925039594
C   20   6    -4.37372924086464    -2.09766595989678     7.93610724222001
C   21   6    -0.83850430601230     0.06372213486173    10.33002307638377
H   22   1     0.38411922151109     1.74281358582432    10.27380136542181
H   23   1    -2.30980003007874     0.45460143924521    11.73986301809809
H   24   1     4.58527064644668    -5.38706904487420     5.36778158031719
H   25   1     5.54944938085014    -2.37631462192748     4.35398898413318
H   26   1     3.06633019150423    -3.94118377050688     2.75255466040884
H   27   1    -4.17727778763735     2.26573369139522     5.12914900961283
H   28   1    -1.52662344944051     3.68001877445626     6.59540397144508
H   29   1    -4.32916174397830     3.13643051467482     8.35225460090378
H   30   1    -5.32329548508442    -2.36691813602939     6.11583672749896
H   31   1    -5.77989366602257    -1.33896741843465     9.25748940450990
H   32   1    -3.79310905208926    -3.96389819310853     8.61386170102686
C   33   6    -1.01100794811226    -1.06331657314144     3.11929490449947
C   34   6     0.37686231036534    -0.33275864505552     1.09165013605873
H   35   1    -3.01671213906703    -1.40297922279997     2.77827895090944
C   36   6    -0.64382707979370    -0.11591880174385    -1.42063131251064
H   37   1     2.35569259782137     0.17174499283897     1.33641070251401
H   38   1    -2.63317482980319    -0.60229203511219    -1.66119700387645
C   39   6     3.90960344721415     0.65123442372143   -11.55890098643101
C   40   6     5.53597339482346    -1.15257329589011   -12.86589030877460
H   41   1     3.81237322709460     2.55237110239842   -12.33607146621226
O   42   8     6.77935136485374    -0.67974925370394   -14.75037240649433
H   43   1     5.57867975922019    -3.07543379045103   -12.00509846248917
[GTO]
1 0
 s    6 1.00
             3047.5249  0.0018347001629433
             457.36951    0.01403730124668
             103.94869   0.068842606114048
             29.210155    0.23218442062076
              9.286663    0.46794134155879
              3.163927    0.36231203217765
 s    3 1.00
             7.8682724   -0.11933240861517
             1.8812885   -0.16085421161283
             0.5442493     1.1434564825515
 s    1 1.00
             0.1687144                   1
 p    3 1.00
             7.8682724   0.068999095584993
             1.8812885    0.31642397975315
             0.5442493    0.74430825237435
 p    1 1.00
             0.1687144                   1
 d    1 1.00
                   0.8                   1

2 0
 s    3 1.00
             18.731137    0.03349459952309
             2.8253937    0.23472694665786
             0.6401217    0.81375731841339
 s    1 1.00
             0.1612778                   1

3 0
 s    6 1.00
             3047.5249  0.0018347001629433
             457.36951    0.01403730124668
             103.94869   0.068842606114048
             29.210155    0.23218442062076
              9.286663    0.46794134155879
              3.163927    0.36231203217765
 s    3 1.00
             7.8682724   -0.11933240861517
             1.8812885   -0.16085421161283
             0.5442493     1.1434564825515
 s    1 1.00
             0.1687144                   1
 p    3 1.00
             7.8682724   0.068999095584993
             1.8812885    0.31642397975315
             0.5442493    0.74430825237435
 p    1 1.00
             0.1687144                   1
 d    1 1.00
                   0.8                   1

4 0
 s    3 1.00
             18.731137    0.03349459952309
             2.8253937    0.23472694665786
             0.6401217    0.81375731841339
 s    1 1.00
             0.1612778                   1

5 0
 s    6 1.00
             3047.5249  0.0018347001629433
             457.36951    0.01403730124668
             103.94869   0.068842606114048
             29.210155    0.23218442062076
              9.286663    0.46794134155879
              3.163927    0.36231203217765
 s    3 1.00
             7.8682724   -0.11933240861517
             1.8812885   -0.16085421161283
             0.5442493     1.1434564825515
 s    1 1.00
             0.1687144                   1
 p    3 1.00
             7.8682724   0.068999095584993
             1.8812885    0.31642397975315
             0.5442493    0.74430825237435
 p    1 1.00
             0.1687144                   1
 d    1 1.00
                   0.8                   1

6 0
 s    3 1.00
             18.731137    0.03349459952309
             2.8253937    0.23472694665786
             0.6401217    0.81375731841339
 s    1 1.00
             0.1612778                   1

7 0
 s    6 1.00
             3047.5249  0.0018347001629433
             457.36951    0.01403730124668
             103.94869   0.068842606114048
             29.210155    0.23218442062076
              9.286663    0.46794134155879
              3.163927    0.36231203217765
 s    3 1.00
             7.8682724   -0.11933240861517
             1.8812885   -0.16085421161283
             0.5442493     1.1434564825515
 s    1 1.00
             0.1687144                   1
 p    3 1.00
             7.8682724   0.068999095584993
             1.8812885    0.31642397975315
             0.5442493    0.74430825237435
 p    1 1.00
             0.1687144                   1
 d    1 1.00
                   0.8                   1

8 0
 s    3 1.00
             18.731137    0.03349459952309
             2.8253937    0.23472694665786
             0.6401217    0.81375731841339
 s    1 1.00
             0.1612778                   1

9 0
 s    3 1.00
             18.731137    0.03349459952309
             2.8253937    0.23472694665786
             0.6401217    0.81375731841339
 s    1 1.00
             0.1612778                   1

10 0
 s    6 1.00
             3047.5249  0.0018347001629433
             457.36951    0.01403730124668
             103.94869   0.068842606114048
             29.210155    0.23218442062076
              9.286663    0.46794134155879
              3.163927    0.36231203217765
 s    3 1.00
             7.8682724   -0.11933240861517
             1.8812885   -0.16085421161283
             0.5442493     1.1434564825515
 s    1 1.00
             0.1687144                   1
 p    3 1.00
             7.8682724   0.068999095584993
             1.8812885    0.31642397975315
             0.5442493    0.74430825237435
 p    1 1.00
             0.1687144                   1
 d    1 1.00
                   0.8                   1

11 0
 s    3 1.00
             18.731137    0.03349459952309
             2.8253937    0.23472694665786
             0.6401217    0.81375731841339
 s    1 1.00
             0.1612778                   1

12 0
 s    6 1.00
             3047.5249  0.0018347001629433
             457.36951    0.01403730124668
             103.94869   0.068842606114048
             29.210155    0.23218442062076
              9.286663    0.46794134155879
              3.163927    0.36231203217765
 s    3 1.00
             7.8682724   -0.11933240861517
             1.8812885   -0.16085421161283
             0.5442493     1.1434564825515
 s    1 1.00
             0.1687144                   1
 p    3 1.00
             7.8682724   0.068999095584993
             1.8812885    0.31642397975315
             0.5442493    0.74430825237435
 p    1 1.00
             0.1687144                   1
 d    1 1.00
                   0.8                   1

13 0
 s    3 1.00
             18.731137    0.03349459952309
             2.8253937    0.23472694665786
             0.6401217    0.81375731841339
 s    1 1.00
             0.1612778                   1

14 0
 s    3 1.00
             18.731137    0.03349459952309
             2.8253937    0.23472694665786
             0.6401217    0.81375731841339
 s    1 1.00
             0.1612778                   1

15 0
 s    6 1.00
             3047.5249  0.0018347001629433
             457.36951    0.01403730124668
             103.94869   0.068842606114048
             29.210155    0.23218442062076
              9.286663    0.46794134155879
              3.163927    0.36231203217765
 s    3 1.00
             7.8682724   -0.11933240861517
             1.8812885   -0.16085421161283
             0.5442493     1.1434564825515
 s    1 1.00
             0.1687144                   1
 p    3 1.00
             7.8682724   0.068999095584993
             1.8812885    0.31642397975315
             0.5442493    0.74430825237435
 p    1 1.00
             0.1687144                   1
 d    1 1.00
                   0.8                   1

16 0
 s    6 1.00
             3047.5249  0.0018347001629433
             457.36951    0.01403730124668
             103.94869   0.068842606114048
             29.210155    0.23218442062076
              9.286663    0.46794134155879
              3.163927    0.36231203217765
 s    3 1.00
             7.8682724   -0.11933240861517
             1.8812885   -0.16085421161283
             0.5442493     1.1434564825515
 s    1 1.00
             0.1687144                   1
 p    3 1.00
             7.8682724   0.068999095584993
             1.8812885    0.31642397975315
             0.5442493    0.74430825237435
 p    1 1.00
             0.1687144                   1
 d    1 1.00
                   0.8                   1

17 0
 s    6 1.00
             3047.5249  0.0018347001629433
             457.36951    0.01403730124668
             103.94869   0.068842606114048
             29.210155    0.23218442062076
              9.286663    0.46794134155879
              3.163927    0.36231203217765
 s    3 1.00
             7.8682724   -0.11933240861517
             1.8812885   -0.16085421161283
             0.5442493     1.1434564825515
 s    1 1.00
             0.1687144                   1
 p    3 1.00
             7.8682724   0.068999095584993
             1.8812885    0.31642397975315
             0.5442493    0.74430825237435
 p    1 1.00
             0.1687144                   1
 d    1 1.00
                   0.8                   1

18 0
 s    6 1.00
             3047.5249  0.0018347001629433
             457.36951    0.01403730124668
             103.94869   0.068842606114048
             29.210155    0.23218442062076
              9.286663    0.46794134155879
              3.163927    0.36231203217765
 s    3 1.00
             7.8682724   -0.11933240861517
             1.8812885   -0.16085421161283
             0.5442493     1.1434564825515
 s    1 1.00
             0.1687144                   1
 p    3 1.00
             7.8682724   0.068999095584993
             1.8812885    0.31642397975315
             0.5442493    0.74430825237435
 p    1 1.00
             0.1687144                   1
 d    1 1.00
                   0.8                   1

19 0
 s    6 1.00
             3047.5249  0.0018347001629433
             457.36951    0.01403730124668
             103.94869   0.068842606114048
             29.210155    0.23218442062076
              9.286663    0.46794134155879
              3.163927    0.36231203217765
 s    3 1.00
             7.8682724   -0.11933240861517
             1.8812885   -0.16085421161283
             0.5442493     1.1434564825515
 s    1 1.00
             0.1687144                   1
 p    3 1.00
             7.8682724   0.068999095584993
             1.8812885    0.31642397975315
             0.5442493    0.74430825237435
 p    1 1.00
             0.1687144                   1
 d    1 1.00
                   0.8                   1

20 0
 s    6 1.00
             3047.5249  0.0018347001629433
             457.36951    0.01403730124668
             103.94869   0.068842606114048
             29.210155    0.23218442062076
              9.286663    0.46794134155879
              3.163927    0.36231203217765
 s    3 1.00
             7.8682724   -0.11933240861517
             1.8812885   -0.16085421161283
             0.5442493     1.1434564825515
 s    1 1.00
             0.1687144                   1
 p    3 1.00
             7.8682724   0.068999095584993
             1.8812885    0.31642397975315
             0.5442493    0.74430825237435
 p    1 1.00
             0.1687144                   1
 d    1 1.00
                   0.8                   1

21 0
 s    6 1.00
             3047.5249  0.0018347001629433
             457.36951    0.01403730124668
             103.94869   0.068842606114048
             29.210155    0.23218442062076
              9.286663    0.46794134155879
              3.163927    0.36231203217765
 s    3 1.00
             7.8682724   -0.11933240861517
             1.8812885   -0.16085421161283
             0.5442493     1.1434564825515
 s    1 1.00
             0.1687144                   1
 p    3 1.00
             7.8682724   0.068999095584993
             1.8812885    0.31642397975315
             0.5442493    0.74430825237435
 p    1 1.00
             0.1687144                   1
 d    1 1.00
                   0.8                   1

22 0
 s    3 1.00
             18.731137    0.03349459952309
             2.8253937    0.23472694665786
             0.6401217    0.81375731841339
 s    1 1.00
             0.1612778                   1

23 0
 s    3 1.00
             18.731137    0.03349459952309
             2.8253937    0.23472694665786
             0.6401217    0.81375731841339
 s    1 1.00
             0.1612778                   1

24 0
 s    3 1.00
             18.731137    0.03349459952309
             2.8253937    0.23472694665786
             0.6401217    0.81375731841339
 s    1 1.00
             0.1612778                   1

25 0
 s    3 1.00
             18.731137    0.03349459952309
             2.8253937    0.23472694665786
             0.6401217    0.81375731841339
 s    1 1.00
             0.1612778                   1

26 0
 s    3 1.00
             18.731137    0.03349459952309
             2.8253937    0.23472694665786
             0.6401217    0.81375731841339
 s    1 1.00
             0.1612778                   1

27 0
 s    3 1.00
             18.731137    0.03349459952309
             2.8253937    0.23472694665786
             0.6401217    0.81375731841339
 s    1 1.00
             0.1612778                   1

28 0
 s    3 1.00
             18.731137    0.03349459952309
             2.8253937    0.23472694665786
             0.6401217    0.81375731841339
 s    1 1.00
             0.1612778                   1

29 0
 s    3 1.00
             18.731137    0.03349459952309
             2.8253937    0.23472694665786
             0.6401217    0.81375731841339
 s    1 1.00
             0.1612778                   1

30 0
 s    3 1.00
             18.731137    0.03349459952309
             2.8253937    0.23472694665786
             0.6401217    0.81375731841339
 s    1 1.00
             0.1612778                   1

31 0
 s    3 1.00
             18.731137    0.03349459952309
             2.8253937    0.23472694665786
             0.6401217    0.81375731841339
 s    1 1.00
             0.1612778                   1

32 0
 s    3 1.00
             18.731137    0.03349459952309
             2.8253937    0.23472694665786
             0.6401217    0.81375731841339
 s    1 1.00
             0.1612778                   1

33 0
 s    6 1.00
             3047.5249  0.0018347001629433
             457.36951    0.01403730124668
             103.94869   0.068842606114048
             29.210155    0.23218442062076
              9.286663    0.46794134155879
              3.163927    0.36231203217765
 s    3 1.00
             7.8682724   -0.11933240861517
             1.8812885   -0.16085421161283
             0.5442493     1.1434564825515
 s    1 1.00
             0.1687144                   1
 p    3 1.00
             7.8682724   0.068999095584993
             1.8812885    0.31642397975315
             0.5442493    0.74430825237435
 p    1 1.00
             0.1687144                   1
 d    1 1.00
                   0.8                   1

34 0
 s    6 1.00
             3047.5249  0.0018347001629433
             457.36951    0.01403730124668
             103.94869   0.068842606114048
             29.210155    0.23218442062076
              9.286663    0.46794134155879
              3.163927    0.36231203217765
 s    3 1.00
             7.8682724   -0.11933240861517
             1.8812885   -0.16085421161283
             0.5442493     1.1434564825515
 s    1 1.00
             0.1687144                   1
 p    3 1.00
             7.8682724   0.068999095584993
             1.8812885    0.31642397975315
             0.5442493    0.74430825237435
 p    1 1.00
             0.1687144                   1
 d    1 1.00
                   0.8                   1

35 0
 s    3 1.00
             18.731137    0.03349459952309
             2.8253937    0.23472694665786
             0.6401217    0.81375731841339
 s    1 1.00
             0.1612778                   1

36 0
 s    6 1.00
             3047.5249  0.0018347001629433
             457.36951    0.01403730124668
             103.94869   0.068842606114048
             29.210155    0.23218442062076
              9.286663    0.46794134155879
              3.163927    0.36231203217765
 s    3 1.00
             7.8682724   -0.11933240861517
             1.8812885   -0.16085421161283
             0.5442493     1.1434564825515
 s    1 1.00
             0.1687144                   1
 p    3 1.00
             7.8682724   0.068999095584993
             1.8812885    0.31642397975315
             0.5442493    0.74430825237435
 p    1 1.00
             0.1687144                   1
 d    1 1.00
                   0.8                   1

37 0
 s    3 1.00
             18.731137    0.03349459952309
             2.8253937    0.23472694665786
             0.6401217    0.81375731841339
 s    1 1.00
             0.1612778                   1

38 0
 s    3 1.00
             18.731137    0.03349459952309
             2.8253937    0.23472694665786
             0.6401217    0.81375731841339
 s    1 1.00
             0.1612778                   1

39 0
 s    6 1.00
             3047.5249  0.0018347001629433
             457.36951    0.01403730124668
             103.94869   0.068842606114048
             29.210155    0.23218442062076
              9.286663    0.46794134155879
              3.163927    0.36231203217765
 s    3 1.00
             7.8682724   -0.11933240861517
             1.8812885   -0.16085421161283
             0.5442493     1.1434564825515
 s    1 1.00
             0.1687144                   1
 p    3 1.00
             7.8682724   0.068999095584993
             1.8812885    0.31642397975315
             0.5442493    0.74430825237435
 p    1 1.00
             0.1687144                   1
 d    1 1.00
                   0.8                   1

40 0
 s    6 1.00
             3047.5249  0.0018347001629433
             457.36951    0.01403730124668
             103.94869   0.068842606114048
             29.210155    0.23218442062076
              9.286663    0.46794134155879
              3.163927    0.36231203217765
 s    3 1.00
             7.8682724   -0.11933240861517
             1.8812885   -0.16085421161283
             0.5442493     1.1434564825515
 s    1 1.00
             0.1687144                   1
 p    3 1.00
             7.8682724   0.068999095584993
             1.8812885    0.31642397975315
             0.5442493    0.74430825237435
 p    1 1.00
             0.1687144                   1
 d    1 1.00
                   0.8                   1

41 0
 s    3 1.00
             18.731137    0.03349459952309
             2.8253937    0.23472694665786
             0.6401217    0.81375731841339
 s    1 1.00
             0.1612778                   1

42 0
 s    6 1.00
             5484.6717   0.001831099805527
             825.23495   0.013950098518422
             188.04696    0.06844509273075
               52.9645    0.23271427528445
              16.89757    0.47019295006289
             5.7996353    0.35852086192309
 s    3 1.00
             15.539616   -0.11077750382508
             3.5999336   -0.14802630511126
             1.0137618     1.1307670390447
 s    1 1.00
             0.2700058                   1
 p    3 1.00
             15.539616   0.070874299543311
             3.5999336    0.33975279781076
             1.0137618    0.72715859531445
 p    1 1.00
             0.2700058                   1
 d    1 1.00
                   0.8                   1

43 0
 s    3 1.00
             18.731137    0.03349459952309
             2.8253937    0.23472694665786
             0.6401217    0.81375731841339
 s    1 1.00
             0.1612778                   1

[5d]
[7f]
[9g]

[MO]
 Sym= A
 Ene=               0
 Spin= Alpha
 Occup=    1.00000
   1     0.022377035451511
   2    -0.00074993996744235
   3    0.0068270605401727
   4    0.0003865857307518
   5    -0.00017086453948812
   6    0.0011374941063873
   7    0.00080646990763184
   8    0.0013912908770456
   9    -0.0053402045881622
  10    -0.00088132416680921
  11    -0.00087180751570067
  12    0.00013599460896668
  13    -0.00020661853634098
  14    4.2192987399978e-05
  15    -0.00048038710004246
  16    -0.00091181736765276
  17      0.99477542842491
  18     0.036810668293741
  19    -0.028309832101643
  20    0.00094148148181224
  21    0.00018375365735534
  22    -0.00050330279519445
  23    -0.0035723584263624
  24    -0.0011210634862697
  25    -0.00078561820090472
  26      0.00075253038941
  27    -0.00030097776021054
  28    -0.0003349999716519
  29    0.00028899106979176
  30    0.00022454275449177
  31    -0.0011401637418067
  32    0.0038095767739517
  33     0.015284310599398
  34    -0.00023410163144314
  35    0.0012271997221534
  36    0.00082672755169416
  37    0.00032303778734849
  38    -0.0011136428332043
  39    -0.0028475269385904
  40    0.0032171438505294
  41    0.0035669080766554
  42    -0.00055860351091539
  43    0.0011682864837022
  44    0.00049736268261745
  45    -0.00037075973869022
  46    -0.00034803362051343
  47    -0.00054507296338829
  48    -0.00053957962919948
  49    -0.00027987785005763
  50    -0.00052347578392638
  51    3.2387190245695e-05
  52    0.00031344088310239
  53    4.552320477871e-05
  54    -0.00034997262368919
  55    -0.0053920680800161
  56    0.00077592844946178
  57    0.0063403960898835
  58    -0.00016913757493625
  59    -7.4888957885588e-06
  60    8.8511282232683e-05
  61    -0.00017081272631277
  62    -0.00025820241685298
  63    -0.00046550820689418
  64     0.000212156067955
  65    -2.5446072298971e-06
  66    -4.3569346953098e-06
  67    -4.0551536842347e-08
  68    -9.3409652280632e-07
  69    4.7451295787919e-06
  70    1.7930323547784e-06
  71    -4.3388670320113e-06
  72    -1.0673307666824e-07
  73    1.3029044441287e-05
  74    2.5233128266353e-05
  75    9.5945244819929e-06
  76    -1.4943457600715e-07
  77    -2.671784810423e-07
  78    2.3869621465321e-07
  79    5.0044161355653e-07
  80    -2.5097632856568e-08
  81    2.5735281456554e-06
  82    1.3007947934573e-05
  83    1.2374358121084e-07
  84    5.8621104650389e-07
  85    -6.490886532493e-05
  86    3.8546763511498e-06
  87    3.0680628864725e-06
  88    4.924699498591e-06
  89    2.1335012960598e-05
  90    -6.1126309465405e-05
  91    8.5779170665204e-06
  92    1.639392314682e-06
  93    -2.5205890215348e-06
  94    3.5652361821272e-06
  95    -6.0549165364926e-07
  96    -1.079701816602e-06
  97    6.790825963659e-06
  98    1.1942208173948e-05
  99    -3.2045349860024e-06
 100    -1.8386484802106e-05
 101    -7.6506324275902e-07
 102    -9.522711323691e-06
 103    0.00019226996728418
 104    -1.5041928318499e-06
 105    -8.2752398615947e-06
 106    -2.8671348842585e-06
 107    -0.000175761786022
 108    0.00017407655852201
 109    0.00014456473638329
 110    -6.1543456944324e-06
 111    -4.2721433281361e-07
 112    1.3249848262026e-07
 113    8.4645089207074e-07
 114    -4.9060493867801e-06
 115    -3.299688048707e-06
 116    -3.2558044898664e-05
 117    0.00023221295340814
 118    -2.0629814670864e-06
 119    1.9553266875105e-06
 120    5.5579702436016e-06
 121    -5.2111020713963e-05
 122    1.8790057725135e-05
 123    2.8450746077535e-05
 124    1.3226373430886e-06
 125    -3.0469853596515e-06
 126    -2.126690997262e-06
 127    1.0159815925311e-06
 128    -2.2665046005968e-06
 129    -5.2961913032706e-06
 130    -5.1274170964005e-05
 131    0.00014664340907613
 132    4.0015671119129e-06
 133    -4.0774484479855e-06
 134    2.2089123038388e-05
 135    -0.00030835945754109
 136    2.152225566729e-05
 137    -0.0003988237916066
 138    8.4932552198684e-06
 139    1.3477288775445e-05
 140    4.9858659696746e-06
 141    4.6586090525478e-06
 142    6.2944889779776e-06
 143    -2.3603277085785e-06
 144    -2.9089434997689e-05
 145    5.2899146575793e-05
 146    2.2094277820576e-06
 147    5.3401872556145e-06
 148    1.1926600490115e-05
 149    2.1956429343501e-05
 150    5.3582784847034e-07
 151    -7.0066436511633e-05
 152    -6.1889713222707e-06
 153    -4.1601691473815e-06
 154    -2.7963606907168e-06
 155    4.0627517935056e-06
 156    -4.1031244714664e-06
 157    1.5350920081208e-06
 158    1.2385343597286e-05
 159    -3.9192682553131e-05
 160    5.6236481397806e-06
 161    7.5041380004459e-08
 162    -1.8763708764871e-06
 163    -4.9143116028513e-05
 164    2.5504837709594e-05
 165    1.1595594049885e-05
 166    4.4168165176455e-06
 167    -1.0069477663634e-06
 168    -2.3166438506026e-07
 169    9.1756060092779e-07
 170    1.9070897584505e-06
 171    -5.1523343467775e-07
 172    -1.2719521601337e-05
 173    2.434360245619e-05
 174    -4.0781301517345e-06
 175    -3.219781393445e-07
 176    1.0688685708254e-05
 177    -1.2242367905387e-06
 178    -1.7220905975011e-06
 179    -2.5539826274559e-05
 180    1.5284195708856e-06
 181    4.5498531295459e-06
 182    1.0314137914606e-06
 183    -1.1944834309441e-06
 184    1.4912035016292e-06
 185    -3.1482508381011e-06
 186    -2.7322584143569e-05
 187    7.8258486555311e-05
 188    -2.0966271872389e-06
 189    6.5672799607921e-07
 190    4.9655225269311e-06
 191    -4.7660577921588e-06
 192    -1.3472432750605e-05
 193    -6.6775426594353e-05
 194    2.8771960418918e-06
 195    1.6102394340052e-06
 196    2.6766960375728e-06
 197    -1.4221431876946e-07
 198    3.7105864775041e-07
 199    -6.9247541162395e-06
 200    1.0156242117936e-06
 201    -2.3748578093399e-06
 202    1.883190292422e-05
 203    -1.0439679016677e-05
 204    -1.6233543220676e-06
 205    -1.1308894628119e-06
 206    -2.6840549737106e-05
 207    7.987645226797e-06
 208    -5.5868007257097e-05
 209    1.0898631178182e-05
 210    -2.5482778295518e-05
 211    6.295865487729e-06
 212    1.6616066983175e-05
 213    -7.9386920454808e-07
 214    -2.0627643786411e-05
 215    -2.4019797509882e-06
 216    -2.9176476844283e-05
 217    1.2717025098545e-06
 218    9.0200545178518e-06
 219    3.7804595011433e-07
 220    -1.7056257846688e-06
 221    -7.8607567521905e-06
 222    -8.105693957884e-05
 223    0.00081097286036786
 224    -1.2129824642442e-05
 225    -4.3487833556244e-06
 226    1.1648351963102e-05
 227    0.00059587779800696
 228    0.00029200130337915
 229    -0.0008564444569085
 230    1.9799818406628e-06
 231    -4.1269952832615e-05
 232    -1.9478207893081e-05
 233     2.09101610061e-05
 234    2.0972394434191e-05
 235    -1.5052452904975e-05
 236    -3.901765615788e-05
 237    -0.00012457853297187
 238    -1.9527389940724e-05
 239    -1.5408393166917e-06
 240    9.2921504921094e-06
 241    0.00024670095514803
 242    0.00034321886504511
 243    -0.0014724162432463
 244    9.7637603560461e-06
 245    6.7276331934767e-05
 246    8.8854097066635e-06
 247    1.919849912306e-05
 248    -4.1247742309555e-06
 249    -3.2655615666598e-05
 250    0.00029530292029488
 251    -2.3037180414415e-05
 252    -0.00038944744328025
 253    0.0019787421757213
 254    6.5228978932108e-05
 255    -2.403565845592e-05
 256    0.00022657213727681
 257    -4.8423272103136e-05
 258    0.00029450278386933
 259    -0.0017627425650132
 260    -5.9727517717061e-05
 261    -1.3108016826632e-05
 262    -6.5476462888896e-06
 263    0.00013527444846688
 264    7.0582906812278e-05
 265    -8.530754764085e-05
 266    0.00019158103501157
 267    -0.00013791286448158
 268    -0.00051323726229654
 269    -7.4651096860435e-05
 270    -0.00049735068213232
 271    0.0066110923319968
 272    -0.00010174365759949
 273    0.00010180447972002
 274    0.0001008881873382
 275    -0.0011763626860298
 276    -0.0025804589596127
 277     0.002895055149791
 278    9.2155284602903e-05
 279    -0.00016283685462944
 280    -0.0001060853954274