[Molden Format]
made by pyscf v[2.0.1]
[Atoms] (AU)
C   1   6     0.69100024066471     0.64692934207205    -3.48223131169301
H   2   1     2.68052439830868     1.13355088658700    -3.25784032593313
C   3   6    -0.36286361513219     0.85440132524594    -5.97030179418974
H   4   1    -2.35448549047279     0.36322488579172    -6.17995817793143
C   5   6     0.93697958957450     1.61209284601821    -8.05828437677121
H   6   1     1.52220939200985     3.58023657898303    -8.21595213017833
C   7   6     1.59282573286669    -0.05175011382745   -10.09734693546315
H   8   1     0.99474836942587    -2.01839690080961    -9.91207388765078
H   9   1     1.55630230933075    -1.92953025305990    12.99630010416247
C   10   6     0.75233899775814    -2.21270439606481    11.10705728102219
H   11   1    -0.43433408177274    -3.90944857546550    11.22216085340412
C   12   6     2.86362581178706    -2.63237380607947     9.17926416456045
H   13   1     4.39038949912609    -1.24955421540245     9.49899813497433
H   14   1     3.74629220191363    -4.48798724300892     9.47414880959024
C   15   6     2.02478325613682    -2.42177285709634     6.44560829588644
C   16   6     3.88048732735477    -3.58795445234514     4.61402886975252
C   17   6    -0.18412382258602    -1.30464291234259     5.76021113872346
C   18   6    -2.10044360464350    -0.26837831858460     7.71610340967100
C   19   6    -3.08956938670431     2.35282328359417     6.88693925039594
C   20   6    -4.37372924086464    -2.09766595989678     7.93610724222001
C   21   6    -0.83850430601230     0.06372213486173    10.33002307638377
H   22   1     0.38411922151109     1.74281358582432    10.27380136542181
H   23   1    -2.30980003007874     0.45460143924521    11.73986301809809
H   24   1     4.58527064644668    -5.38706904487420     5.36778158031719
H   25   1     5.54944938085014    -2.37631462192748     4.35398898413318
H   26   1     3.06633019150423    -3.94118377050688     2.75255466040884
H   27   1    -4.17727778763735     2.26573369139522     5.12914900961283
H   28   1    -1.52662344944051     3.68001877445626     6.59540397144508
H   29   1    -4.32916174397830     3.13643051467482     8.35225460090378
H   30   1    -5.32329548508442    -2.36691813602939     6.11583672749896
H   31   1    -5.77989366602257    -1.33896741843465     9.25748940450990
H   32   1    -3.79310905208926    -3.96389819310853     8.61386170102686
C   33   6    -1.01100794811226    -1.06331657314144     3.11929490449947
C   34   6     0.37686231036534    -0.33275864505552     1.09165013605873
H   35   1    -3.01671213906703    -1.40297922279997     2.77827895090944
C   36   6    -0.64382707979370    -0.11591880174385    -1.42063131251064
H   37   1     2.35569259782137     0.17174499283897     1.33641070251401
H   38   1    -2.63317482980319    -0.60229203511219    -1.66119700387645
C   39   6     2.88089126504443     0.61821658123040   -12.21129238571255
C   40   6     3.45664863859100    -1.22033421200677   -14.18493293343049
H   41   1     3.53070761900678     2.54536442784122   -12.51396089296279
O   42   8     4.60321296142939    -0.74877588551315   -16.13014426558594
H   43   1     2.75622344406002    -3.16930929543288   -13.79624335354022
[GTO]
1 0
 s    6 1.00
             3047.5249  0.0018347001629433
             457.36951    0.01403730124668
             103.94869   0.068842606114048
             29.210155    0.23218442062076
              9.286663    0.46794134155879
              3.163927    0.36231203217765
 s    3 1.00
             7.8682724   -0.11933240861517
             1.8812885   -0.16085421161283
             0.5442493     1.1434564825515
 s    1 1.00
             0.1687144                   1
 p    3 1.00
             7.8682724   0.068999095584993
             1.8812885    0.31642397975315
             0.5442493    0.74430825237435
 p    1 1.00
             0.1687144                   1
 d    1 1.00
                   0.8                   1

2 0
 s    3 1.00
             18.731137    0.03349459952309
             2.8253937    0.23472694665786
             0.6401217    0.81375731841339
 s    1 1.00
             0.1612778                   1

3 0
 s    6 1.00
             3047.5249  0.0018347001629433
             457.36951    0.01403730124668
             103.94869   0.068842606114048
             29.210155    0.23218442062076
              9.286663    0.46794134155879
              3.163927    0.36231203217765
 s    3 1.00
             7.8682724   -0.11933240861517
             1.8812885   -0.16085421161283
             0.5442493     1.1434564825515
 s    1 1.00
             0.1687144                   1
 p    3 1.00
             7.8682724   0.068999095584993
             1.8812885    0.31642397975315
             0.5442493    0.74430825237435
 p    1 1.00
             0.1687144                   1
 d    1 1.00
                   0.8                   1

4 0
 s    3 1.00
             18.731137    0.03349459952309
             2.8253937    0.23472694665786
             0.6401217    0.81375731841339
 s    1 1.00
             0.1612778                   1

5 0
 s    6 1.00
             3047.5249  0.0018347001629433
             457.36951    0.01403730124668
             103.94869   0.068842606114048
             29.210155    0.23218442062076
              9.286663    0.46794134155879
              3.163927    0.36231203217765
 s    3 1.00
             7.8682724   -0.11933240861517
             1.8812885   -0.16085421161283
             0.5442493     1.1434564825515
 s    1 1.00
             0.1687144                   1
 p    3 1.00
             7.8682724   0.068999095584993
             1.8812885    0.31642397975315
             0.5442493    0.74430825237435
 p    1 1.00
             0.1687144                   1
 d    1 1.00
                   0.8                   1

6 0
 s    3 1.00
             18.731137    0.03349459952309
             2.8253937    0.23472694665786
             0.6401217    0.81375731841339
 s    1 1.00
             0.1612778                   1

7 0
 s    6 1.00
             3047.5249  0.0018347001629433
             457.36951    0.01403730124668
             103.94869   0.068842606114048
             29.210155    0.23218442062076
              9.286663    0.46794134155879
              3.163927    0.36231203217765
 s    3 1.00
             7.8682724   -0.11933240861517
             1.8812885   -0.16085421161283
             0.5442493     1.1434564825515
 s    1 1.00
             0.1687144                   1
 p    3 1.00
             7.8682724   0.068999095584993
             1.8812885    0.31642397975315
             0.5442493    0.74430825237435
 p    1 1.00
             0.1687144                   1
 d    1 1.00
                   0.8                   1

8 0
 s    3 1.00
             18.731137    0.03349459952309
             2.8253937    0.23472694665786
             0.6401217    0.81375731841339
 s    1 1.00
             0.1612778                   1

9 0
 s    3 1.00
             18.731137    0.03349459952309
             2.8253937    0.23472694665786
             0.6401217    0.81375731841339
 s    1 1.00
             0.1612778                   1

10 0
 s    6 1.00
             3047.5249  0.0018347001629433
             457.36951    0.01403730124668
             103.94869   0.068842606114048
             29.210155    0.23218442062076
              9.286663    0.46794134155879
              3.163927    0.36231203217765
 s    3 1.00
             7.8682724   -0.11933240861517
             1.8812885   -0.16085421161283
             0.5442493     1.1434564825515
 s    1 1.00
             0.1687144                   1
 p    3 1.00
             7.8682724   0.068999095584993
             1.8812885    0.31642397975315
             0.5442493    0.74430825237435
 p    1 1.00
             0.1687144                   1
 d    1 1.00
                   0.8                   1

11 0
 s    3 1.00
             18.731137    0.03349459952309
             2.8253937    0.23472694665786
             0.6401217    0.81375731841339
 s    1 1.00
             0.1612778                   1

12 0
 s    6 1.00
             3047.5249  0.0018347001629433
             457.36951    0.01403730124668
             103.94869   0.068842606114048
             29.210155    0.23218442062076
              9.286663    0.46794134155879
              3.163927    0.36231203217765
 s    3 1.00
             7.8682724   -0.11933240861517
             1.8812885   -0.16085421161283
             0.5442493     1.1434564825515
 s    1 1.00
             0.1687144                   1
 p    3 1.00
             7.8682724   0.068999095584993
             1.8812885    0.31642397975315
             0.5442493    0.74430825237435
 p    1 1.00
             0.1687144                   1
 d    1 1.00
                   0.8                   1

13 0
 s    3 1.00
             18.731137    0.03349459952309
             2.8253937    0.23472694665786
             0.6401217    0.81375731841339
 s    1 1.00
             0.1612778                   1

14 0
 s    3 1.00
             18.731137    0.03349459952309
             2.8253937    0.23472694665786
             0.6401217    0.81375731841339
 s    1 1.00
             0.1612778                   1

15 0
 s    6 1.00
             3047.5249  0.0018347001629433
             457.36951    0.01403730124668
             103.94869   0.068842606114048
             29.210155    0.23218442062076
              9.286663    0.46794134155879
              3.163927    0.36231203217765
 s    3 1.00
             7.8682724   -0.11933240861517
             1.8812885   -0.16085421161283
             0.5442493     1.1434564825515
 s    1 1.00
             0.1687144                   1
 p    3 1.00
             7.8682724   0.068999095584993
             1.8812885    0.31642397975315
             0.5442493    0.74430825237435
 p    1 1.00
             0.1687144                   1
 d    1 1.00
                   0.8                   1

16 0
 s    6 1.00
             3047.5249  0.0018347001629433
             457.36951    0.01403730124668
             103.94869   0.068842606114048
             29.210155    0.23218442062076
              9.286663    0.46794134155879
              3.163927    0.36231203217765
 s    3 1.00
             7.8682724   -0.11933240861517
             1.8812885   -0.16085421161283
             0.5442493     1.1434564825515
 s    1 1.00
             0.1687144                   1
 p    3 1.00
             7.8682724   0.068999095584993
             1.8812885    0.31642397975315
             0.5442493    0.74430825237435
 p    1 1.00
             0.1687144                   1
 d    1 1.00
                   0.8                   1

17 0
 s    6 1.00
             3047.5249  0.0018347001629433
             457.36951    0.01403730124668
             103.94869   0.068842606114048
             29.210155    0.23218442062076
              9.286663    0.46794134155879
              3.163927    0.36231203217765
 s    3 1.00
             7.8682724   -0.11933240861517
             1.8812885   -0.16085421161283
             0.5442493     1.1434564825515
 s    1 1.00
             0.1687144                   1
 p    3 1.00
             7.8682724   0.068999095584993
             1.8812885    0.31642397975315
             0.5442493    0.74430825237435
 p    1 1.00
             0.1687144                   1
 d    1 1.00
                   0.8                   1

18 0
 s    6 1.00
             3047.5249  0.0018347001629433
             457.36951    0.01403730124668
             103.94869   0.068842606114048
             29.210155    0.23218442062076
              9.286663    0.46794134155879
              3.163927    0.36231203217765
 s    3 1.00
             7.8682724   -0.11933240861517
             1.8812885   -0.16085421161283
             0.5442493     1.1434564825515
 s    1 1.00
             0.1687144                   1
 p    3 1.00
             7.8682724   0.068999095584993
             1.8812885    0.31642397975315
             0.5442493    0.74430825237435
 p    1 1.00
             0.1687144                   1
 d    1 1.00
                   0.8                   1

19 0
 s    6 1.00
             3047.5249  0.0018347001629433
             457.36951    0.01403730124668
             103.94869   0.068842606114048
             29.210155    0.23218442062076
              9.286663    0.46794134155879
              3.163927    0.36231203217765
 s    3 1.00
             7.8682724   -0.11933240861517
             1.8812885   -0.16085421161283
             0.5442493     1.1434564825515
 s    1 1.00
             0.1687144                   1
 p    3 1.00
             7.8682724   0.068999095584993
             1.8812885    0.31642397975315
             0.5442493    0.74430825237435
 p    1 1.00
             0.1687144                   1
 d    1 1.00
                   0.8                   1

20 0
 s    6 1.00
             3047.5249  0.0018347001629433
             457.36951    0.01403730124668
             103.94869   0.068842606114048
             29.210155    0.23218442062076
              9.286663    0.46794134155879
              3.163927    0.36231203217765
 s    3 1.00
             7.8682724   -0.11933240861517
             1.8812885   -0.16085421161283
             0.5442493     1.1434564825515
 s    1 1.00
             0.1687144                   1
 p    3 1.00
             7.8682724   0.068999095584993
             1.8812885    0.31642397975315
             0.5442493    0.74430825237435
 p    1 1.00
             0.1687144                   1
 d    1 1.00
                   0.8                   1

21 0
 s    6 1.00
             3047.5249  0.0018347001629433
             457.36951    0.01403730124668
             103.94869   0.068842606114048
             29.210155    0.23218442062076
              9.286663    0.46794134155879
              3.163927    0.36231203217765
 s    3 1.00
             7.8682724   -0.11933240861517
             1.8812885   -0.16085421161283
             0.5442493     1.1434564825515
 s    1 1.00
             0.1687144                   1
 p    3 1.00
             7.8682724   0.068999095584993
             1.8812885    0.31642397975315
             0.5442493    0.74430825237435
 p    1 1.00
             0.1687144                   1
 d    1 1.00
                   0.8                   1

22 0
 s    3 1.00
             18.731137    0.03349459952309
             2.8253937    0.23472694665786
             0.6401217    0.81375731841339
 s    1 1.00
             0.1612778                   1

23 0
 s    3 1.00
             18.731137    0.03349459952309
             2.8253937    0.23472694665786
             0.6401217    0.81375731841339
 s    1 1.00
             0.1612778                   1

24 0
 s    3 1.00
             18.731137    0.03349459952309
             2.8253937    0.23472694665786
             0.6401217    0.81375731841339
 s    1 1.00
             0.1612778                   1

25 0
 s    3 1.00
             18.731137    0.03349459952309
             2.8253937    0.23472694665786
             0.6401217    0.81375731841339
 s    1 1.00
             0.1612778                   1

26 0
 s    3 1.00
             18.731137    0.03349459952309
             2.8253937    0.23472694665786
             0.6401217    0.81375731841339
 s    1 1.00
             0.1612778                   1

27 0
 s    3 1.00
             18.731137    0.03349459952309
             2.8253937    0.23472694665786
             0.6401217    0.81375731841339
 s    1 1.00
             0.1612778                   1

28 0
 s    3 1.00
             18.731137    0.03349459952309
             2.8253937    0.23472694665786
             0.6401217    0.81375731841339
 s    1 1.00
             0.1612778                   1

29 0
 s    3 1.00
             18.731137    0.03349459952309
             2.8253937    0.23472694665786
             0.6401217    0.81375731841339
 s    1 1.00
             0.1612778                   1

30 0
 s    3 1.00
             18.731137    0.03349459952309
             2.8253937    0.23472694665786
             0.6401217    0.81375731841339
 s    1 1.00
             0.1612778                   1

31 0
 s    3 1.00
             18.731137    0.03349459952309
             2.8253937    0.23472694665786
             0.6401217    0.81375731841339
 s    1 1.00
             0.1612778                   1

32 0
 s    3 1.00
             18.731137    0.03349459952309
             2.8253937    0.23472694665786
             0.6401217    0.81375731841339
 s    1 1.00
             0.1612778                   1

33 0
 s    6 1.00
             3047.5249  0.0018347001629433
             457.36951    0.01403730124668
             103.94869   0.068842606114048
             29.210155    0.23218442062076
              9.286663    0.46794134155879
              3.163927    0.36231203217765
 s    3 1.00
             7.8682724   -0.11933240861517
             1.8812885   -0.16085421161283
             0.5442493     1.1434564825515
 s    1 1.00
             0.1687144                   1
 p    3 1.00
             7.8682724   0.068999095584993
             1.8812885    0.31642397975315
             0.5442493    0.74430825237435
 p    1 1.00
             0.1687144                   1
 d    1 1.00
                   0.8                   1

34 0
 s    6 1.00
             3047.5249  0.0018347001629433
             457.36951    0.01403730124668
             103.94869   0.068842606114048
             29.210155    0.23218442062076
              9.286663    0.46794134155879
              3.163927    0.36231203217765
 s    3 1.00
             7.8682724   -0.11933240861517
             1.8812885   -0.16085421161283
             0.5442493     1.1434564825515
 s    1 1.00
             0.1687144                   1
 p    3 1.00
             7.8682724   0.068999095584993
             1.8812885    0.31642397975315
             0.5442493    0.74430825237435
 p    1 1.00
             0.1687144                   1
 d    1 1.00
                   0.8                   1

35 0
 s    3 1.00
             18.731137    0.03349459952309
             2.8253937    0.23472694665786
             0.6401217    0.81375731841339
 s    1 1.00
             0.1612778                   1

36 0
 s    6 1.00
             3047.5249  0.0018347001629433
             457.36951    0.01403730124668
             103.94869   0.068842606114048
             29.210155    0.23218442062076
              9.286663    0.46794134155879
              3.163927    0.36231203217765
 s    3 1.00
             7.8682724   -0.11933240861517
             1.8812885   -0.16085421161283
             0.5442493     1.1434564825515
 s    1 1.00
             0.1687144                   1
 p    3 1.00
             7.8682724   0.068999095584993
             1.8812885    0.31642397975315
             0.5442493    0.74430825237435
 p    1 1.00
             0.1687144                   1
 d    1 1.00
                   0.8                   1

37 0
 s    3 1.00
             18.731137    0.03349459952309
             2.8253937    0.23472694665786
             0.6401217    0.81375731841339
 s    1 1.00
             0.1612778                   1

38 0
 s    3 1.00
             18.731137    0.03349459952309
             2.8253937    0.23472694665786
             0.6401217    0.81375731841339
 s    1 1.00
             0.1612778                   1

39 0
 s    6 1.00
             3047.5249  0.0018347001629433
             457.36951    0.01403730124668
             103.94869   0.068842606114048
             29.210155    0.23218442062076
              9.286663    0.46794134155879
              3.163927    0.36231203217765
 s    3 1.00
             7.8682724   -0.11933240861517
             1.8812885   -0.16085421161283
             0.5442493     1.1434564825515
 s    1 1.00
             0.1687144                   1
 p    3 1.00
             7.8682724   0.068999095584993
             1.8812885    0.31642397975315
             0.5442493    0.74430825237435
 p    1 1.00
             0.1687144                   1
 d    1 1.00
                   0.8                   1

40 0
 s    6 1.00
             3047.5249  0.0018347001629433
             457.36951    0.01403730124668
             103.94869   0.068842606114048
             29.210155    0.23218442062076
              9.286663    0.46794134155879
              3.163927    0.36231203217765
 s    3 1.00
             7.8682724   -0.11933240861517
             1.8812885   -0.16085421161283
             0.5442493     1.1434564825515
 s    1 1.00
             0.1687144                   1
 p    3 1.00
             7.8682724   0.068999095584993
             1.8812885    0.31642397975315
             0.5442493    0.74430825237435
 p    1 1.00
             0.1687144                   1
 d    1 1.00
                   0.8                   1

41 0
 s    3 1.00
             18.731137    0.03349459952309
             2.8253937    0.23472694665786
             0.6401217    0.81375731841339
 s    1 1.00
             0.1612778                   1

42 0
 s    6 1.00
             5484.6717   0.001831099805527
             825.23495   0.013950098518422
             188.04696    0.06844509273075
               52.9645    0.23271427528445
              16.89757    0.47019295006289
             5.7996353    0.35852086192309
 s    3 1.00
             15.539616   -0.11077750382508
             3.5999336   -0.14802630511126
             1.0137618     1.1307670390447
 s    1 1.00
             0.2700058                   1
 p    3 1.00
             15.539616   0.070874299543311
             3.5999336    0.33975279781076
             1.0137618    0.72715859531445
 p    1 1.00
             0.2700058                   1
 d    1 1.00
                   0.8                   1

43 0
 s    3 1.00
             18.731137    0.03349459952309
             2.8253937    0.23472694665786
             0.6401217    0.81375731841339
 s    1 1.00
             0.1612778                   1

[5d]
[7f]
[9g]

[MO]
 Sym= A
 Ene=               0
 Spin= Alpha
 Occup=    1.00000
   1     -0.02083863796863
   2    0.0008117315106008
   3    -0.0065433364040659
   4    -0.00036921805171437
   5    7.3159820792482e-05
   6    -0.0011823033520491
   7    -0.00081529795399038
   8    -0.00093675210695927
   9    0.0048190259819434
  10    0.0009207273553649
  11    0.00087072603551881
  12    -0.00014587432158533
  13    0.00021550946145671
  14    -4.2556141460543e-05
  15    0.0004776205958772
  16    0.00087014788826917
  17     -0.99473877456575
  18    -0.036631253406237
  19     0.027748611335963
  20    -0.00082644886285854
  21    -0.00014093330233111
  22    0.00047588695869618
  23    0.0032118485938106
  24    0.00092857645117462
  25    0.00052282586207475
  26    -0.00079201283852456
  27    0.00027217359202129
  28    0.00036530061994299
  29    -0.00029294335086762
  30    -0.00015505846837546
  31    0.0010665110014641
  32    -0.0039208498709822
  33    -0.018508210468096
  34    0.00024161147419457
  35    -0.0016292678405646
  36    -0.00082881166611537
  37    -0.00032098874544295
  38    0.0011614503143399
  39    0.0012478835355857
  40    -0.0029953547988519
  41    -0.0046033486312501
  42    0.00065518700256308
  43    -0.0011002898998116
  44    -0.00043411676442558
  45    0.00032714952240425
  46    0.00042823350607402
  47    0.00052790522579106
  48    0.00058959333816836
  49    0.00039898293020377
  50    0.00053055262608838
  51    -0.00045516222155854
  52    -0.00012238651156778
  53    -3.666305922966e-05
  54    0.00043042681561099
  55    0.0030829056581643
  56    -0.00088098381974944
  57    -0.0068311597290019
  58    8.5173482828757e-05
  59    -2.5516011225395e-05
  60    -0.0002119862948918
  61    0.00022775683418708
  62    1.2092236241824e-05
  63    0.00042534472380962
  64    -0.00017536499828035
  65    2.4845672862671e-06
  66    4.4050309356885e-06
  67    8.0609271699341e-08
  68    1.1387998517849e-06
  69    -8.3542554663207e-06
  70    -2.0067017562367e-06
  71    3.9566322835255e-06
  72    3.0545323812244e-07
  73    -1.0863863537902e-05
  74    -2.2336357914677e-05
  75    -9.16201937591e-06
  76    2.1540547322685e-07
  77    4.084314968968e-07
  78    -3.3509482146681e-07
  79    -5.4615155194353e-07
  80    9.6082790943237e-08
  81    -2.0111685204692e-06
  82    -1.0947418347274e-05
  83    -1.6841903668907e-07
  84    -9.9250100683745e-07
  85    5.8889572928759e-05
  86    -3.1821520557943e-06
  87    -2.8212358801766e-06
  88    -4.7828119458889e-06
  89    -2.2725714914372e-05
  90    5.6515754215137e-05
  91    -6.2119492640017e-06
  92    -1.495900283016e-06
  93    2.5495103013072e-06
  94    -3.2431115799159e-06
  95    6.5810835182097e-07
  96    9.7545362044877e-07
  97    -5.9403490171084e-06
  98    -1.0422942934051e-05
  99    2.9376776818661e-06
 100    1.6833758837569e-05
 101    1.1446046002136e-06
 102    1.1873743147008e-05
 103    -0.00021824625885526
 104    1.4929315690869e-06
 105    6.5761676864159e-06
 106    2.6589272253229e-06
 107    0.00017617208700073
 108    -0.00016293224470331
 109    -0.00012171175524015
 110    5.4542062655057e-06
 111    3.6349690474699e-07
 112    -1.5901165815359e-07
 113    -2.0664348712848e-06
 114    4.7856128497104e-06
 115    3.0917516137315e-06
 116    3.0929189803298e-05
 117    -0.00021992569317563
 118    2.2714182646604e-06
 119    -3.0567401575483e-06
 120    -4.8781342410066e-06
 121     4.30951430422e-05
 122    -8.2041996571532e-06
 123    -2.163383760305e-05
 124    -1.440832284166e-06
 125    2.2004681801006e-06
 126    2.246715632198e-06
 127    -2.1682582975647e-07
 128    1.822307321304e-06
 129    5.2883854459927e-06
 130    5.0208309554223e-05
 131    -0.00012688670387722
 132    -4.469342748237e-06
 133    5.7774153677505e-06
 134    -2.1079363402736e-05
 135    0.00031240980656931
 136    -5.2964661056239e-05
 137    0.00036989636539087
 138    -9.1913015646517e-06
 139    -1.1571316992276e-05
 140    -4.6219393838502e-06
 141    -3.9761968983228e-06
 142    -5.7114317766454e-06
 143    1.4537995194913e-06
 144    2.1058571541387e-05
 145    -1.6024193897774e-05
 146    -1.9425256941777e-06
 147    -6.3450052368912e-06
 148    -9.7872152825747e-06
 149    -1.2787508753193e-05
 150    1.8283454726011e-05
 151    3.6870315626151e-05
 152    6.6280462923383e-06
 153    3.0471746159828e-06
 154    2.1557875120197e-06
 155    -4.0536841916284e-06
 156    3.1404278706735e-06
 157    -1.1056760594664e-06
 158    -8.6291790498464e-06
 159    1.2582919860142e-05
 160    -5.3575326270438e-06
 161    6.694817712154e-07
 162    2.9646287522805e-07
 163    3.9418337040342e-05
 164    -1.3524087340891e-05
 165    -6.5510930958012e-06
 166    -3.334461304306e-06
 167    4.8276695561707e-08
 168    2.0731998823661e-07
 169    -3.2435341904019e-07
 170    -1.4620949633991e-06
 171    4.0262406888502e-07
 172    1.0762118611128e-05
 173    -1.921909712965e-05
 174    3.0413547274201e-06
 175    -7.3105500000776e-09
 176    -9.366612789329e-06
 177    9.4907785059658e-06
 178    2.9420882473385e-06
 179    2.7937722692308e-05
 180    -1.6758984627966e-06
 181    -3.7907831571246e-06
 182    -5.1689744645502e-07
 183    1.530620752096e-06
 184    -1.007234969358e-06
 185    2.9227400651515e-06
 186    2.5433497966724e-05
 187    -6.7626749865448e-05
 188    2.0646744556667e-06
 189    -8.1534217415495e-07
 190    -4.8277180345693e-06
 191    -1.2016673443346e-06
 192    7.7874287381569e-06
 193    6.3329245646619e-05
 194    -3.1535846475841e-06
 195    -1.1944322583721e-06
 196    -1.7842163733464e-06
 197    2.9315460420401e-07
 198    -2.0913107904268e-07
 199    6.8204294918122e-06
 200    1.4848528981223e-06
 201    1.6739877017741e-06
 202    -1.9381208789658e-05
 203    1.0448990489589e-05
 204    6.2205326818461e-06
 205    1.3486072955613e-06
 206    2.3962767009249e-05
 207    -1.0416736971518e-05
 208    6.9303623919595e-05
 209    -8.5083754310969e-06
 210    2.5263393945283e-05
 211    -4.3708165950385e-06
 212    -1.437051359217e-05
 213    6.7169809187168e-07
 214    1.7170573776771e-05
 215    9.3510455056568e-07
 216    3.6650005343451e-05
 217    -1.073393610009e-06
 218    -6.4693926259898e-06
 219    -3.0565714081989e-07
 220    -7.0539689007468e-07
 221    5.7929177604499e-06
 222    6.6794518983955e-05
 223    -0.00065474046177244
 224    1.5662163552208e-05
 225    -4.6603270057445e-07
 226    -1.2851931203747e-05
 227    -0.00055517057924554
 228    -0.00024906809828348
 229    0.00074480544684602
 230    1.1700793922134e-06
 231    3.5238498834034e-05
 232    1.7588239501537e-05
 233    -1.7756926534939e-05
 234    -1.9265055159771e-05
 235    1.6560948017417e-05
 236    4.6182807517526e-05
 237    -9.969848856837e-05
 238    1.6492105095839e-05
 239    7.244815315197e-09
 240    2.4991493331326e-06
 241    -0.00018203501292245
 242    -0.00026721286486487
 243    0.0014062482106774
 244    -1.7082712818677e-05
 245    -5.9760452220397e-05
 246    -1.3310035736283e-05
 247    -1.6084518865112e-05
 248    -2.5809662345538e-06
 249    2.7703584502533e-05
 250    -0.00029479970773383
 251    2.1136353930024e-05
 252    0.00036266211460804
 253    -0.0016179481143117
 254    -8.204027012503e-05
 255    4.8756831555848e-05
 256    -0.00021996456849039
 257    0.00026956985590203
 258    -0.00040403031685327
 259    0.0016756049350229
 260    6.4714625743512e-05
 261    7.7524832369828e-06
 262    1.8735254820354e-05
 263    -0.00012149216586515
 264    -8.5826692559843e-05
 265    7.8526570248866e-05
 266    -0.00018235468965738
 267    0.00014073141722821
 268    0.00056424098843075
 269    6.6124097667706e-05
 270    0.00043790706468754
 271    -0.0057656858788301
 272    5.3857959945918e-06
 273    -8.2420609627163e-05
 274    -0.00013435608999156
 275    0.0018939233861656
 276    0.0022704966652158
 277    -0.002046882764512
 278    -6.1583938028435e-05
 279    0.0001568970037309
 280    5.4571670311116e-05