[Molden Format]
made by pyscf v[2.0.1]
[Atoms] (AU)
C   1   6     0.69100024066471     0.64692934207205    -3.48223131169301
H   2   1     2.68052439830868     1.13355088658700    -3.25784032593313
C   3   6    -0.36286361513219     0.85440132524594    -5.97030179418974
H   4   1    -2.35448549047279     0.36322488579172    -6.17995817793143
C   5   6     0.93697958957450     1.61209284601821    -8.05828437677121
H   6   1     2.50035468987728     2.93484935641869    -7.84122146962088
C   7   6     0.36255105159660     0.76050131278393   -10.56848504450332
H   8   1    -1.20802221204617    -0.56532983436663   -10.75608465244450
H   9   1     1.55630230933075    -1.92953025305990    12.99630010416247
C   10   6     0.75233899775814    -2.21270439606481    11.10705728102219
H   11   1    -0.43433408177274    -3.90944857546550    11.22216085340412
C   12   6     2.86362581178706    -2.63237380607947     9.17926416456045
H   13   1     4.39038949912609    -1.24955421540245     9.49899813497433
H   14   1     3.74629220191363    -4.48798724300892     9.47414880959024
C   15   6     2.02478325613682    -2.42177285709634     6.44560829588644
C   16   6     3.88048732735477    -3.58795445234514     4.61402886975252
C   17   6    -0.18412382258602    -1.30464291234259     5.76021113872346
C   18   6    -2.10044360464350    -0.26837831858460     7.71610340967100
C   19   6    -3.08956938670431     2.35282328359417     6.88693925039594
C   20   6    -4.37372924086464    -2.09766595989678     7.93610724222001
C   21   6    -0.83850430601230     0.06372213486173    10.33002307638377
H   22   1     0.38411922151109     1.74281358582432    10.27380136542181
H   23   1    -2.30980003007874     0.45460143924521    11.73986301809809
H   24   1     4.58527064644668    -5.38706904487420     5.36778158031719
H   25   1     5.54944938085014    -2.37631462192748     4.35398898413318
H   26   1     3.06633019150423    -3.94118377050688     2.75255466040884
H   27   1    -4.17727778763735     2.26573369139522     5.12914900961283
H   28   1    -1.52662344944051     3.68001877445626     6.59540397144508
H   29   1    -4.32916174397830     3.13643051467482     8.35225460090378
H   30   1    -5.32329548508442    -2.36691813602939     6.11583672749896
H   31   1    -5.77989366602257    -1.33896741843465     9.25748940450990
H   32   1    -3.79310905208926    -3.96389819310853     8.61386170102686
C   33   6    -1.01100794811226    -1.06331657314144     3.11929490449947
C   34   6     0.37686231036534    -0.33275864505552     1.09165013605873
H   35   1    -3.01671213906703    -1.40297922279997     2.77827895090944
C   36   6    -0.64382707979370    -0.11591880174385    -1.42063131251064
H   37   1     2.35569259782137     0.17174499283897     1.33641070251401
H   38   1    -2.63317482980319    -0.60229203511219    -1.66119700387645
C   39   6     1.60144441070444     1.46482489722556   -12.70057441592292
C   40   6     0.86980516734608     0.48994136718256   -15.17470632539007
H   41   1     3.18180515535191     2.77908821383906   -12.64635086980665
O   42   8     1.89724046327418     1.04291297454121   -17.16453627851552
H   43   1    -0.75645459108880    -0.84958730954869   -15.14122439828819
[GTO]
1 0
 s    6 1.00
             3047.5249  0.0018347001629433
             457.36951    0.01403730124668
             103.94869   0.068842606114048
             29.210155    0.23218442062076
              9.286663    0.46794134155879
              3.163927    0.36231203217765
 s    3 1.00
             7.8682724   -0.11933240861517
             1.8812885   -0.16085421161283
             0.5442493     1.1434564825515
 s    1 1.00
             0.1687144                   1
 p    3 1.00
             7.8682724   0.068999095584993
             1.8812885    0.31642397975315
             0.5442493    0.74430825237435
 p    1 1.00
             0.1687144                   1
 d    1 1.00
                   0.8                   1

2 0
 s    3 1.00
             18.731137    0.03349459952309
             2.8253937    0.23472694665786
             0.6401217    0.81375731841339
 s    1 1.00
             0.1612778                   1

3 0
 s    6 1.00
             3047.5249  0.0018347001629433
             457.36951    0.01403730124668
             103.94869   0.068842606114048
             29.210155    0.23218442062076
              9.286663    0.46794134155879
              3.163927    0.36231203217765
 s    3 1.00
             7.8682724   -0.11933240861517
             1.8812885   -0.16085421161283
             0.5442493     1.1434564825515
 s    1 1.00
             0.1687144                   1
 p    3 1.00
             7.8682724   0.068999095584993
             1.8812885    0.31642397975315
             0.5442493    0.74430825237435
 p    1 1.00
             0.1687144                   1
 d    1 1.00
                   0.8                   1

4 0
 s    3 1.00
             18.731137    0.03349459952309
             2.8253937    0.23472694665786
             0.6401217    0.81375731841339
 s    1 1.00
             0.1612778                   1

5 0
 s    6 1.00
             3047.5249  0.0018347001629433
             457.36951    0.01403730124668
             103.94869   0.068842606114048
             29.210155    0.23218442062076
              9.286663    0.46794134155879
              3.163927    0.36231203217765
 s    3 1.00
             7.8682724   -0.11933240861517
             1.8812885   -0.16085421161283
             0.5442493     1.1434564825515
 s    1 1.00
             0.1687144                   1
 p    3 1.00
             7.8682724   0.068999095584993
             1.8812885    0.31642397975315
             0.5442493    0.74430825237435
 p    1 1.00
             0.1687144                   1
 d    1 1.00
                   0.8                   1

6 0
 s    3 1.00
             18.731137    0.03349459952309
             2.8253937    0.23472694665786
             0.6401217    0.81375731841339
 s    1 1.00
             0.1612778                   1

7 0
 s    6 1.00
             3047.5249  0.0018347001629433
             457.36951    0.01403730124668
             103.94869   0.068842606114048
             29.210155    0.23218442062076
              9.286663    0.46794134155879
              3.163927    0.36231203217765
 s    3 1.00
             7.8682724   -0.11933240861517
             1.8812885   -0.16085421161283
             0.5442493     1.1434564825515
 s    1 1.00
             0.1687144                   1
 p    3 1.00
             7.8682724   0.068999095584993
             1.8812885    0.31642397975315
             0.5442493    0.74430825237435
 p    1 1.00
             0.1687144                   1
 d    1 1.00
                   0.8                   1

8 0
 s    3 1.00
             18.731137    0.03349459952309
             2.8253937    0.23472694665786
             0.6401217    0.81375731841339
 s    1 1.00
             0.1612778                   1

9 0
 s    3 1.00
             18.731137    0.03349459952309
             2.8253937    0.23472694665786
             0.6401217    0.81375731841339
 s    1 1.00
             0.1612778                   1

10 0
 s    6 1.00
             3047.5249  0.0018347001629433
             457.36951    0.01403730124668
             103.94869   0.068842606114048
             29.210155    0.23218442062076
              9.286663    0.46794134155879
              3.163927    0.36231203217765
 s    3 1.00
             7.8682724   -0.11933240861517
             1.8812885   -0.16085421161283
             0.5442493     1.1434564825515
 s    1 1.00
             0.1687144                   1
 p    3 1.00
             7.8682724   0.068999095584993
             1.8812885    0.31642397975315
             0.5442493    0.74430825237435
 p    1 1.00
             0.1687144                   1
 d    1 1.00
                   0.8                   1

11 0
 s    3 1.00
             18.731137    0.03349459952309
             2.8253937    0.23472694665786
             0.6401217    0.81375731841339
 s    1 1.00
             0.1612778                   1

12 0
 s    6 1.00
             3047.5249  0.0018347001629433
             457.36951    0.01403730124668
             103.94869   0.068842606114048
             29.210155    0.23218442062076
              9.286663    0.46794134155879
              3.163927    0.36231203217765
 s    3 1.00
             7.8682724   -0.11933240861517
             1.8812885   -0.16085421161283
             0.5442493     1.1434564825515
 s    1 1.00
             0.1687144                   1
 p    3 1.00
             7.8682724   0.068999095584993
             1.8812885    0.31642397975315
             0.5442493    0.74430825237435
 p    1 1.00
             0.1687144                   1
 d    1 1.00
                   0.8                   1

13 0
 s    3 1.00
             18.731137    0.03349459952309
             2.8253937    0.23472694665786
             0.6401217    0.81375731841339
 s    1 1.00
             0.1612778                   1

14 0
 s    3 1.00
             18.731137    0.03349459952309
             2.8253937    0.23472694665786
             0.6401217    0.81375731841339
 s    1 1.00
             0.1612778                   1

15 0
 s    6 1.00
             3047.5249  0.0018347001629433
             457.36951    0.01403730124668
             103.94869   0.068842606114048
             29.210155    0.23218442062076
              9.286663    0.46794134155879
              3.163927    0.36231203217765
 s    3 1.00
             7.8682724   -0.11933240861517
             1.8812885   -0.16085421161283
             0.5442493     1.1434564825515
 s    1 1.00
             0.1687144                   1
 p    3 1.00
             7.8682724   0.068999095584993
             1.8812885    0.31642397975315
             0.5442493    0.74430825237435
 p    1 1.00
             0.1687144                   1
 d    1 1.00
                   0.8                   1

16 0
 s    6 1.00
             3047.5249  0.0018347001629433
             457.36951    0.01403730124668
             103.94869   0.068842606114048
             29.210155    0.23218442062076
              9.286663    0.46794134155879
              3.163927    0.36231203217765
 s    3 1.00
             7.8682724   -0.11933240861517
             1.8812885   -0.16085421161283
             0.5442493     1.1434564825515
 s    1 1.00
             0.1687144                   1
 p    3 1.00
             7.8682724   0.068999095584993
             1.8812885    0.31642397975315
             0.5442493    0.74430825237435
 p    1 1.00
             0.1687144                   1
 d    1 1.00
                   0.8                   1

17 0
 s    6 1.00
             3047.5249  0.0018347001629433
             457.36951    0.01403730124668
             103.94869   0.068842606114048
             29.210155    0.23218442062076
              9.286663    0.46794134155879
              3.163927    0.36231203217765
 s    3 1.00
             7.8682724   -0.11933240861517
             1.8812885   -0.16085421161283
             0.5442493     1.1434564825515
 s    1 1.00
             0.1687144                   1
 p    3 1.00
             7.8682724   0.068999095584993
             1.8812885    0.31642397975315
             0.5442493    0.74430825237435
 p    1 1.00
             0.1687144                   1
 d    1 1.00
                   0.8                   1

18 0
 s    6 1.00
             3047.5249  0.0018347001629433
             457.36951    0.01403730124668
             103.94869   0.068842606114048
             29.210155    0.23218442062076
              9.286663    0.46794134155879
              3.163927    0.36231203217765
 s    3 1.00
             7.8682724   -0.11933240861517
             1.8812885   -0.16085421161283
             0.5442493     1.1434564825515
 s    1 1.00
             0.1687144                   1
 p    3 1.00
             7.8682724   0.068999095584993
             1.8812885    0.31642397975315
             0.5442493    0.74430825237435
 p    1 1.00
             0.1687144                   1
 d    1 1.00
                   0.8                   1

19 0
 s    6 1.00
             3047.5249  0.0018347001629433
             457.36951    0.01403730124668
             103.94869   0.068842606114048
             29.210155    0.23218442062076
              9.286663    0.46794134155879
              3.163927    0.36231203217765
 s    3 1.00
             7.8682724   -0.11933240861517
             1.8812885   -0.16085421161283
             0.5442493     1.1434564825515
 s    1 1.00
             0.1687144                   1
 p    3 1.00
             7.8682724   0.068999095584993
             1.8812885    0.31642397975315
             0.5442493    0.74430825237435
 p    1 1.00
             0.1687144                   1
 d    1 1.00
                   0.8                   1

20 0
 s    6 1.00
             3047.5249  0.0018347001629433
             457.36951    0.01403730124668
             103.94869   0.068842606114048
             29.210155    0.23218442062076
              9.286663    0.46794134155879
              3.163927    0.36231203217765
 s    3 1.00
             7.8682724   -0.11933240861517
             1.8812885   -0.16085421161283
             0.5442493     1.1434564825515
 s    1 1.00
             0.1687144                   1
 p    3 1.00
             7.8682724   0.068999095584993
             1.8812885    0.31642397975315
             0.5442493    0.74430825237435
 p    1 1.00
             0.1687144                   1
 d    1 1.00
                   0.8                   1

21 0
 s    6 1.00
             3047.5249  0.0018347001629433
             457.36951    0.01403730124668
             103.94869   0.068842606114048
             29.210155    0.23218442062076
              9.286663    0.46794134155879
              3.163927    0.36231203217765
 s    3 1.00
             7.8682724   -0.11933240861517
             1.8812885   -0.16085421161283
             0.5442493     1.1434564825515
 s    1 1.00
             0.1687144                   1
 p    3 1.00
             7.8682724   0.068999095584993
             1.8812885    0.31642397975315
             0.5442493    0.74430825237435
 p    1 1.00
             0.1687144                   1
 d    1 1.00
                   0.8                   1

22 0
 s    3 1.00
             18.731137    0.03349459952309
             2.8253937    0.23472694665786
             0.6401217    0.81375731841339
 s    1 1.00
             0.1612778                   1

23 0
 s    3 1.00
             18.731137    0.03349459952309
             2.8253937    0.23472694665786
             0.6401217    0.81375731841339
 s    1 1.00
             0.1612778                   1

24 0
 s    3 1.00
             18.731137    0.03349459952309
             2.8253937    0.23472694665786
             0.6401217    0.81375731841339
 s    1 1.00
             0.1612778                   1

25 0
 s    3 1.00
             18.731137    0.03349459952309
             2.8253937    0.23472694665786
             0.6401217    0.81375731841339
 s    1 1.00
             0.1612778                   1

26 0
 s    3 1.00
             18.731137    0.03349459952309
             2.8253937    0.23472694665786
             0.6401217    0.81375731841339
 s    1 1.00
             0.1612778                   1

27 0
 s    3 1.00
             18.731137    0.03349459952309
             2.8253937    0.23472694665786
             0.6401217    0.81375731841339
 s    1 1.00
             0.1612778                   1

28 0
 s    3 1.00
             18.731137    0.03349459952309
             2.8253937    0.23472694665786
             0.6401217    0.81375731841339
 s    1 1.00
             0.1612778                   1

29 0
 s    3 1.00
             18.731137    0.03349459952309
             2.8253937    0.23472694665786
             0.6401217    0.81375731841339
 s    1 1.00
             0.1612778                   1

30 0
 s    3 1.00
             18.731137    0.03349459952309
             2.8253937    0.23472694665786
             0.6401217    0.81375731841339
 s    1 1.00
             0.1612778                   1

31 0
 s    3 1.00
             18.731137    0.03349459952309
             2.8253937    0.23472694665786
             0.6401217    0.81375731841339
 s    1 1.00
             0.1612778                   1

32 0
 s    3 1.00
             18.731137    0.03349459952309
             2.8253937    0.23472694665786
             0.6401217    0.81375731841339
 s    1 1.00
             0.1612778                   1

33 0
 s    6 1.00
             3047.5249  0.0018347001629433
             457.36951    0.01403730124668
             103.94869   0.068842606114048
             29.210155    0.23218442062076
              9.286663    0.46794134155879
              3.163927    0.36231203217765
 s    3 1.00
             7.8682724   -0.11933240861517
             1.8812885   -0.16085421161283
             0.5442493     1.1434564825515
 s    1 1.00
             0.1687144                   1
 p    3 1.00
             7.8682724   0.068999095584993
             1.8812885    0.31642397975315
             0.5442493    0.74430825237435
 p    1 1.00
             0.1687144                   1
 d    1 1.00
                   0.8                   1

34 0
 s    6 1.00
             3047.5249  0.0018347001629433
             457.36951    0.01403730124668
             103.94869   0.068842606114048
             29.210155    0.23218442062076
              9.286663    0.46794134155879
              3.163927    0.36231203217765
 s    3 1.00
             7.8682724   -0.11933240861517
             1.8812885   -0.16085421161283
             0.5442493     1.1434564825515
 s    1 1.00
             0.1687144                   1
 p    3 1.00
             7.8682724   0.068999095584993
             1.8812885    0.31642397975315
             0.5442493    0.74430825237435
 p    1 1.00
             0.1687144                   1
 d    1 1.00
                   0.8                   1

35 0
 s    3 1.00
             18.731137    0.03349459952309
             2.8253937    0.23472694665786
             0.6401217    0.81375731841339
 s    1 1.00
             0.1612778                   1

36 0
 s    6 1.00
             3047.5249  0.0018347001629433
             457.36951    0.01403730124668
             103.94869   0.068842606114048
             29.210155    0.23218442062076
              9.286663    0.46794134155879
              3.163927    0.36231203217765
 s    3 1.00
             7.8682724   -0.11933240861517
             1.8812885   -0.16085421161283
             0.5442493     1.1434564825515
 s    1 1.00
             0.1687144                   1
 p    3 1.00
             7.8682724   0.068999095584993
             1.8812885    0.31642397975315
             0.5442493    0.74430825237435
 p    1 1.00
             0.1687144                   1
 d    1 1.00
                   0.8                   1

37 0
 s    3 1.00
             18.731137    0.03349459952309
             2.8253937    0.23472694665786
             0.6401217    0.81375731841339
 s    1 1.00
             0.1612778                   1

38 0
 s    3 1.00
             18.731137    0.03349459952309
             2.8253937    0.23472694665786
             0.6401217    0.81375731841339
 s    1 1.00
             0.1612778                   1

39 0
 s    6 1.00
             3047.5249  0.0018347001629433
             457.36951    0.01403730124668
             103.94869   0.068842606114048
             29.210155    0.23218442062076
              9.286663    0.46794134155879
              3.163927    0.36231203217765
 s    3 1.00
             7.8682724   -0.11933240861517
             1.8812885   -0.16085421161283
             0.5442493     1.1434564825515
 s    1 1.00
             0.1687144                   1
 p    3 1.00
             7.8682724   0.068999095584993
             1.8812885    0.31642397975315
             0.5442493    0.74430825237435
 p    1 1.00
             0.1687144                   1
 d    1 1.00
                   0.8                   1

40 0
 s    6 1.00
             3047.5249  0.0018347001629433
             457.36951    0.01403730124668
             103.94869   0.068842606114048
             29.210155    0.23218442062076
              9.286663    0.46794134155879
              3.163927    0.36231203217765
 s    3 1.00
             7.8682724   -0.11933240861517
             1.8812885   -0.16085421161283
             0.5442493     1.1434564825515
 s    1 1.00
             0.1687144                   1
 p    3 1.00
             7.8682724   0.068999095584993
             1.8812885    0.31642397975315
             0.5442493    0.74430825237435
 p    1 1.00
             0.1687144                   1
 d    1 1.00
                   0.8                   1

41 0
 s    3 1.00
             18.731137    0.03349459952309
             2.8253937    0.23472694665786
             0.6401217    0.81375731841339
 s    1 1.00
             0.1612778                   1

42 0
 s    6 1.00
             5484.6717   0.001831099805527
             825.23495   0.013950098518422
             188.04696    0.06844509273075
               52.9645    0.23271427528445
              16.89757    0.47019295006289
             5.7996353    0.35852086192309
 s    3 1.00
             15.539616   -0.11077750382508
             3.5999336   -0.14802630511126
             1.0137618     1.1307670390447
 s    1 1.00
             0.2700058                   1
 p    3 1.00
             15.539616   0.070874299543311
             3.5999336    0.33975279781076
             1.0137618    0.72715859531445
 p    1 1.00
             0.2700058                   1
 d    1 1.00
                   0.8                   1

43 0
 s    3 1.00
             18.731137    0.03349459952309
             2.8253937    0.23472694665786
             0.6401217    0.81375731841339
 s    1 1.00
             0.1612778                   1

[5d]
[7f]
[9g]

[MO]
 Sym= A
 Ene=               0
 Spin= Alpha
 Occup=    1.00000
   1    -1.8158650314644e-05
   2    3.7430765952509e-05
   3    -0.00016466824681281
   4    -1.2936246108652e-05
   5    3.8198940309962e-05
   6    4.3146810302989e-06
   7    0.00014881516152949
   8    -0.00019503197744298
   9    0.0004832789301646
  10    -1.1544420811612e-05
  11    -3.2301710545808e-05
  12    -5.7396485574169e-06
  13    -1.3158302933045e-05
  14    -3.3559034378264e-06
  15    1.5221451393143e-05
  16    -0.00015385498061212
  17    -0.00048844124922986
  18    0.00036589352504849
  19    -0.0012893105290437
  20    3.3681063368998e-05
  21    -7.7367761715163e-07
  22    -0.00019296133256326
  23    -0.00028960551680585
  24    -0.00030447549688176
  25    0.0010577256387173
  26    4.5580836370518e-05
  27     7.41986092876e-06
  28    -2.4663912720205e-05
  29    -3.6049786548072e-05
  30    -0.00013491991226931
  31    8.2215829169319e-05
  32    9.6620362419614e-05
  33    -0.014311104867573
  34    0.00099099988307033
  35    -0.0066300497108352
  36    -0.00023377374670986
  37    -0.00036529393046753
  38    -0.0011104782436595
  39    -0.00058033057370571
  40    0.00020455666031511
  41    0.0043191750942743
  42    0.00097050690614506
  43    0.00052856964947858
  44    0.00072843761419508
  45    -5.6804561767199e-05
  46    0.00021658987144663
  47    0.00040697306829182
  48    0.00052446265609806
  49     -0.99499739531732
  50    -0.036030319487894
  51     0.027987028734223
  52    -0.00058648233770137
  53    -0.00041242487565939
  54    0.00010191898516835
  55    0.0026711036086723
  56     0.002246534122349
  57    0.00040207032013528
  58    -0.00085909038013852
  59    0.00042170305226537
  60    7.6695323065519e-05
  61    -0.00010413815545527
  62    -0.00030100903229323
  63    0.0011228772054242
  64    -0.0037910483378991
  65    3.6087682547919e-07
  66    1.4585073610643e-06
  67    -5.2725579984928e-08
  68    -1.8020661165695e-07
  69    -1.499272465318e-06
  70    2.0819849981617e-07
  71    2.5628399827304e-07
  72    2.4954850986295e-08
  73    -1.3364085201362e-06
  74    -3.0101226447185e-06
  75    -2.0969281634041e-06
  76    1.2921115990821e-07
  77    9.5134853095099e-08
  78    -2.2422983035346e-09
  79    -1.8951663865211e-08
  80    1.0306482903102e-07
  81    -4.7452032905043e-07
  82    -1.0172295028427e-06
  83    1.2324944782034e-07
  84    1.5514347932729e-06
  85    1.5043514807131e-05
  86    -9.8388153184893e-07
  87    -1.8274910966321e-07
  88    -1.0148120882839e-06
  89    -2.222276080288e-06
  90    4.4217682161852e-06
  91    -4.5029202198143e-06
  92    -4.0158044209912e-07
  93    2.2526268203775e-07
  94    -1.4887730542795e-07
  95    -1.4829941040287e-07
  96    2.2606177477009e-07
  97    -6.3320941449793e-07
  98    -1.2622138337349e-06
  99    -2.0174177152433e-08
 100    2.0792909741278e-06
 101    -4.6731860407266e-07
 102    -1.7481054894648e-06
 103    3.6519010053245e-05
 104    -8.0797519872289e-07
 105    2.1252454672844e-06
 106    -3.6850505022262e-08
 107    1.3819212454296e-05
 108    -1.1779512505264e-05
 109    -5.5532273635696e-05
 110    1.599946915775e-06
 111    8.7912536449617e-07
 112    -5.0489187443943e-07
 113    1.133117826409e-07
 114    3.2802378147957e-08
 115    8.6734848419452e-07
 116    8.4517642059144e-06
 117    -5.2873705690521e-05
 118    1.0913938397437e-07
 119    1.6676099108021e-06
 120    -2.9092830999746e-06
 121    1.9477416321494e-05
 122    -2.1227334147584e-05
 123    -6.487514748068e-07
 124    3.1373605358923e-07
 125    6.8961385396686e-07
 126    -6.3267912531594e-07
 127    -9.2597703764888e-07
 128    4.8417867415872e-07
 129    1.097285927856e-06
 130    1.1034929286938e-05
 131    -5.5230588255771e-05
 132    2.3492669251739e-06
 133    -3.5023130271051e-08
 134    -5.9988742916477e-06
 135    -2.2213952016262e-05
 136    1.550873852881e-05
 137    0.00010401745751385
 138    -2.1394020576599e-06
 139    -2.1975300475861e-06
 140    8.9150063495653e-07
 141    -7.666950460985e-07
 142    3.5503992307927e-07
 143    1.0385527134792e-06
 144    8.5382684321963e-06
 145    -5.9051311980829e-05
 146    -9.4359625590722e-07
 147    -6.2532974859384e-07
 148    1.2873062293925e-07
 149    -2.2192717281245e-05
 150    1.7013041523629e-05
 151    1.8026364522852e-05
 152    6.6605225912601e-07
 153    1.2718091012939e-06
 154    -4.6718241493858e-07
 155    -9.0149181875496e-07
 156    1.0284523582413e-06
 157    -3.3071047912542e-08
 158    -2.0993726474601e-07
 159    -7.418409364863e-07
 160    -5.2285210178714e-07
 161    -1.9792527726485e-07
 162    4.2468331934517e-07
 163    5.8273701764955e-06
 164    -7.9159968514987e-07
 165    -3.7803284820988e-06
 166    -7.2459928655312e-07
 167    5.4490562301554e-07
 168    2.2798016529807e-07
 169    -4.0066199254785e-08
 170    -1.524682574578e-07
 171    -2.3077991522733e-08
 172    9.7528100475149e-07
 173    5.7371931620794e-06
 174    1.5494354317704e-06
 175    3.7547288340478e-07
 176    -9.5619314156245e-07
 177    8.2440592795714e-07
 178    -5.63907042344e-07
 179    1.4281985719894e-06
 180    -1.3678150369399e-07
 181    -1.2789725256014e-07
 182    -4.3161365524224e-07
 183    5.9793026520119e-07
 184    2.7718063975979e-08
 185    1.9089651021308e-07
 186    2.2738140580586e-06
 187    1.2155445470379e-07
 188    -1.6743638790568e-07
 189    -1.4945077699859e-07
 190    -1.4222586653975e-06
 191    7.5561411592916e-07
 192    -1.9279742952493e-06
 193    3.8106839607913e-06
 194    -6.1288853823372e-08
 195    1.0117677293721e-07
 196    -3.0208171063825e-08
 197    -3.70711806455e-07
 198    2.2163720113827e-07
 199    2.370428781379e-07
 200    8.7581694087017e-07
 201    1.2920984509947e-07
 202    -2.8857776390363e-06
 203    5.2631783806547e-07
 204    -8.1976355099833e-06
 205    2.6642193331966e-06
 206    4.4799173374533e-06
 207    1.7371002809688e-06
 208    6.2392898132733e-06
 209    -1.0847915584394e-06
 210    2.5118631636855e-06
 211    -8.5972739789812e-07
 212    -1.6656371505459e-06
 213    4.8555894660285e-07
 214    2.276969115781e-06
 215    2.9648912291529e-07
 216    -6.1505317639554e-07
 217    -3.2347113392404e-07
 218    -2.601733063915e-06
 219    -1.3868241060274e-07
 220    -1.2036795846643e-06
 221    4.7244201938631e-07
 222    5.8882557288796e-06
 223    3.5028821107231e-05
 224    -1.1371398499897e-06
 225    2.5402905580508e-06
 226    -3.2603764975396e-06
 227    -2.6482145399911e-06
 228    -2.1415342602114e-05
 229    6.9882274963941e-05
 230     1.53413597049e-06
 231    4.1925391297862e-06
 232    -1.2146971189805e-07
 233    -2.7558080312563e-06
 234    -1.9089250128375e-06
 235    3.2611733028026e-06
 236    3.1209609906184e-05
 237    -0.00019094491045242
 238    5.0833008290192e-07
 239    1.6478353490213e-06
 240    -6.311795793464e-06
 241    7.2791220280762e-05
 242    -2.8694524235884e-05
 243    0.00015059850047959
 244    -6.1547130417722e-06
 245    -9.8964073947676e-06
 246    4.1505740878826e-06
 247    -5.8693240753649e-06
 248    1.357184895533e-06
 249    2.6674287759259e-06
 250    -8.4342532492403e-06
 251    2.5780956840892e-06
 252    1.8845890365031e-05
 253    -9.9320840214764e-05
 254    2.4707042825651e-06
 255    -7.6488642236316e-06
 256    -1.7069002975142e-05
 257    -0.00013399062319055
 258    -2.5319910639665e-05
 259    0.00034592423005134
 260    1.983481313102e-06
 261    2.1757820482973e-05
 262    7.6822063811401e-07
 263    -1.3627510052313e-05
 264    -2.9480730488585e-06
 265    1.9882330694571e-06
 266    -1.6935024573028e-05
 267    1.5206503448252e-05
 268    -9.5618145034816e-05
 269    -0.00020408804530423
 270     0.001864629004553
 271    -0.0087536720400768
 272    -0.00085596622615192
 273    -0.00048940819570748
 274    0.0014568553673126
 275    0.00064475480897351
 276    -2.1155058947606e-05
 277    -0.0036956272653317
 278    0.00064130801477263
 279    -0.00097399777195834
 280    -0.00057144896712125