[Molden Format]
made by pyscf v[2.0.1]
[Atoms] (AU)
C   1   6     0.69100024066471     0.64692934207205    -3.48223131169301
H   2   1     2.68052439830868     1.13355088658700    -3.25784032593313
C   3   6    -0.36286361513219     0.85440132524594    -5.97030179418974
H   4   1    -2.35448549047279     0.36322488579172    -6.17995817793143
C   5   6     0.93697958957450     1.61209284601821    -8.05828437677121
H   6   1     0.91018176739439     3.60165715372829    -8.58918788754706
C   7   6     2.36275315943078    -0.07897264779665    -9.62791837868890
H   8   1     2.37293254336653    -2.06644965927173    -9.07154285055885
H   9   1     1.55630230933075    -1.92953025305990    12.99630010416247
C   10   6     0.75233899775814    -2.21270439606481    11.10705728102219
H   11   1    -0.43433408177274    -3.90944857546550    11.22216085340412
C   12   6     2.86362581178706    -2.63237380607947     9.17926416456045
H   13   1     4.39038949912609    -1.24955421540245     9.49899813497433
H   14   1     3.74629220191363    -4.48798724300892     9.47414880959024
C   15   6     2.02478325613682    -2.42177285709634     6.44560829588644
C   16   6     3.88048732735477    -3.58795445234514     4.61402886975252
C   17   6    -0.18412382258602    -1.30464291234259     5.76021113872346
C   18   6    -2.10044360464350    -0.26837831858460     7.71610340967100
C   19   6    -3.08956938670431     2.35282328359417     6.88693925039594
C   20   6    -4.37372924086464    -2.09766595989678     7.93610724222001
C   21   6    -0.83850430601230     0.06372213486173    10.33002307638377
H   22   1     0.38411922151109     1.74281358582432    10.27380136542181
H   23   1    -2.30980003007874     0.45460143924521    11.73986301809809
H   24   1     4.58527064644668    -5.38706904487420     5.36778158031719
H   25   1     5.54944938085014    -2.37631462192748     4.35398898413318
H   26   1     3.06633019150423    -3.94118377050688     2.75255466040884
H   27   1    -4.17727778763735     2.26573369139522     5.12914900961283
H   28   1    -1.52662344944051     3.68001877445626     6.59540397144508
H   29   1    -4.32916174397830     3.13643051467482     8.35225460090378
H   30   1    -5.32329548508442    -2.36691813602939     6.11583672749896
H   31   1    -5.77989366602257    -1.33896741843465     9.25748940450990
H   32   1    -3.79310905208926    -3.96389819310853     8.61386170102686
C   33   6    -1.01100794811226    -1.06331657314144     3.11929490449947
C   34   6     0.37686231036534    -0.33275864505552     1.09165013605873
H   35   1    -3.01671213906703    -1.40297922279997     2.77827895090944
C   36   6    -0.64382707979370    -0.11591880174385    -1.42063131251064
H   37   1     2.35569259782137     0.17174499283897     1.33641070251401
H   38   1    -2.63317482980319    -0.60229203511219    -1.66119700387645
C   39   6     3.68212070775393     0.58885978377309   -11.72315169981470
C   40   6     5.07620914500435    -1.27889558400184   -13.19794995736473
H   41   1     3.74999971153331     2.53578027550937   -12.38092170581109
O   42   8     6.29809885748056    -0.81150016580158   -15.09777920785750
H   43   1     4.95468191731404    -3.24735743289555   -12.45594726186437
[GTO]
1 0
 s    6 1.00
             3047.5249  0.0018347001629433
             457.36951    0.01403730124668
             103.94869   0.068842606114048
             29.210155    0.23218442062076
              9.286663    0.46794134155879
              3.163927    0.36231203217765
 s    3 1.00
             7.8682724   -0.11933240861517
             1.8812885   -0.16085421161283
             0.5442493     1.1434564825515
 s    1 1.00
             0.1687144                   1
 p    3 1.00
             7.8682724   0.068999095584993
             1.8812885    0.31642397975315
             0.5442493    0.74430825237435
 p    1 1.00
             0.1687144                   1
 d    1 1.00
                   0.8                   1

2 0
 s    3 1.00
             18.731137    0.03349459952309
             2.8253937    0.23472694665786
             0.6401217    0.81375731841339
 s    1 1.00
             0.1612778                   1

3 0
 s    6 1.00
             3047.5249  0.0018347001629433
             457.36951    0.01403730124668
             103.94869   0.068842606114048
             29.210155    0.23218442062076
              9.286663    0.46794134155879
              3.163927    0.36231203217765
 s    3 1.00
             7.8682724   -0.11933240861517
             1.8812885   -0.16085421161283
             0.5442493     1.1434564825515
 s    1 1.00
             0.1687144                   1
 p    3 1.00
             7.8682724   0.068999095584993
             1.8812885    0.31642397975315
             0.5442493    0.74430825237435
 p    1 1.00
             0.1687144                   1
 d    1 1.00
                   0.8                   1

4 0
 s    3 1.00
             18.731137    0.03349459952309
             2.8253937    0.23472694665786
             0.6401217    0.81375731841339
 s    1 1.00
             0.1612778                   1

5 0
 s    6 1.00
             3047.5249  0.0018347001629433
             457.36951    0.01403730124668
             103.94869   0.068842606114048
             29.210155    0.23218442062076
              9.286663    0.46794134155879
              3.163927    0.36231203217765
 s    3 1.00
             7.8682724   -0.11933240861517
             1.8812885   -0.16085421161283
             0.5442493     1.1434564825515
 s    1 1.00
             0.1687144                   1
 p    3 1.00
             7.8682724   0.068999095584993
             1.8812885    0.31642397975315
             0.5442493    0.74430825237435
 p    1 1.00
             0.1687144                   1
 d    1 1.00
                   0.8                   1

6 0
 s    3 1.00
             18.731137    0.03349459952309
             2.8253937    0.23472694665786
             0.6401217    0.81375731841339
 s    1 1.00
             0.1612778                   1

7 0
 s    6 1.00
             3047.5249  0.0018347001629433
             457.36951    0.01403730124668
             103.94869   0.068842606114048
             29.210155    0.23218442062076
              9.286663    0.46794134155879
              3.163927    0.36231203217765
 s    3 1.00
             7.8682724   -0.11933240861517
             1.8812885   -0.16085421161283
             0.5442493     1.1434564825515
 s    1 1.00
             0.1687144                   1
 p    3 1.00
             7.8682724   0.068999095584993
             1.8812885    0.31642397975315
             0.5442493    0.74430825237435
 p    1 1.00
             0.1687144                   1
 d    1 1.00
                   0.8                   1

8 0
 s    3 1.00
             18.731137    0.03349459952309
             2.8253937    0.23472694665786
             0.6401217    0.81375731841339
 s    1 1.00
             0.1612778                   1

9 0
 s    3 1.00
             18.731137    0.03349459952309
             2.8253937    0.23472694665786
             0.6401217    0.81375731841339
 s    1 1.00
             0.1612778                   1

10 0
 s    6 1.00
             3047.5249  0.0018347001629433
             457.36951    0.01403730124668
             103.94869   0.068842606114048
             29.210155    0.23218442062076
              9.286663    0.46794134155879
              3.163927    0.36231203217765
 s    3 1.00
             7.8682724   -0.11933240861517
             1.8812885   -0.16085421161283
             0.5442493     1.1434564825515
 s    1 1.00
             0.1687144                   1
 p    3 1.00
             7.8682724   0.068999095584993
             1.8812885    0.31642397975315
             0.5442493    0.74430825237435
 p    1 1.00
             0.1687144                   1
 d    1 1.00
                   0.8                   1

11 0
 s    3 1.00
             18.731137    0.03349459952309
             2.8253937    0.23472694665786
             0.6401217    0.81375731841339
 s    1 1.00
             0.1612778                   1

12 0
 s    6 1.00
             3047.5249  0.0018347001629433
             457.36951    0.01403730124668
             103.94869   0.068842606114048
             29.210155    0.23218442062076
              9.286663    0.46794134155879
              3.163927    0.36231203217765
 s    3 1.00
             7.8682724   -0.11933240861517
             1.8812885   -0.16085421161283
             0.5442493     1.1434564825515
 s    1 1.00
             0.1687144                   1
 p    3 1.00
             7.8682724   0.068999095584993
             1.8812885    0.31642397975315
             0.5442493    0.74430825237435
 p    1 1.00
             0.1687144                   1
 d    1 1.00
                   0.8                   1

13 0
 s    3 1.00
             18.731137    0.03349459952309
             2.8253937    0.23472694665786
             0.6401217    0.81375731841339
 s    1 1.00
             0.1612778                   1

14 0
 s    3 1.00
             18.731137    0.03349459952309
             2.8253937    0.23472694665786
             0.6401217    0.81375731841339
 s    1 1.00
             0.1612778                   1

15 0
 s    6 1.00
             3047.5249  0.0018347001629433
             457.36951    0.01403730124668
             103.94869   0.068842606114048
             29.210155    0.23218442062076
              9.286663    0.46794134155879
              3.163927    0.36231203217765
 s    3 1.00
             7.8682724   -0.11933240861517
             1.8812885   -0.16085421161283
             0.5442493     1.1434564825515
 s    1 1.00
             0.1687144                   1
 p    3 1.00
             7.8682724   0.068999095584993
             1.8812885    0.31642397975315
             0.5442493    0.74430825237435
 p    1 1.00
             0.1687144                   1
 d    1 1.00
                   0.8                   1

16 0
 s    6 1.00
             3047.5249  0.0018347001629433
             457.36951    0.01403730124668
             103.94869   0.068842606114048
             29.210155    0.23218442062076
              9.286663    0.46794134155879
              3.163927    0.36231203217765
 s    3 1.00
             7.8682724   -0.11933240861517
             1.8812885   -0.16085421161283
             0.5442493     1.1434564825515
 s    1 1.00
             0.1687144                   1
 p    3 1.00
             7.8682724   0.068999095584993
             1.8812885    0.31642397975315
             0.5442493    0.74430825237435
 p    1 1.00
             0.1687144                   1
 d    1 1.00
                   0.8                   1

17 0
 s    6 1.00
             3047.5249  0.0018347001629433
             457.36951    0.01403730124668
             103.94869   0.068842606114048
             29.210155    0.23218442062076
              9.286663    0.46794134155879
              3.163927    0.36231203217765
 s    3 1.00
             7.8682724   -0.11933240861517
             1.8812885   -0.16085421161283
             0.5442493     1.1434564825515
 s    1 1.00
             0.1687144                   1
 p    3 1.00
             7.8682724   0.068999095584993
             1.8812885    0.31642397975315
             0.5442493    0.74430825237435
 p    1 1.00
             0.1687144                   1
 d    1 1.00
                   0.8                   1

18 0
 s    6 1.00
             3047.5249  0.0018347001629433
             457.36951    0.01403730124668
             103.94869   0.068842606114048
             29.210155    0.23218442062076
              9.286663    0.46794134155879
              3.163927    0.36231203217765
 s    3 1.00
             7.8682724   -0.11933240861517
             1.8812885   -0.16085421161283
             0.5442493     1.1434564825515
 s    1 1.00
             0.1687144                   1
 p    3 1.00
             7.8682724   0.068999095584993
             1.8812885    0.31642397975315
             0.5442493    0.74430825237435
 p    1 1.00
             0.1687144                   1
 d    1 1.00
                   0.8                   1

19 0
 s    6 1.00
             3047.5249  0.0018347001629433
             457.36951    0.01403730124668
             103.94869   0.068842606114048
             29.210155    0.23218442062076
              9.286663    0.46794134155879
              3.163927    0.36231203217765
 s    3 1.00
             7.8682724   -0.11933240861517
             1.8812885   -0.16085421161283
             0.5442493     1.1434564825515
 s    1 1.00
             0.1687144                   1
 p    3 1.00
             7.8682724   0.068999095584993
             1.8812885    0.31642397975315
             0.5442493    0.74430825237435
 p    1 1.00
             0.1687144                   1
 d    1 1.00
                   0.8                   1

20 0
 s    6 1.00
             3047.5249  0.0018347001629433
             457.36951    0.01403730124668
             103.94869   0.068842606114048
             29.210155    0.23218442062076
              9.286663    0.46794134155879
              3.163927    0.36231203217765
 s    3 1.00
             7.8682724   -0.11933240861517
             1.8812885   -0.16085421161283
             0.5442493     1.1434564825515
 s    1 1.00
             0.1687144                   1
 p    3 1.00
             7.8682724   0.068999095584993
             1.8812885    0.31642397975315
             0.5442493    0.74430825237435
 p    1 1.00
             0.1687144                   1
 d    1 1.00
                   0.8                   1

21 0
 s    6 1.00
             3047.5249  0.0018347001629433
             457.36951    0.01403730124668
             103.94869   0.068842606114048
             29.210155    0.23218442062076
              9.286663    0.46794134155879
              3.163927    0.36231203217765
 s    3 1.00
             7.8682724   -0.11933240861517
             1.8812885   -0.16085421161283
             0.5442493     1.1434564825515
 s    1 1.00
             0.1687144                   1
 p    3 1.00
             7.8682724   0.068999095584993
             1.8812885    0.31642397975315
             0.5442493    0.74430825237435
 p    1 1.00
             0.1687144                   1
 d    1 1.00
                   0.8                   1

22 0
 s    3 1.00
             18.731137    0.03349459952309
             2.8253937    0.23472694665786
             0.6401217    0.81375731841339
 s    1 1.00
             0.1612778                   1

23 0
 s    3 1.00
             18.731137    0.03349459952309
             2.8253937    0.23472694665786
             0.6401217    0.81375731841339
 s    1 1.00
             0.1612778                   1

24 0
 s    3 1.00
             18.731137    0.03349459952309
             2.8253937    0.23472694665786
             0.6401217    0.81375731841339
 s    1 1.00
             0.1612778                   1

25 0
 s    3 1.00
             18.731137    0.03349459952309
             2.8253937    0.23472694665786
             0.6401217    0.81375731841339
 s    1 1.00
             0.1612778                   1

26 0
 s    3 1.00
             18.731137    0.03349459952309
             2.8253937    0.23472694665786
             0.6401217    0.81375731841339
 s    1 1.00
             0.1612778                   1

27 0
 s    3 1.00
             18.731137    0.03349459952309
             2.8253937    0.23472694665786
             0.6401217    0.81375731841339
 s    1 1.00
             0.1612778                   1

28 0
 s    3 1.00
             18.731137    0.03349459952309
             2.8253937    0.23472694665786
             0.6401217    0.81375731841339
 s    1 1.00
             0.1612778                   1

29 0
 s    3 1.00
             18.731137    0.03349459952309
             2.8253937    0.23472694665786
             0.6401217    0.81375731841339
 s    1 1.00
             0.1612778                   1

30 0
 s    3 1.00
             18.731137    0.03349459952309
             2.8253937    0.23472694665786
             0.6401217    0.81375731841339
 s    1 1.00
             0.1612778                   1

31 0
 s    3 1.00
             18.731137    0.03349459952309
             2.8253937    0.23472694665786
             0.6401217    0.81375731841339
 s    1 1.00
             0.1612778                   1

32 0
 s    3 1.00
             18.731137    0.03349459952309
             2.8253937    0.23472694665786
             0.6401217    0.81375731841339
 s    1 1.00
             0.1612778                   1

33 0
 s    6 1.00
             3047.5249  0.0018347001629433
             457.36951    0.01403730124668
             103.94869   0.068842606114048
             29.210155    0.23218442062076
              9.286663    0.46794134155879
              3.163927    0.36231203217765
 s    3 1.00
             7.8682724   -0.11933240861517
             1.8812885   -0.16085421161283
             0.5442493     1.1434564825515
 s    1 1.00
             0.1687144                   1
 p    3 1.00
             7.8682724   0.068999095584993
             1.8812885    0.31642397975315
             0.5442493    0.74430825237435
 p    1 1.00
             0.1687144                   1
 d    1 1.00
                   0.8                   1

34 0
 s    6 1.00
             3047.5249  0.0018347001629433
             457.36951    0.01403730124668
             103.94869   0.068842606114048
             29.210155    0.23218442062076
              9.286663    0.46794134155879
              3.163927    0.36231203217765
 s    3 1.00
             7.8682724   -0.11933240861517
             1.8812885   -0.16085421161283
             0.5442493     1.1434564825515
 s    1 1.00
             0.1687144                   1
 p    3 1.00
             7.8682724   0.068999095584993
             1.8812885    0.31642397975315
             0.5442493    0.74430825237435
 p    1 1.00
             0.1687144                   1
 d    1 1.00
                   0.8                   1

35 0
 s    3 1.00
             18.731137    0.03349459952309
             2.8253937    0.23472694665786
             0.6401217    0.81375731841339
 s    1 1.00
             0.1612778                   1

36 0
 s    6 1.00
             3047.5249  0.0018347001629433
             457.36951    0.01403730124668
             103.94869   0.068842606114048
             29.210155    0.23218442062076
              9.286663    0.46794134155879
              3.163927    0.36231203217765
 s    3 1.00
             7.8682724   -0.11933240861517
             1.8812885   -0.16085421161283
             0.5442493     1.1434564825515
 s    1 1.00
             0.1687144                   1
 p    3 1.00
             7.8682724   0.068999095584993
             1.8812885    0.31642397975315
             0.5442493    0.74430825237435
 p    1 1.00
             0.1687144                   1
 d    1 1.00
                   0.8                   1

37 0
 s    3 1.00
             18.731137    0.03349459952309
             2.8253937    0.23472694665786
             0.6401217    0.81375731841339
 s    1 1.00
             0.1612778                   1

38 0
 s    3 1.00
             18.731137    0.03349459952309
             2.8253937    0.23472694665786
             0.6401217    0.81375731841339
 s    1 1.00
             0.1612778                   1

39 0
 s    6 1.00
             3047.5249  0.0018347001629433
             457.36951    0.01403730124668
             103.94869   0.068842606114048
             29.210155    0.23218442062076
              9.286663    0.46794134155879
              3.163927    0.36231203217765
 s    3 1.00
             7.8682724   -0.11933240861517
             1.8812885   -0.16085421161283
             0.5442493     1.1434564825515
 s    1 1.00
             0.1687144                   1
 p    3 1.00
             7.8682724   0.068999095584993
             1.8812885    0.31642397975315
             0.5442493    0.74430825237435
 p    1 1.00
             0.1687144                   1
 d    1 1.00
                   0.8                   1

40 0
 s    6 1.00
             3047.5249  0.0018347001629433
             457.36951    0.01403730124668
             103.94869   0.068842606114048
             29.210155    0.23218442062076
              9.286663    0.46794134155879
              3.163927    0.36231203217765
 s    3 1.00
             7.8682724   -0.11933240861517
             1.8812885   -0.16085421161283
             0.5442493     1.1434564825515
 s    1 1.00
             0.1687144                   1
 p    3 1.00
             7.8682724   0.068999095584993
             1.8812885    0.31642397975315
             0.5442493    0.74430825237435
 p    1 1.00
             0.1687144                   1
 d    1 1.00
                   0.8                   1

41 0
 s    3 1.00
             18.731137    0.03349459952309
             2.8253937    0.23472694665786
             0.6401217    0.81375731841339
 s    1 1.00
             0.1612778                   1

42 0
 s    6 1.00
             5484.6717   0.001831099805527
             825.23495   0.013950098518422
             188.04696    0.06844509273075
               52.9645    0.23271427528445
              16.89757    0.47019295006289
             5.7996353    0.35852086192309
 s    3 1.00
             15.539616   -0.11077750382508
             3.5999336   -0.14802630511126
             1.0137618     1.1307670390447
 s    1 1.00
             0.2700058                   1
 p    3 1.00
             15.539616   0.070874299543311
             3.5999336    0.33975279781076
             1.0137618    0.72715859531445
 p    1 1.00
             0.2700058                   1
 d    1 1.00
                   0.8                   1

43 0
 s    3 1.00
             18.731137    0.03349459952309
             2.8253937    0.23472694665786
             0.6401217    0.81375731841339
 s    1 1.00
             0.1612778                   1

[5d]
[7f]
[9g]

[MO]
 Sym= A
 Ene=               0
 Spin= Alpha
 Occup=    1.00000
   1    -0.021460888142609
   2    0.0007991967159894
   3    -0.0068486092145488
   4    -0.00037622544542491
   5    0.00015050463022104
   6    -0.0011535236826814
   7    -0.00083163480291185
   8    -0.0013173965532125
   9    0.0054733207206295
  10    0.00088234768617897
  11    0.00086070894128023
  12    -0.00014315379220348
  13    0.00020486104873765
  14    -4.1265458640106e-05
  15    0.00049101163801967
  16    0.0008976273773184
  17     -0.99483280197593
  18    -0.036851894173923
  19     0.028443609525299
  20    -0.00093688975776115
  21    -0.0001807145947695
  22    0.0005557679712053
  23    0.0035902792369692
  24    0.0010937533013958
  25    0.00079686089731916
  26    -0.00076097474904269
  27    0.00030351173559661
  28    0.00034214843815137
  29    -0.00029723986952492
  30    -0.00020923382159539
  31    0.0011244593888894
  32    -0.0038414674438404
  33    -0.012874553401959
  34    0.00026832548690925
  35    -0.00099679628208531
  36    -0.00083225017636122
  37    -0.00031822610401101
  38    0.0011115076390202
  39    0.0025557435918696
  40    -0.0034684290108229
  41    -0.0038959201866825
  42    0.00058328653262559
  43    -0.0011788851194778
  44    -0.00047457214318298
  45    0.00035323424653577
  46    0.00035710951049471
  47    0.00055132174398843
  48    0.00058707758532356
  49    0.00026901752365275
  50    0.00054090409105555
  51    -0.00021937532318055
  52    -0.00027476261303666
  53    -3.0059729347374e-05
  54    0.00038495421893179
  55    0.0051023936232741
  56    -0.0010314125313155
  57    -0.0068127853175861
  58    0.00015798830498394
  59    1.7454369815934e-05
  60    -0.00013677177469804
  61    0.00021682411246639
  62    0.00021929356679438
  63    0.00047585936328198
  64    -0.00023998423241876
  65    2.5869484436792e-06
  66    3.9872263962625e-06
  67    5.8495718043555e-08
  68    1.3641142515337e-06
  69    -6.1399054094724e-06
  70    -1.9370598688065e-06
  71    4.4220205228253e-06
  72    1.8948699108789e-08
  73    -1.2845227883661e-05
  74    -2.5224333790461e-05
  75    -9.0832831099832e-06
  76    1.2751686601151e-07
  77    3.0116898712438e-07
  78    -2.9898661007498e-07
  79    -5.5679207826966e-07
  80    2.8353865140009e-08
  81    -2.4904318450794e-06
  82    -1.2839048644463e-05
  83    -2.1553068213393e-07
  84    -1.0331451840264e-06
  85    6.6867489561544e-05
  86    -3.9644738299315e-06
  87    -3.1946293483612e-06
  88    -5.2055290893744e-06
  89    -2.3315673143707e-05
  90    6.2755275911534e-05
  91    -8.3503561000882e-06
  92    -1.5949395729356e-06
  93    2.6268646155061e-06
  94    -3.7395647921444e-06
  95    6.722282663672e-07
  96    1.0362211723428e-06
  97    -7.2010049407092e-06
  98    -1.2487055399134e-05
  99    3.3958180726185e-06
 100    1.8918356331147e-05
 101    1.0862575224986e-06
 102    1.0792901596944e-05
 103    -0.00021907808648084
 104    2.534055647692e-06
 105    8.980662906145e-06
 106    3.2857907566171e-06
 107    0.00018600046681041
 108    -0.00017936803523099
 109    -0.00014046648232519
 110    5.9732413371433e-06
 111    2.5597894035941e-07
 112    -7.3753048797463e-08
 113    -1.2138943734085e-06
 114    5.2228265419471e-06
 115    3.3033474878869e-06
 116    3.2292140685488e-05
 117    -0.0002340222581955
 118    2.2777754774789e-06
 119    -2.7906854350331e-06
 120    -5.1438286876701e-06
 121    4.9966451025256e-05
 122    -1.3666797229612e-05
 123    -2.8987421322455e-05
 124    -1.4634299511467e-06
 125    2.9597498063898e-06
 126    2.3447266203126e-06
 127    -8.0341199934443e-07
 128    2.1670609075965e-06
 129    5.3594858853395e-06
 130    5.1932748296394e-05
 131    -0.00015297160752475
 132    -5.187142123212e-06
 133    4.7935820683238e-06
 134    -2.1826813332998e-05
 135    0.00033519360227771
 136    -3.3466810591701e-05
 137    0.00040528195490694
 138    -9.0657346194896e-06
 139    -1.3351498473755e-05
 140    -5.2987818165432e-06
 141    -4.4467328355801e-06
 142    -6.4821019831755e-06
 143    2.0587649269968e-06
 144    2.7648030078503e-05
 145    -3.5995468792868e-05
 146    -1.999717444554e-06
 147    -5.6867467759899e-06
 148    -1.2719018192738e-05
 149    -1.7197754653537e-05
 150    -1.9538974302143e-07
 151    6.4321444864506e-05
 152    6.638747221663e-06
 153    3.8801422876864e-06
 154     2.98922001213e-06
 155    -4.1339623371037e-06
 156    4.0632248083579e-06
 157    -1.5858111509354e-06
 158    -1.233572964266e-05
 159    3.7159355854879e-05
 160    -5.8306608243991e-06
 161    2.614098992775e-08
 162    1.4191468974052e-06
 163    4.8840065827347e-05
 164    -2.4150125861765e-05
 165    -1.0953108915266e-05
 166    -4.365015293313e-06
 167    8.0134781842278e-07
 168    2.0330554770415e-07
 169    -8.3285155344486e-07
 170    -1.9252018250221e-06
 171    4.646382883251e-07
 172    1.2227880753534e-05
 173    -2.2545035647866e-05
 174    4.0259033289876e-06
 175    2.7176314689244e-07
 176    -1.0739464623793e-05
 177    1.2120315442974e-06
 178    1.3797686972401e-06
 179    2.5739688493814e-05
 180    -1.5466957242487e-06
 181    -4.6537544193638e-06
 182    -8.8905000980625e-07
 183    1.213904409722e-06
 184    -1.569557401857e-06
 185    3.2884627312673e-06
 186    2.8316606285517e-05
 187    -8.1792071684583e-05
 188    2.3609144528944e-06
 189    -6.8109519653227e-07
 190    -4.8466851225685e-06
 191    3.1450220471913e-06
 192    1.330606106646e-05
 193    6.9834224631688e-05
 194    -3.1411478447464e-06
 195    -1.6659366235768e-06
 196    -2.6886224661895e-06
 197    2.7076073562456e-07
 198    -3.9187625583796e-07
 199    7.3199036142523e-06
 200    -3.6075481687373e-07
 201    2.3760648131755e-06
 202    -1.9483599987138e-05
 203    1.1122121147996e-05
 204    4.8092643189687e-06
 205    5.434752422501e-07
 206    2.6115610810309e-05
 207    -9.0340072168039e-06
 208    6.0432860794747e-05
 209    -1.072615258691e-05
 210     2.57403519498e-05
 211    -6.1274500673871e-06
 212    -1.7076875780179e-05
 213    6.1878420506107e-07
 214    2.0520372564542e-05
 215    2.5913446911488e-06
 216    2.7736685065989e-05
 217    -1.4048818616073e-06
 218    -8.6616643622368e-06
 219    -4.9466751105294e-07
 220    1.2734543142459e-06
 221    8.1989771177107e-06
 222    8.3458611330253e-05
 223    -0.00082724668812979
 224    1.2729372950608e-05
 225    3.8562959158995e-07
 226    -1.2753392826854e-05
 227    -0.00060196734060235
 228    -0.00029678370214417
 229    0.00088835634330748
 230    -2.1216513743763e-06
 231    4.1852394712419e-05
 232    2.0542352233745e-05
 233    -2.0978101662471e-05
 234    -2.1494112956961e-05
 235    1.4562201499631e-05
 236    3.7062773829114e-05
 237    0.00018710941052342
 238    2.0004683066536e-05
 239    2.2434449222482e-06
 240    -1.059264730094e-05
 241    -0.00026941766088058
 242    -0.0003337021488432
 243    0.0014679198822002
 244    -9.3182181966106e-06
 245    -6.7353200209766e-05
 246    -1.1937571877305e-05
 247    -1.8670063441342e-05
 248    2.3492324425315e-06
 249    3.3298173634053e-05
 250    -0.00029441301359163
 251    2.4395404434718e-05
 252    0.00039396700737223
 253    -0.0020778297254095
 254    -7.0005746684524e-05
 255    3.5341092019019e-05
 256    -0.00021940298074103
 257    1.0090052600231e-05
 258    -0.00035575527275504
 259    0.0017532232316397
 260    5.8072692316347e-05
 261    1.4924814729691e-05
 262    1.2264254408819e-05
 263    -0.00013361380816582
 264    -7.6744304886947e-05
 265    8.6791652324585e-05
 266    -0.00019291425924717
 267    0.0001354682286353
 268    0.00050307687680344
 269    7.5507396415537e-05
 270    0.00050419937407224
 271    -0.0066989823760168
 272     8.78665778068e-05
 273    -0.00010938203229001
 274    -0.00011329882954917
 275    0.0013847793021824
 276    0.0027236866496663
 277    -0.0027540469147197
 278    -8.4861806790054e-05
 279    0.00017093154372915
 280    9.8596288510547e-05
 281    2.8010969271967e-05