[Molden Format]
made by pyscf v[2.0.1]
[Atoms] (AU)
C   1   6     0.69100024066471     0.64692934207205    -3.48223131169301
H   2   1     2.68052439830868     1.13355088658700    -3.25784032593313
C   3   6    -0.36286361513219     0.85440132524594    -5.97030179418974
H   4   1    -2.35448549047279     0.36322488579172    -6.17995817793143
C   5   6     0.93697958957450     1.61209284601821    -8.05828437677121
H   6   1     1.06549067678056     3.62267689696451    -8.48487489511106
C   7   6     2.16736557798100    -0.10534186648568    -9.75912299477448
H   8   1     2.02320928491733    -2.11383137749881    -9.30645195914250
H   9   1     1.55630230933075    -1.92953025305990    12.99630010416247
C   10   6     0.75233899775814    -2.21270439606481    11.10705728102219
H   11   1    -0.43433408177274    -3.90944857546550    11.22216085340412
C   12   6     2.86362581178706    -2.63237380607947     9.17926416456045
H   13   1     4.39038949912609    -1.24955421540245     9.49899813497433
H   14   1     3.74629220191363    -4.48798724300892     9.47414880959024
C   15   6     2.02478325613682    -2.42177285709634     6.44560829588644
C   16   6     3.88048732735477    -3.58795445234514     4.61402886975252
C   17   6    -0.18412382258602    -1.30464291234259     5.76021113872346
C   18   6    -2.10044360464350    -0.26837831858460     7.71610340967100
C   19   6    -3.08956938670431     2.35282328359417     6.88693925039594
C   20   6    -4.37372924086464    -2.09766595989678     7.93610724222001
C   21   6    -0.83850430601230     0.06372213486173    10.33002307638377
H   22   1     0.38411922151109     1.74281358582432    10.27380136542181
H   23   1    -2.30980003007874     0.45460143924521    11.73986301809809
H   24   1     4.58527064644668    -5.38706904487420     5.36778158031719
H   25   1     5.54944938085014    -2.37631462192748     4.35398898413318
H   26   1     3.06633019150423    -3.94118377050688     2.75255466040884
H   27   1    -4.17727778763735     2.26573369139522     5.12914900961283
H   28   1    -1.52662344944051     3.68001877445626     6.59540397144508
H   29   1    -4.32916174397830     3.13643051467482     8.35225460090378
H   30   1    -5.32329548508442    -2.36691813602939     6.11583672749896
H   31   1    -5.77989366602257    -1.33896741843465     9.25748940450990
H   32   1    -3.79310905208926    -3.96389819310853     8.61386170102686
C   33   6    -1.01100794811226    -1.06331657314144     3.11929490449947
C   34   6     0.37686231036534    -0.33275864505552     1.09165013605873
H   35   1    -3.01671213906703    -1.40297922279997     2.77827895090944
C   36   6    -0.64382707979370    -0.11591880174385    -1.42063131251064
H   37   1     2.35569259782137     0.17174499283897     1.33641070251401
H   38   1    -2.63317482980319    -0.60229203511219    -1.66119700387645
C   39   6     3.47875288242203     0.56169257871714   -11.85961387583028
C   40   6     4.66516051155728    -1.33401759756945   -13.47384510134906
H   41   1     3.69428385946791     2.52875803282145   -12.41815504578381
O   42   8     5.86788117255002    -0.86880199432758   -15.38639878207248
H   43   1     4.39675898316744    -3.32256790318547   -12.83056660829343
[GTO]
1 0
 s    6 1.00
             3047.5249  0.0018347001629433
             457.36951    0.01403730124668
             103.94869   0.068842606114048
             29.210155    0.23218442062076
              9.286663    0.46794134155879
              3.163927    0.36231203217765
 s    3 1.00
             7.8682724   -0.11933240861517
             1.8812885   -0.16085421161283
             0.5442493     1.1434564825515
 s    1 1.00
             0.1687144                   1
 p    3 1.00
             7.8682724   0.068999095584993
             1.8812885    0.31642397975315
             0.5442493    0.74430825237435
 p    1 1.00
             0.1687144                   1
 d    1 1.00
                   0.8                   1

2 0
 s    3 1.00
             18.731137    0.03349459952309
             2.8253937    0.23472694665786
             0.6401217    0.81375731841339
 s    1 1.00
             0.1612778                   1

3 0
 s    6 1.00
             3047.5249  0.0018347001629433
             457.36951    0.01403730124668
             103.94869   0.068842606114048
             29.210155    0.23218442062076
              9.286663    0.46794134155879
              3.163927    0.36231203217765
 s    3 1.00
             7.8682724   -0.11933240861517
             1.8812885   -0.16085421161283
             0.5442493     1.1434564825515
 s    1 1.00
             0.1687144                   1
 p    3 1.00
             7.8682724   0.068999095584993
             1.8812885    0.31642397975315
             0.5442493    0.74430825237435
 p    1 1.00
             0.1687144                   1
 d    1 1.00
                   0.8                   1

4 0
 s    3 1.00
             18.731137    0.03349459952309
             2.8253937    0.23472694665786
             0.6401217    0.81375731841339
 s    1 1.00
             0.1612778                   1

5 0
 s    6 1.00
             3047.5249  0.0018347001629433
             457.36951    0.01403730124668
             103.94869   0.068842606114048
             29.210155    0.23218442062076
              9.286663    0.46794134155879
              3.163927    0.36231203217765
 s    3 1.00
             7.8682724   -0.11933240861517
             1.8812885   -0.16085421161283
             0.5442493     1.1434564825515
 s    1 1.00
             0.1687144                   1
 p    3 1.00
             7.8682724   0.068999095584993
             1.8812885    0.31642397975315
             0.5442493    0.74430825237435
 p    1 1.00
             0.1687144                   1
 d    1 1.00
                   0.8                   1

6 0
 s    3 1.00
             18.731137    0.03349459952309
             2.8253937    0.23472694665786
             0.6401217    0.81375731841339
 s    1 1.00
             0.1612778                   1

7 0
 s    6 1.00
             3047.5249  0.0018347001629433
             457.36951    0.01403730124668
             103.94869   0.068842606114048
             29.210155    0.23218442062076
              9.286663    0.46794134155879
              3.163927    0.36231203217765
 s    3 1.00
             7.8682724   -0.11933240861517
             1.8812885   -0.16085421161283
             0.5442493     1.1434564825515
 s    1 1.00
             0.1687144                   1
 p    3 1.00
             7.8682724   0.068999095584993
             1.8812885    0.31642397975315
             0.5442493    0.74430825237435
 p    1 1.00
             0.1687144                   1
 d    1 1.00
                   0.8                   1

8 0
 s    3 1.00
             18.731137    0.03349459952309
             2.8253937    0.23472694665786
             0.6401217    0.81375731841339
 s    1 1.00
             0.1612778                   1

9 0
 s    3 1.00
             18.731137    0.03349459952309
             2.8253937    0.23472694665786
             0.6401217    0.81375731841339
 s    1 1.00
             0.1612778                   1

10 0
 s    6 1.00
             3047.5249  0.0018347001629433
             457.36951    0.01403730124668
             103.94869   0.068842606114048
             29.210155    0.23218442062076
              9.286663    0.46794134155879
              3.163927    0.36231203217765
 s    3 1.00
             7.8682724   -0.11933240861517
             1.8812885   -0.16085421161283
             0.5442493     1.1434564825515
 s    1 1.00
             0.1687144                   1
 p    3 1.00
             7.8682724   0.068999095584993
             1.8812885    0.31642397975315
             0.5442493    0.74430825237435
 p    1 1.00
             0.1687144                   1
 d    1 1.00
                   0.8                   1

11 0
 s    3 1.00
             18.731137    0.03349459952309
             2.8253937    0.23472694665786
             0.6401217    0.81375731841339
 s    1 1.00
             0.1612778                   1

12 0
 s    6 1.00
             3047.5249  0.0018347001629433
             457.36951    0.01403730124668
             103.94869   0.068842606114048
             29.210155    0.23218442062076
              9.286663    0.46794134155879
              3.163927    0.36231203217765
 s    3 1.00
             7.8682724   -0.11933240861517
             1.8812885   -0.16085421161283
             0.5442493     1.1434564825515
 s    1 1.00
             0.1687144                   1
 p    3 1.00
             7.8682724   0.068999095584993
             1.8812885    0.31642397975315
             0.5442493    0.74430825237435
 p    1 1.00
             0.1687144                   1
 d    1 1.00
                   0.8                   1

13 0
 s    3 1.00
             18.731137    0.03349459952309
             2.8253937    0.23472694665786
             0.6401217    0.81375731841339
 s    1 1.00
             0.1612778                   1

14 0
 s    3 1.00
             18.731137    0.03349459952309
             2.8253937    0.23472694665786
             0.6401217    0.81375731841339
 s    1 1.00
             0.1612778                   1

15 0
 s    6 1.00
             3047.5249  0.0018347001629433
             457.36951    0.01403730124668
             103.94869   0.068842606114048
             29.210155    0.23218442062076
              9.286663    0.46794134155879
              3.163927    0.36231203217765
 s    3 1.00
             7.8682724   -0.11933240861517
             1.8812885   -0.16085421161283
             0.5442493     1.1434564825515
 s    1 1.00
             0.1687144                   1
 p    3 1.00
             7.8682724   0.068999095584993
             1.8812885    0.31642397975315
             0.5442493    0.74430825237435
 p    1 1.00
             0.1687144                   1
 d    1 1.00
                   0.8                   1

16 0
 s    6 1.00
             3047.5249  0.0018347001629433
             457.36951    0.01403730124668
             103.94869   0.068842606114048
             29.210155    0.23218442062076
              9.286663    0.46794134155879
              3.163927    0.36231203217765
 s    3 1.00
             7.8682724   -0.11933240861517
             1.8812885   -0.16085421161283
             0.5442493     1.1434564825515
 s    1 1.00
             0.1687144                   1
 p    3 1.00
             7.8682724   0.068999095584993
             1.8812885    0.31642397975315
             0.5442493    0.74430825237435
 p    1 1.00
             0.1687144                   1
 d    1 1.00
                   0.8                   1

17 0
 s    6 1.00
             3047.5249  0.0018347001629433
             457.36951    0.01403730124668
             103.94869   0.068842606114048
             29.210155    0.23218442062076
              9.286663    0.46794134155879
              3.163927    0.36231203217765
 s    3 1.00
             7.8682724   -0.11933240861517
             1.8812885   -0.16085421161283
             0.5442493     1.1434564825515
 s    1 1.00
             0.1687144                   1
 p    3 1.00
             7.8682724   0.068999095584993
             1.8812885    0.31642397975315
             0.5442493    0.74430825237435
 p    1 1.00
             0.1687144                   1
 d    1 1.00
                   0.8                   1

18 0
 s    6 1.00
             3047.5249  0.0018347001629433
             457.36951    0.01403730124668
             103.94869   0.068842606114048
             29.210155    0.23218442062076
              9.286663    0.46794134155879
              3.163927    0.36231203217765
 s    3 1.00
             7.8682724   -0.11933240861517
             1.8812885   -0.16085421161283
             0.5442493     1.1434564825515
 s    1 1.00
             0.1687144                   1
 p    3 1.00
             7.8682724   0.068999095584993
             1.8812885    0.31642397975315
             0.5442493    0.74430825237435
 p    1 1.00
             0.1687144                   1
 d    1 1.00
                   0.8                   1

19 0
 s    6 1.00
             3047.5249  0.0018347001629433
             457.36951    0.01403730124668
             103.94869   0.068842606114048
             29.210155    0.23218442062076
              9.286663    0.46794134155879
              3.163927    0.36231203217765
 s    3 1.00
             7.8682724   -0.11933240861517
             1.8812885   -0.16085421161283
             0.5442493     1.1434564825515
 s    1 1.00
             0.1687144                   1
 p    3 1.00
             7.8682724   0.068999095584993
             1.8812885    0.31642397975315
             0.5442493    0.74430825237435
 p    1 1.00
             0.1687144                   1
 d    1 1.00
                   0.8                   1

20 0
 s    6 1.00
             3047.5249  0.0018347001629433
             457.36951    0.01403730124668
             103.94869   0.068842606114048
             29.210155    0.23218442062076
              9.286663    0.46794134155879
              3.163927    0.36231203217765
 s    3 1.00
             7.8682724   -0.11933240861517
             1.8812885   -0.16085421161283
             0.5442493     1.1434564825515
 s    1 1.00
             0.1687144                   1
 p    3 1.00
             7.8682724   0.068999095584993
             1.8812885    0.31642397975315
             0.5442493    0.74430825237435
 p    1 1.00
             0.1687144                   1
 d    1 1.00
                   0.8                   1

21 0
 s    6 1.00
             3047.5249  0.0018347001629433
             457.36951    0.01403730124668
             103.94869   0.068842606114048
             29.210155    0.23218442062076
              9.286663    0.46794134155879
              3.163927    0.36231203217765
 s    3 1.00
             7.8682724   -0.11933240861517
             1.8812885   -0.16085421161283
             0.5442493     1.1434564825515
 s    1 1.00
             0.1687144                   1
 p    3 1.00
             7.8682724   0.068999095584993
             1.8812885    0.31642397975315
             0.5442493    0.74430825237435
 p    1 1.00
             0.1687144                   1
 d    1 1.00
                   0.8                   1

22 0
 s    3 1.00
             18.731137    0.03349459952309
             2.8253937    0.23472694665786
             0.6401217    0.81375731841339
 s    1 1.00
             0.1612778                   1

23 0
 s    3 1.00
             18.731137    0.03349459952309
             2.8253937    0.23472694665786
             0.6401217    0.81375731841339
 s    1 1.00
             0.1612778                   1

24 0
 s    3 1.00
             18.731137    0.03349459952309
             2.8253937    0.23472694665786
             0.6401217    0.81375731841339
 s    1 1.00
             0.1612778                   1

25 0
 s    3 1.00
             18.731137    0.03349459952309
             2.8253937    0.23472694665786
             0.6401217    0.81375731841339
 s    1 1.00
             0.1612778                   1

26 0
 s    3 1.00
             18.731137    0.03349459952309
             2.8253937    0.23472694665786
             0.6401217    0.81375731841339
 s    1 1.00
             0.1612778                   1

27 0
 s    3 1.00
             18.731137    0.03349459952309
             2.8253937    0.23472694665786
             0.6401217    0.81375731841339
 s    1 1.00
             0.1612778                   1

28 0
 s    3 1.00
             18.731137    0.03349459952309
             2.8253937    0.23472694665786
             0.6401217    0.81375731841339
 s    1 1.00
             0.1612778                   1

29 0
 s    3 1.00
             18.731137    0.03349459952309
             2.8253937    0.23472694665786
             0.6401217    0.81375731841339
 s    1 1.00
             0.1612778                   1

30 0
 s    3 1.00
             18.731137    0.03349459952309
             2.8253937    0.23472694665786
             0.6401217    0.81375731841339
 s    1 1.00
             0.1612778                   1

31 0
 s    3 1.00
             18.731137    0.03349459952309
             2.8253937    0.23472694665786
             0.6401217    0.81375731841339
 s    1 1.00
             0.1612778                   1

32 0
 s    3 1.00
             18.731137    0.03349459952309
             2.8253937    0.23472694665786
             0.6401217    0.81375731841339
 s    1 1.00
             0.1612778                   1

33 0
 s    6 1.00
             3047.5249  0.0018347001629433
             457.36951    0.01403730124668
             103.94869   0.068842606114048
             29.210155    0.23218442062076
              9.286663    0.46794134155879
              3.163927    0.36231203217765
 s    3 1.00
             7.8682724   -0.11933240861517
             1.8812885   -0.16085421161283
             0.5442493     1.1434564825515
 s    1 1.00
             0.1687144                   1
 p    3 1.00
             7.8682724   0.068999095584993
             1.8812885    0.31642397975315
             0.5442493    0.74430825237435
 p    1 1.00
             0.1687144                   1
 d    1 1.00
                   0.8                   1

34 0
 s    6 1.00
             3047.5249  0.0018347001629433
             457.36951    0.01403730124668
             103.94869   0.068842606114048
             29.210155    0.23218442062076
              9.286663    0.46794134155879
              3.163927    0.36231203217765
 s    3 1.00
             7.8682724   -0.11933240861517
             1.8812885   -0.16085421161283
             0.5442493     1.1434564825515
 s    1 1.00
             0.1687144                   1
 p    3 1.00
             7.8682724   0.068999095584993
             1.8812885    0.31642397975315
             0.5442493    0.74430825237435
 p    1 1.00
             0.1687144                   1
 d    1 1.00
                   0.8                   1

35 0
 s    3 1.00
             18.731137    0.03349459952309
             2.8253937    0.23472694665786
             0.6401217    0.81375731841339
 s    1 1.00
             0.1612778                   1

36 0
 s    6 1.00
             3047.5249  0.0018347001629433
             457.36951    0.01403730124668
             103.94869   0.068842606114048
             29.210155    0.23218442062076
              9.286663    0.46794134155879
              3.163927    0.36231203217765
 s    3 1.00
             7.8682724   -0.11933240861517
             1.8812885   -0.16085421161283
             0.5442493     1.1434564825515
 s    1 1.00
             0.1687144                   1
 p    3 1.00
             7.8682724   0.068999095584993
             1.8812885    0.31642397975315
             0.5442493    0.74430825237435
 p    1 1.00
             0.1687144                   1
 d    1 1.00
                   0.8                   1

37 0
 s    3 1.00
             18.731137    0.03349459952309
             2.8253937    0.23472694665786
             0.6401217    0.81375731841339
 s    1 1.00
             0.1612778                   1

38 0
 s    3 1.00
             18.731137    0.03349459952309
             2.8253937    0.23472694665786
             0.6401217    0.81375731841339
 s    1 1.00
             0.1612778                   1

39 0
 s    6 1.00
             3047.5249  0.0018347001629433
             457.36951    0.01403730124668
             103.94869   0.068842606114048
             29.210155    0.23218442062076
              9.286663    0.46794134155879
              3.163927    0.36231203217765
 s    3 1.00
             7.8682724   -0.11933240861517
             1.8812885   -0.16085421161283
             0.5442493     1.1434564825515
 s    1 1.00
             0.1687144                   1
 p    3 1.00
             7.8682724   0.068999095584993
             1.8812885    0.31642397975315
             0.5442493    0.74430825237435
 p    1 1.00
             0.1687144                   1
 d    1 1.00
                   0.8                   1

40 0
 s    6 1.00
             3047.5249  0.0018347001629433
             457.36951    0.01403730124668
             103.94869   0.068842606114048
             29.210155    0.23218442062076
              9.286663    0.46794134155879
              3.163927    0.36231203217765
 s    3 1.00
             7.8682724   -0.11933240861517
             1.8812885   -0.16085421161283
             0.5442493     1.1434564825515
 s    1 1.00
             0.1687144                   1
 p    3 1.00
             7.8682724   0.068999095584993
             1.8812885    0.31642397975315
             0.5442493    0.74430825237435
 p    1 1.00
             0.1687144                   1
 d    1 1.00
                   0.8                   1

41 0
 s    3 1.00
             18.731137    0.03349459952309
             2.8253937    0.23472694665786
             0.6401217    0.81375731841339
 s    1 1.00
             0.1612778                   1

42 0
 s    6 1.00
             5484.6717   0.001831099805527
             825.23495   0.013950098518422
             188.04696    0.06844509273075
               52.9645    0.23271427528445
              16.89757    0.47019295006289
             5.7996353    0.35852086192309
 s    3 1.00
             15.539616   -0.11077750382508
             3.5999336   -0.14802630511126
             1.0137618     1.1307670390447
 s    1 1.00
             0.2700058                   1
 p    3 1.00
             15.539616   0.070874299543311
             3.5999336    0.33975279781076
             1.0137618    0.72715859531445
 p    1 1.00
             0.2700058                   1
 d    1 1.00
                   0.8                   1

43 0
 s    3 1.00
             18.731137    0.03349459952309
             2.8253937    0.23472694665786
             0.6401217    0.81375731841339
 s    1 1.00
             0.1612778                   1

[5d]
[7f]
[9g]

[MO]
 Sym= A
 Ene=               0
 Spin= Alpha
 Occup=    1.00000
   1    -0.020296197512404
   2    0.00084895400709721
   3    -0.0068434135212025
   4    -0.00036914814892613
   5    0.00012329115111787
   6    -0.0011658078210756
   7    -0.00083333268618213
   8    -0.0012282247653023
   9     0.005449257797953
  10    0.00089040005007984
  11    0.00085504639443498
  12    -0.00014175168640612
  13    0.00020540397851685
  14    -3.8719671236039e-05
  15    0.00049352999950108
  16    0.00088850696245469
  17     -0.99485918152427
  18    -0.036845274113516
  19     0.028417634399239
  20    -0.00091684802339601
  21    -0.00015988489133822
  22    0.00056930476692417
  23    0.0035348554490737
  24    0.0010522333424793
  25    0.00077660378145379
  26    -0.00077114250575044
  27    0.00029969549939513
  28    0.00034288179301151
  29    -0.0002992876124047
  30    -0.00019950001585505
  31    0.0011095456717761
  32    -0.0038748485918302
  33    -0.012652312232965
  34    0.00027085418246179
  35    -0.00093984985765166
  36    -0.00083204706869554
  37    -0.00031513511578349
  38    0.0011168364090523
  39    0.0022416144208849
  40    -0.0035391934586332
  41    -0.004144549328672
  42    0.00060759618914412
  43    -0.0011721525120697
  44    -0.00044905880275527
  45    0.00033463982858219
  46    0.00038424395628019
  47    0.00055043275364638
  48     0.000609965093296
  49    0.00028069175367017
  50    0.00054952973074827
  51    -0.00034042504456874
  52    -0.00023940208933301
  53    -2.3151677124107e-05
  54    0.0004075566338777
  55    0.0046848391790705
  56    -0.0011423813901553
  57    -0.0070701919236547
  58    0.00014150980348214
  59    1.5724210164856e-05
  60    -0.00017149090606487
  61    0.00024226776989674
  62    0.0001712867655239
  63    0.00047547082805719
  64    -0.00024701952408151
  65    2.6557151049646e-06
  66    4.1224450516037e-06
  67    9.8488033051898e-08
  68    1.4258252287046e-06
  69    -7.0985330561484e-06
  70    -2.1984411034766e-06
  71    4.4982365942937e-06
  72    1.6753439261975e-07
  73    -1.2712359340528e-05
  74    -2.4554560753308e-05
  75    -9.0562571517625e-06
  76    1.3253631859325e-07
  77    3.476570876074e-07
  78    -3.3945634904652e-07
  79    -5.7888729583079e-07
  80    5.0033070543488e-08
  81    -2.3660285052582e-06
  82    -1.2328958531647e-05
  83    -2.2430277771905e-07
  84    -1.2760061278401e-06
  85    6.6187506128716e-05
  86    -3.6413415780835e-06
  87    -3.0292433947475e-06
  88    -5.2321324310198e-06
  89    -2.4015911256292e-05
  90    6.2620762185963e-05
  91    -7.6255149185158e-06
  92    -1.5883981921601e-06
  93    2.722512368769e-06
  94    -3.6911476609758e-06
  95    7.2857000116098e-07
  96    1.0611348802386e-06
  97    -6.780108665052e-06
  98    -1.1658820118856e-05
  99    3.2216290746535e-06
 100    1.8452213626622e-05
 101    1.1464025573587e-06
 102    1.1761551816772e-05
 103    -0.00023123618891423
 104    1.6602333086923e-06
 105    7.3953897828008e-06
 106    3.373360977974e-06
 107    0.0001889796394442
 108    -0.00018121708825725
 109    -0.00013558076406522
 110    5.819581785538e-06
 111    1.7671851157584e-07
 112    -5.2654290797874e-08
 113    -1.4792883514479e-06
 114    5.3529272685093e-06
 115    3.2361991138539e-06
 116    3.2147669856313e-05
 117    -0.00023296924891241
 118    2.3826690372908e-06
 119    -3.0540405221929e-06
 120    -5.2196983363849e-06
 121    4.8073801467737e-05
 122    -1.0588563325239e-05
 123    -2.8590145765945e-05
 124    -1.5334107045141e-06
 125    2.770915608524e-06
 126    2.4217065931266e-06
 127    -5.5677366962258e-07
 128    2.1327844896113e-06
 129    5.3690812767291e-06
 130    5.204701361012e-05
 131    -0.00015168435804993
 132    -5.7446999418452e-06
 133    4.6298678412521e-06
 134    -2.1825469966972e-05
 135    0.00034494441882223
 136    -4.2480701899144e-05
 137    0.00040318179746616
 138    -9.3853905585465e-06
 139    -1.300000398798e-05
 140    -5.5144700134559e-06
 141    -4.3600788592152e-06
 142    -6.5702889292437e-06
 143    1.9293617738737e-06
 144    2.5816313744273e-05
 145    -2.5515637798575e-05
 146    -2.2017856897698e-06
 147    -5.7821121391248e-06
 148    -1.2158745508762e-05
 149    -1.4512612599405e-05
 150    2.3472779754703e-06
 151    5.8248468768552e-05
 152    6.8782908610577e-06
 153    3.6579656907579e-06
 154    2.9729965698953e-06
 155    -4.1775010454002e-06
 156    3.9084079211147e-06
 157    -1.5045420467825e-06
 158    -1.1932752995767e-05
 159    3.2730322151711e-05
 160    -5.7804424647909e-06
 161    1.2231756791438e-07
 162    1.3322988132194e-06
 163    4.7779784012378e-05
 164    -2.2317978024743e-05
 165    -9.9696033154152e-06
 166    -4.1797414601006e-06
 167    5.7592970684215e-07
 168    1.9536551544907e-07
 169    -7.3073240232568e-07
 170    -1.8653632615879e-06
 171    4.5325784504236e-07
 172    1.1786241108063e-05
 173    -2.1535310043506e-05
 174    3.8061050028327e-06
 175    2.058756543802e-07
 176    -1.0653700356595e-05
 177    2.1822648996062e-06
 178    1.5038214205792e-06
 179    2.6126324423252e-05
 180    -1.5718584454354e-06
 181    -4.5709424752042e-06
 182    -7.5981733508019e-07
 183    1.2621123139692e-06
 184    -1.5334806221475e-06
 185    3.2724726120302e-06
 186    2.8528342393941e-05
 187    -8.1686443468667e-05
 188    2.4370292233587e-06
 189    -7.3425911343529e-07
 190    -5.0856838631649e-06
 191    1.5756745320659e-06
 192    1.2655748044117e-05
 193    7.0346901026162e-05
 194    -3.2854696021019e-06
 195    -1.5997145661947e-06
 196    -2.5812725002557e-06
 197    3.3132795080691e-07
 198    -3.6834249043197e-07
 199    7.5115516342702e-06
 200    2.4905662070437e-07
 201    2.0832775644581e-06
 202    -2.0214281357431e-05
 203    1.1039853510668e-05
 204    5.879139509065e-06
 205    7.4576406969133e-07
 206    2.6161565555533e-05
 207    -9.7747026194682e-06
 208    6.3565243352171e-05
 209    -1.0484838608262e-05
 210    2.5934605786672e-05
 211    -5.8422581389956e-06
 212    -1.6910684660412e-05
 213    6.1692445987654e-07
 214    2.0290121851322e-05
 215    2.5434010149317e-06
 216    2.8394634640841e-05
 217    -1.4749837432477e-06
 218    -8.3136215089192e-06
 219    -5.3164121091795e-07
 220    9.5610385731133e-07
 221    8.0532485792485e-06
 222    8.2412188908284e-05
 223    -0.00081246152410273
 224    1.2755383175777e-05
 225    1.5817373240389e-06
 226    -1.2511229561819e-05
 227    -0.00060007728739198
 228    -0.00028985650261023
 229    0.0008842476694985
 230    -1.7547962011157e-06
 231    4.125792207631e-05
 232    2.0602432979084e-05
 233    -2.0629167095341e-05
 234    -2.1449273176569e-05
 235    1.4529900236335e-05
 236    3.7657817855774e-05
 237    0.00017692278902056
 238    1.9454660526085e-05
 239    3.3333762352656e-06
 240    -9.5519856837425e-06
 241    -0.00026821680716392
 242    -0.00031940402780321
 243    0.0014595805388351
 244    -1.016283295754e-05
 245    -6.6482664302014e-05
 246    -1.3412171045012e-05
 247    -1.7991515905333e-05
 248    8.3006571043924e-07
 249    3.2739218042733e-05
 250    -0.00029455298486116
 251    2.4755758838654e-05
 252    0.00039124834647348
 253    -0.0020518159776396
 254    -7.309889717602e-05
 255    3.8923056894312e-05
 256    -0.00021604166742939
 257    3.030347582062e-05
 258    -0.00039479677103631
 259    0.0017351652468035
 260    5.7928769512635e-05
 261    1.5475063090293e-05
 262    1.6484803169404e-05
 263    -0.00013120366369551
 264    -8.161242519641e-05
 265    8.640930945374e-05
 266    -0.00019275316583809
 267    0.00013483743299199
 268    0.00050651403483831
 269    7.4848813705661e-05
 270    0.00049961752438217
 271    -0.0066304921651396
 272    6.4299776505404e-05
 273    -0.00011130965666026
 274    -0.00012723420376523
 275    0.0015602568657796
 276    0.0027402198252525
 277    -0.0025921788921125
 278    -7.7899411850135e-05
 279    0.00017359477694372
 280    8.8521038032299e-05
 281    3.002374960016e-05