[Molden Format]
made by pyscf v[2.0.1]
[Atoms] (AU)
C   1   6     0.69100024066471     0.64692934207205    -3.48223131169301
H   2   1     2.68052439830868     1.13355088658700    -3.25784032593313
C   3   6    -0.36286361513219     0.85440132524594    -5.97030179418974
H   4   1    -2.35448549047279     0.36322488579172    -6.17995817793143
C   5   6     0.93697958957450     1.61209284601821    -8.05828437677121
H   6   1     2.82520634269342     2.40231158819155    -7.83223822317356
C   7   6    -0.04591716574067     1.43050675384137   -10.57963800872440
H   8   1    -1.93966227025444     0.63380613673234   -10.77641154630544
H   9   1     1.55630230933075    -1.92953025305990    12.99630010416247
C   10   6     0.75233899775814    -2.21270439606481    11.10705728102219
H   11   1    -0.43433408177274    -3.90944857546550    11.22216085340412
C   12   6     2.86362581178706    -2.63237380607947     9.17926416456045
H   13   1     4.39038949912609    -1.24955421540245     9.49899813497433
H   14   1     3.74629220191363    -4.48798724300892     9.47414880959024
C   15   6     2.02478325613682    -2.42177285709634     6.44560829588644
C   16   6     3.88048732735477    -3.58795445234514     4.61402886975252
C   17   6    -0.18412382258602    -1.30464291234259     5.76021113872346
C   18   6    -2.10044360464350    -0.26837831858460     7.71610340967100
C   19   6    -3.08956938670431     2.35282328359417     6.88693925039594
C   20   6    -4.37372924086464    -2.09766595989678     7.93610724222001
C   21   6    -0.83850430601230     0.06372213486173    10.33002307638377
H   22   1     0.38411922151109     1.74281358582432    10.27380136542181
H   23   1    -2.30980003007874     0.45460143924521    11.73986301809809
H   24   1     4.58527064644668    -5.38706904487420     5.36778158031719
H   25   1     5.54944938085014    -2.37631462192748     4.35398898413318
H   26   1     3.06633019150423    -3.94118377050688     2.75255466040884
H   27   1    -4.17727778763735     2.26573369139522     5.12914900961283
H   28   1    -1.52662344944051     3.68001877445626     6.59540397144508
H   29   1    -4.32916174397830     3.13643051467482     8.35225460090378
H   30   1    -5.32329548508442    -2.36691813602939     6.11583672749896
H   31   1    -5.77989366602257    -1.33896741843465     9.25748940450990
H   32   1    -3.79310905208926    -3.96389819310853     8.61386170102686
C   33   6    -1.01100794811226    -1.06331657314144     3.11929490449947
C   34   6     0.37686231036534    -0.33275864505552     1.09165013605873
H   35   1    -3.01671213906703    -1.40297922279997     2.77827895090944
C   36   6    -0.64382707979370    -0.11591880174385    -1.42063131251064
H   37   1     2.35569259782137     0.17174499283897     1.33641070251401
H   38   1    -2.63317482980319    -0.60229203511219    -1.66119700387645
C   39   6     1.17709071185639     2.16235266520763   -12.71162929579923
C   40   6     0.01149368127442     1.89967079998079   -15.19747007607967
H   41   1     3.06674924318564     2.97042403350516   -12.64854490967844
O   42   8     1.00001917973751     2.51860460578581   -17.18758625638360
H   43   1    -1.92257659968242     1.06364005135718   -15.17290072571517
[GTO]
1 0
 s    6 1.00
             3047.5249  0.0018347001629433
             457.36951    0.01403730124668
             103.94869   0.068842606114048
             29.210155    0.23218442062076
              9.286663    0.46794134155879
              3.163927    0.36231203217765
 s    3 1.00
             7.8682724   -0.11933240861517
             1.8812885   -0.16085421161283
             0.5442493     1.1434564825515
 s    1 1.00
             0.1687144                   1
 p    3 1.00
             7.8682724   0.068999095584993
             1.8812885    0.31642397975315
             0.5442493    0.74430825237435
 p    1 1.00
             0.1687144                   1
 d    1 1.00
                   0.8                   1

2 0
 s    3 1.00
             18.731137    0.03349459952309
             2.8253937    0.23472694665786
             0.6401217    0.81375731841339
 s    1 1.00
             0.1612778                   1

3 0
 s    6 1.00
             3047.5249  0.0018347001629433
             457.36951    0.01403730124668
             103.94869   0.068842606114048
             29.210155    0.23218442062076
              9.286663    0.46794134155879
              3.163927    0.36231203217765
 s    3 1.00
             7.8682724   -0.11933240861517
             1.8812885   -0.16085421161283
             0.5442493     1.1434564825515
 s    1 1.00
             0.1687144                   1
 p    3 1.00
             7.8682724   0.068999095584993
             1.8812885    0.31642397975315
             0.5442493    0.74430825237435
 p    1 1.00
             0.1687144                   1
 d    1 1.00
                   0.8                   1

4 0
 s    3 1.00
             18.731137    0.03349459952309
             2.8253937    0.23472694665786
             0.6401217    0.81375731841339
 s    1 1.00
             0.1612778                   1

5 0
 s    6 1.00
             3047.5249  0.0018347001629433
             457.36951    0.01403730124668
             103.94869   0.068842606114048
             29.210155    0.23218442062076
              9.286663    0.46794134155879
              3.163927    0.36231203217765
 s    3 1.00
             7.8682724   -0.11933240861517
             1.8812885   -0.16085421161283
             0.5442493     1.1434564825515
 s    1 1.00
             0.1687144                   1
 p    3 1.00
             7.8682724   0.068999095584993
             1.8812885    0.31642397975315
             0.5442493    0.74430825237435
 p    1 1.00
             0.1687144                   1
 d    1 1.00
                   0.8                   1

6 0
 s    3 1.00
             18.731137    0.03349459952309
             2.8253937    0.23472694665786
             0.6401217    0.81375731841339
 s    1 1.00
             0.1612778                   1

7 0
 s    6 1.00
             3047.5249  0.0018347001629433
             457.36951    0.01403730124668
             103.94869   0.068842606114048
             29.210155    0.23218442062076
              9.286663    0.46794134155879
              3.163927    0.36231203217765
 s    3 1.00
             7.8682724   -0.11933240861517
             1.8812885   -0.16085421161283
             0.5442493     1.1434564825515
 s    1 1.00
             0.1687144                   1
 p    3 1.00
             7.8682724   0.068999095584993
             1.8812885    0.31642397975315
             0.5442493    0.74430825237435
 p    1 1.00
             0.1687144                   1
 d    1 1.00
                   0.8                   1

8 0
 s    3 1.00
             18.731137    0.03349459952309
             2.8253937    0.23472694665786
             0.6401217    0.81375731841339
 s    1 1.00
             0.1612778                   1

9 0
 s    3 1.00
             18.731137    0.03349459952309
             2.8253937    0.23472694665786
             0.6401217    0.81375731841339
 s    1 1.00
             0.1612778                   1

10 0
 s    6 1.00
             3047.5249  0.0018347001629433
             457.36951    0.01403730124668
             103.94869   0.068842606114048
             29.210155    0.23218442062076
              9.286663    0.46794134155879
              3.163927    0.36231203217765
 s    3 1.00
             7.8682724   -0.11933240861517
             1.8812885   -0.16085421161283
             0.5442493     1.1434564825515
 s    1 1.00
             0.1687144                   1
 p    3 1.00
             7.8682724   0.068999095584993
             1.8812885    0.31642397975315
             0.5442493    0.74430825237435
 p    1 1.00
             0.1687144                   1
 d    1 1.00
                   0.8                   1

11 0
 s    3 1.00
             18.731137    0.03349459952309
             2.8253937    0.23472694665786
             0.6401217    0.81375731841339
 s    1 1.00
             0.1612778                   1

12 0
 s    6 1.00
             3047.5249  0.0018347001629433
             457.36951    0.01403730124668
             103.94869   0.068842606114048
             29.210155    0.23218442062076
              9.286663    0.46794134155879
              3.163927    0.36231203217765
 s    3 1.00
             7.8682724   -0.11933240861517
             1.8812885   -0.16085421161283
             0.5442493     1.1434564825515
 s    1 1.00
             0.1687144                   1
 p    3 1.00
             7.8682724   0.068999095584993
             1.8812885    0.31642397975315
             0.5442493    0.74430825237435
 p    1 1.00
             0.1687144                   1
 d    1 1.00
                   0.8                   1

13 0
 s    3 1.00
             18.731137    0.03349459952309
             2.8253937    0.23472694665786
             0.6401217    0.81375731841339
 s    1 1.00
             0.1612778                   1

14 0
 s    3 1.00
             18.731137    0.03349459952309
             2.8253937    0.23472694665786
             0.6401217    0.81375731841339
 s    1 1.00
             0.1612778                   1

15 0
 s    6 1.00
             3047.5249  0.0018347001629433
             457.36951    0.01403730124668
             103.94869   0.068842606114048
             29.210155    0.23218442062076
              9.286663    0.46794134155879
              3.163927    0.36231203217765
 s    3 1.00
             7.8682724   -0.11933240861517
             1.8812885   -0.16085421161283
             0.5442493     1.1434564825515
 s    1 1.00
             0.1687144                   1
 p    3 1.00
             7.8682724   0.068999095584993
             1.8812885    0.31642397975315
             0.5442493    0.74430825237435
 p    1 1.00
             0.1687144                   1
 d    1 1.00
                   0.8                   1

16 0
 s    6 1.00
             3047.5249  0.0018347001629433
             457.36951    0.01403730124668
             103.94869   0.068842606114048
             29.210155    0.23218442062076
              9.286663    0.46794134155879
              3.163927    0.36231203217765
 s    3 1.00
             7.8682724   -0.11933240861517
             1.8812885   -0.16085421161283
             0.5442493     1.1434564825515
 s    1 1.00
             0.1687144                   1
 p    3 1.00
             7.8682724   0.068999095584993
             1.8812885    0.31642397975315
             0.5442493    0.74430825237435
 p    1 1.00
             0.1687144                   1
 d    1 1.00
                   0.8                   1

17 0
 s    6 1.00
             3047.5249  0.0018347001629433
             457.36951    0.01403730124668
             103.94869   0.068842606114048
             29.210155    0.23218442062076
              9.286663    0.46794134155879
              3.163927    0.36231203217765
 s    3 1.00
             7.8682724   -0.11933240861517
             1.8812885   -0.16085421161283
             0.5442493     1.1434564825515
 s    1 1.00
             0.1687144                   1
 p    3 1.00
             7.8682724   0.068999095584993
             1.8812885    0.31642397975315
             0.5442493    0.74430825237435
 p    1 1.00
             0.1687144                   1
 d    1 1.00
                   0.8                   1

18 0
 s    6 1.00
             3047.5249  0.0018347001629433
             457.36951    0.01403730124668
             103.94869   0.068842606114048
             29.210155    0.23218442062076
              9.286663    0.46794134155879
              3.163927    0.36231203217765
 s    3 1.00
             7.8682724   -0.11933240861517
             1.8812885   -0.16085421161283
             0.5442493     1.1434564825515
 s    1 1.00
             0.1687144                   1
 p    3 1.00
             7.8682724   0.068999095584993
             1.8812885    0.31642397975315
             0.5442493    0.74430825237435
 p    1 1.00
             0.1687144                   1
 d    1 1.00
                   0.8                   1

19 0
 s    6 1.00
             3047.5249  0.0018347001629433
             457.36951    0.01403730124668
             103.94869   0.068842606114048
             29.210155    0.23218442062076
              9.286663    0.46794134155879
              3.163927    0.36231203217765
 s    3 1.00
             7.8682724   -0.11933240861517
             1.8812885   -0.16085421161283
             0.5442493     1.1434564825515
 s    1 1.00
             0.1687144                   1
 p    3 1.00
             7.8682724   0.068999095584993
             1.8812885    0.31642397975315
             0.5442493    0.74430825237435
 p    1 1.00
             0.1687144                   1
 d    1 1.00
                   0.8                   1

20 0
 s    6 1.00
             3047.5249  0.0018347001629433
             457.36951    0.01403730124668
             103.94869   0.068842606114048
             29.210155    0.23218442062076
              9.286663    0.46794134155879
              3.163927    0.36231203217765
 s    3 1.00
             7.8682724   -0.11933240861517
             1.8812885   -0.16085421161283
             0.5442493     1.1434564825515
 s    1 1.00
             0.1687144                   1
 p    3 1.00
             7.8682724   0.068999095584993
             1.8812885    0.31642397975315
             0.5442493    0.74430825237435
 p    1 1.00
             0.1687144                   1
 d    1 1.00
                   0.8                   1

21 0
 s    6 1.00
             3047.5249  0.0018347001629433
             457.36951    0.01403730124668
             103.94869   0.068842606114048
             29.210155    0.23218442062076
              9.286663    0.46794134155879
              3.163927    0.36231203217765
 s    3 1.00
             7.8682724   -0.11933240861517
             1.8812885   -0.16085421161283
             0.5442493     1.1434564825515
 s    1 1.00
             0.1687144                   1
 p    3 1.00
             7.8682724   0.068999095584993
             1.8812885    0.31642397975315
             0.5442493    0.74430825237435
 p    1 1.00
             0.1687144                   1
 d    1 1.00
                   0.8                   1

22 0
 s    3 1.00
             18.731137    0.03349459952309
             2.8253937    0.23472694665786
             0.6401217    0.81375731841339
 s    1 1.00
             0.1612778                   1

23 0
 s    3 1.00
             18.731137    0.03349459952309
             2.8253937    0.23472694665786
             0.6401217    0.81375731841339
 s    1 1.00
             0.1612778                   1

24 0
 s    3 1.00
             18.731137    0.03349459952309
             2.8253937    0.23472694665786
             0.6401217    0.81375731841339
 s    1 1.00
             0.1612778                   1

25 0
 s    3 1.00
             18.731137    0.03349459952309
             2.8253937    0.23472694665786
             0.6401217    0.81375731841339
 s    1 1.00
             0.1612778                   1

26 0
 s    3 1.00
             18.731137    0.03349459952309
             2.8253937    0.23472694665786
             0.6401217    0.81375731841339
 s    1 1.00
             0.1612778                   1

27 0
 s    3 1.00
             18.731137    0.03349459952309
             2.8253937    0.23472694665786
             0.6401217    0.81375731841339
 s    1 1.00
             0.1612778                   1

28 0
 s    3 1.00
             18.731137    0.03349459952309
             2.8253937    0.23472694665786
             0.6401217    0.81375731841339
 s    1 1.00
             0.1612778                   1

29 0
 s    3 1.00
             18.731137    0.03349459952309
             2.8253937    0.23472694665786
             0.6401217    0.81375731841339
 s    1 1.00
             0.1612778                   1

30 0
 s    3 1.00
             18.731137    0.03349459952309
             2.8253937    0.23472694665786
             0.6401217    0.81375731841339
 s    1 1.00
             0.1612778                   1

31 0
 s    3 1.00
             18.731137    0.03349459952309
             2.8253937    0.23472694665786
             0.6401217    0.81375731841339
 s    1 1.00
             0.1612778                   1

32 0
 s    3 1.00
             18.731137    0.03349459952309
             2.8253937    0.23472694665786
             0.6401217    0.81375731841339
 s    1 1.00
             0.1612778                   1

33 0
 s    6 1.00
             3047.5249  0.0018347001629433
             457.36951    0.01403730124668
             103.94869   0.068842606114048
             29.210155    0.23218442062076
              9.286663    0.46794134155879
              3.163927    0.36231203217765
 s    3 1.00
             7.8682724   -0.11933240861517
             1.8812885   -0.16085421161283
             0.5442493     1.1434564825515
 s    1 1.00
             0.1687144                   1
 p    3 1.00
             7.8682724   0.068999095584993
             1.8812885    0.31642397975315
             0.5442493    0.74430825237435
 p    1 1.00
             0.1687144                   1
 d    1 1.00
                   0.8                   1

34 0
 s    6 1.00
             3047.5249  0.0018347001629433
             457.36951    0.01403730124668
             103.94869   0.068842606114048
             29.210155    0.23218442062076
              9.286663    0.46794134155879
              3.163927    0.36231203217765
 s    3 1.00
             7.8682724   -0.11933240861517
             1.8812885   -0.16085421161283
             0.5442493     1.1434564825515
 s    1 1.00
             0.1687144                   1
 p    3 1.00
             7.8682724   0.068999095584993
             1.8812885    0.31642397975315
             0.5442493    0.74430825237435
 p    1 1.00
             0.1687144                   1
 d    1 1.00
                   0.8                   1

35 0
 s    3 1.00
             18.731137    0.03349459952309
             2.8253937    0.23472694665786
             0.6401217    0.81375731841339
 s    1 1.00
             0.1612778                   1

36 0
 s    6 1.00
             3047.5249  0.0018347001629433
             457.36951    0.01403730124668
             103.94869   0.068842606114048
             29.210155    0.23218442062076
              9.286663    0.46794134155879
              3.163927    0.36231203217765
 s    3 1.00
             7.8682724   -0.11933240861517
             1.8812885   -0.16085421161283
             0.5442493     1.1434564825515
 s    1 1.00
             0.1687144                   1
 p    3 1.00
             7.8682724   0.068999095584993
             1.8812885    0.31642397975315
             0.5442493    0.74430825237435
 p    1 1.00
             0.1687144                   1
 d    1 1.00
                   0.8                   1

37 0
 s    3 1.00
             18.731137    0.03349459952309
             2.8253937    0.23472694665786
             0.6401217    0.81375731841339
 s    1 1.00
             0.1612778                   1

38 0
 s    3 1.00
             18.731137    0.03349459952309
             2.8253937    0.23472694665786
             0.6401217    0.81375731841339
 s    1 1.00
             0.1612778                   1

39 0
 s    6 1.00
             3047.5249  0.0018347001629433
             457.36951    0.01403730124668
             103.94869   0.068842606114048
             29.210155    0.23218442062076
              9.286663    0.46794134155879
              3.163927    0.36231203217765
 s    3 1.00
             7.8682724   -0.11933240861517
             1.8812885   -0.16085421161283
             0.5442493     1.1434564825515
 s    1 1.00
             0.1687144                   1
 p    3 1.00
             7.8682724   0.068999095584993
             1.8812885    0.31642397975315
             0.5442493    0.74430825237435
 p    1 1.00
             0.1687144                   1
 d    1 1.00
                   0.8                   1

40 0
 s    6 1.00
             3047.5249  0.0018347001629433
             457.36951    0.01403730124668
             103.94869   0.068842606114048
             29.210155    0.23218442062076
              9.286663    0.46794134155879
              3.163927    0.36231203217765
 s    3 1.00
             7.8682724   -0.11933240861517
             1.8812885   -0.16085421161283
             0.5442493     1.1434564825515
 s    1 1.00
             0.1687144                   1
 p    3 1.00
             7.8682724   0.068999095584993
             1.8812885    0.31642397975315
             0.5442493    0.74430825237435
 p    1 1.00
             0.1687144                   1
 d    1 1.00
                   0.8                   1

41 0
 s    3 1.00
             18.731137    0.03349459952309
             2.8253937    0.23472694665786
             0.6401217    0.81375731841339
 s    1 1.00
             0.1612778                   1

42 0
 s    6 1.00
             5484.6717   0.001831099805527
             825.23495   0.013950098518422
             188.04696    0.06844509273075
               52.9645    0.23271427528445
              16.89757    0.47019295006289
             5.7996353    0.35852086192309
 s    3 1.00
             15.539616   -0.11077750382508
             3.5999336   -0.14802630511126
             1.0137618     1.1307670390447
 s    1 1.00
             0.2700058                   1
 p    3 1.00
             15.539616   0.070874299543311
             3.5999336    0.33975279781076
             1.0137618    0.72715859531445
 p    1 1.00
             0.2700058                   1
 d    1 1.00
                   0.8                   1

43 0
 s    3 1.00
             18.731137    0.03349459952309
             2.8253937    0.23472694665786
             0.6401217    0.81375731841339
 s    1 1.00
             0.1612778                   1

[5d]
[7f]
[9g]

[MO]
 Sym= A
 Ene=               0
 Spin= Alpha
 Occup=    1.00000
   1    7.6692663506882e-06
   2    -6.3339332406804e-05
   3    0.00040799388921686
   4    -8.3332618481958e-06
   5    -2.4087746372016e-05
   6    1.2120227631024e-05
   7    5.7839323667547e-05
   8    0.00033605266152355
   9    -0.0012965256160348
  10    2.0489184408233e-05
  11    4.9343392286291e-05
  12    4.9852853749632e-06
  13    1.4631620133105e-05
  14    -2.1339330711097e-06
  15    -5.996321721085e-05
  16    0.00011666780466452
  17    0.00042250535617845
  18    -0.00029337545054782
  19    0.00049686860039723
  20    5.0983740812865e-05
  21    -7.8572000389902e-06
  22    0.00020570944943233
  23    -0.00057314300926493
  24    8.4517810623552e-05
  25    -0.0012650837197404
  26    -6.8513151796836e-05
  27    2.7196419551994e-06
  28    1.1943812281723e-05
  29    9.9370825873297e-05
  30    9.9373863380269e-05
  31    -0.00013224062910963
  32    -0.00054232591109997
  33     0.013661123186317
  34    -0.0010307138758276
  35    0.0072270368214722
  36    0.00040030398882738
  37    6.1770287292391e-05
  38    0.0011334406708095
  39    0.0002291606729299
  40    0.00045293185947294
  41    -0.0040216010497477
  42    -0.00096907899601894
  43    -0.00086188701491053
  44    -0.00019182862125996
  45    -0.00020508845151796
  46    -9.630290240115e-05
  47    -0.000416437933917
  48    -0.00067568573802086
  49      0.99500814455201
  50      0.03605668562539
  51    -0.027928200187427
  52    0.00064869518026799
  53    0.00027348399013693
  54    -8.8220800861561e-05
  55    -0.0031281544968464
  56    -0.0012903036453337
  57    -0.00054610958636715
  58    0.00086203545439449
  59    -0.00029194262919869
  60    -0.00030124624961911
  61    0.0001944407549326
  62    0.00025509976776353
  63    -0.0011173080863664
  64    0.0038505977316844
  65    -5.4458268953848e-07
  66    -6.8322825489682e-07
  67    -3.4835561928663e-08
  68    -7.6241476186086e-07
  69    3.4371532940635e-06
  70    3.0259325966303e-07
  71    -7.4802701029852e-07
  72    1.6017586391166e-07
  73    2.0637021888879e-06
  74    3.3738379456455e-06
  75    9.8705175647852e-07
  76    -3.6391783588284e-08
  77    -1.3551753559521e-07
  78    1.2197693057563e-07
  79    1.3600089363144e-07
  80    -1.0813985611342e-07
  81    4.8412225734112e-07
  82    8.412959874043e-07
  83    1.2149855979982e-08
  84    -6.509041485864e-07
  85    -2.2400209529346e-05
  86    1.2545705992236e-06
  87    2.6605620925855e-07
  88    1.6090575451169e-06
  89    5.9812060086753e-06
  90    -9.6723875658916e-06
  91    4.5668172292397e-06
  92    4.1138827670887e-07
  93    -5.360274425308e-07
  94    6.1591908919942e-07
  95    8.4089042657909e-09
  96    -2.4712720801475e-07
  97    1.2772404827889e-06
  98    1.9219272268895e-06
  99    -1.5099888118253e-07
 100    -3.0331919206037e-06
 101    5.2104323636695e-08
 102    -5.2255799463243e-07
 103    1.3930117790403e-05
 104    4.5501758396707e-07
 105    -2.0719160750919e-06
 106    -1.069037767848e-06
 107    -3.7920244681799e-05
 108    3.2732543086913e-05
 109    5.7603426975271e-05
 110    -1.3798112188893e-06
 111    -5.6063357353609e-07
 112    3.5311605053686e-07
 113    1.9115011539857e-07
 114    -9.053429028438e-07
 115    -8.8131303382653e-07
 116    -8.4430580098776e-06
 117    6.3603545836454e-05
 118    -7.3215267322002e-07
 119    2.8924000014764e-08
 120    2.3371348427126e-06
 121    -1.7799569307697e-05
 122    1.2525876688596e-05
 123    7.7316556106713e-06
 124    -8.1958278722689e-08
 125    -8.1694473925549e-07
 126    1.7649835075428e-07
 127    6.4891369153932e-07
 128    -6.4467778863097e-07
 129    -1.2933879246042e-06
 130    -1.3084853603568e-05
 131    8.8956536805706e-05
 132    2.4021802758302e-07
 133    -1.20075337906e-07
 134    5.7333360475221e-06
 135    -4.0202969139009e-05
 136    -2.5230109396086e-06
 137    -0.00014221262511605
 138    3.6117747689245e-06
 139    2.7449800949365e-06
 140     2.45167226396e-07
 141    6.2967035450308e-07
 142    4.8747101540607e-07
 143    -9.8449325030742e-07
 144    -9.105169373324e-06
 145    4.0248579205769e-05
 146    1.093134254796e-06
 147    7.0719035532359e-07
 148    2.138206331241e-06
 149    1.7558639553202e-05
 150    -7.7828604991149e-06
 151    -2.2573314954052e-05
 152    -1.6288319575125e-06
 153    -1.1913290771401e-06
 154    -3.3954481231352e-07
 155    1.1268955512453e-06
 156    -1.5492299295616e-06
 157    2.9112351761146e-07
 158    2.370937509785e-06
 159    -8.3895798397662e-06
 160    1.0506451621811e-06
 161    3.7710387371219e-07
 162    -6.6071743765505e-07
 163    -1.099542141521e-05
 164    4.0296609537085e-06
 165    5.1313677293957e-06
 166    1.1576438346059e-06
 167    -5.40957290312e-07
 168    -2.0283517578492e-07
 169    1.303978821971e-07
 170    4.5312222292971e-07
 171    1.2576316067559e-07
 172    -2.935826852475e-07
 173    -9.6081575762817e-06
 174    -2.1653402311752e-06
 175    -5.5632303281276e-07
 176    1.7944920904556e-06
 177    5.1132309828008e-06
 178    2.6601592030316e-06
 179    6.9964189961561e-07
 180    3.548245228417e-08
 181    7.0669561128511e-07
 182    3.3380670914479e-07
 183    -4.8113886573326e-07
 184    4.8299420467176e-07
 185    -5.9908118064736e-07
 186    -5.8628116478969e-06
 187    1.393067007742e-05
 188    -5.1652525042893e-07
 189    1.3515221477625e-07
 190    1.6497070832215e-06
 191    9.4618145713302e-07
 192    -6.615798549792e-07
 193    -1.2599085829171e-05
 194    5.8624112146087e-07
 195    1.9816701872762e-07
 196    5.5262841351674e-07
 197    1.6495156826467e-07
 198    -1.308162778724e-07
 199    -1.3613109950078e-06
 200    -1.6782517457024e-06
 201    -1.5106107449938e-07
 202    4.9348251026154e-06
 203    -1.934930201847e-06
 204    2.2036449254364e-06
 205    -1.1090326381024e-06
 206    -6.2965596551052e-06
 207    -1.1501530184893e-07
 208    -8.8108118460481e-06
 209    2.1385983974452e-06
 210    -2.9930832762818e-06
 211    1.5664327119837e-06
 212    4.0939624095524e-06
 213    -3.1715087604494e-07
 214    -4.4870014298491e-06
 215    -2.0307976608907e-06
 216    1.1842355501836e-05
 217    1.014622300881e-06
 218    3.5328534522025e-06
 219    5.7525337686351e-07
 220    9.8384242018241e-07
 221    -2.4988806770184e-06
 222    -2.1306595493305e-05
 223    7.0584326607412e-05
 224    4.0958538132177e-06
 225    -1.0838720810817e-06
 226    5.3832548762434e-06
 227    2.1213694351676e-05
 228    4.7644514061178e-05
 229    -0.00021312755737143
 230    4.6898824468109e-07
 231    -8.8994842525887e-06
 232    -3.5736876592322e-06
 233    4.8891751426511e-06
 234    4.2713262027736e-06
 235    -1.0760654059632e-06
 236    -2.2714040881435e-05
 237    -0.00010664623921943
 238    -2.1757298045102e-06
 239    -3.7746675590574e-06
 240    1.7231647095049e-05
 241    -3.0975599089778e-06
 242    3.1832143087945e-05
 243    -0.00014067972447717
 244    -5.1536481889815e-07
 245    1.456694703711e-05
 246    9.9937589361937e-07
 247    7.022555397284e-06
 248    -1.0914500906034e-07
 249    -6.613531589645e-06
 250    -7.5970624379244e-06
 251    -6.8596152629091e-06
 252    -4.2460049161672e-05
 253    0.00069997745074699
 254    -1.0517033790237e-05
 255    1.6003145235092e-06
 256    2.0856894570376e-06
 257    0.00045338589121735
 258    0.00016826530006958
 259    -0.00041269271662578
 260    3.9451406129631e-06
 261    -2.7624696905484e-05
 262    -9.3766689089224e-06
 263    1.5486101516614e-05
 264    1.0948431226583e-05
 265    -7.9663047346789e-06
 266    4.166466034666e-05
 267    -1.079493290227e-05
 268    0.00021888334015634
 269    0.00020528192482868
 270    -0.0018560810165536
 271    0.0085833433741099
 272    0.00084635182846044
 273    0.00050476915566898
 274    -0.0014652112732377
 275    -0.00027537528185843
 276    -0.00047173945490266
 277    0.0037054047624461
 278    -0.00064302176996101
 279    0.00097304798320206
 280    0.0005730282948914
 281    -0.00024404292590949