[Molden Format]
made by pyscf v[2.0.1]
[Atoms] (AU)
C   1   6     0.69100024066471     0.64692934207205    -3.48223131169301
H   2   1     2.68052439830868     1.13355088658700    -3.25784032593313
C   3   6    -0.36286361513219     0.85440132524594    -5.97030179418974
H   4   1    -2.35448549047279     0.36322488579172    -6.17995817793143
C   5   6     0.93697958957450     1.61209284601821    -8.05828437677121
H   6   1     0.85962833397368     3.59050820045091    -8.62470494839578
C   7   6     2.42635389771936    -0.06497183323565    -9.58324401854610
H   8   1     2.48676726707897    -2.04132781761705    -8.99156043119802
H   9   1     1.55630230933075    -1.92953025305990    12.99630010416247
C   10   6     0.75233899775814    -2.21270439606481    11.10705728102219
H   11   1    -0.43433408177274    -3.90944857546550    11.22216085340412
C   12   6     2.86362581178706    -2.63237380607947     9.17926416456045
H   13   1     4.39038949912609    -1.24955421540245     9.49899813497433
H   14   1     3.74629220191363    -4.48798724300892     9.47414880959024
C   15   6     2.02478325613682    -2.42177285709634     6.44560829588644
C   16   6     3.88048732735477    -3.58795445234514     4.61402886975252
C   17   6    -0.18412382258602    -1.30464291234259     5.76021113872346
C   18   6    -2.10044360464350    -0.26837831858460     7.71610340967100
C   19   6    -3.08956938670431     2.35282328359417     6.88693925039594
C   20   6    -4.37372924086464    -2.09766595989678     7.93610724222001
C   21   6    -0.83850430601230     0.06372213486173    10.33002307638377
H   22   1     0.38411922151109     1.74281358582432    10.27380136542181
H   23   1    -2.30980003007874     0.45460143924521    11.73986301809809
H   24   1     4.58527064644668    -5.38706904487420     5.36778158031719
H   25   1     5.54944938085014    -2.37631462192748     4.35398898413318
H   26   1     3.06633019150423    -3.94118377050688     2.75255466040884
H   27   1    -4.17727778763735     2.26573369139522     5.12914900961283
H   28   1    -1.52662344944051     3.68001877445626     6.59540397144508
H   29   1    -4.32916174397830     3.13643051467482     8.35225460090378
H   30   1    -5.32329548508442    -2.36691813602939     6.11583672749896
H   31   1    -5.77989366602257    -1.33896741843465     9.25748940450990
H   32   1    -3.79310905208926    -3.96389819310853     8.61386170102686
C   33   6    -1.01100794811226    -1.06331657314144     3.11929490449947
C   34   6     0.37686231036534    -0.33275864505552     1.09165013605873
H   35   1    -3.01671213906703    -1.40297922279997     2.77827895090944
C   36   6    -0.64382707979370    -0.11591880174385    -1.42063131251064
H   37   1     2.35569259782137     0.17174499283897     1.33641070251401
H   38   1    -2.63317482980319    -0.60229203511219    -1.66119700387645
C   39   6     3.74832505967432     0.60333842975764   -11.67668310140841
C   40   6     5.21001738076888    -1.24955999097241   -13.10400422335708
H   41   1     3.76814643119893     2.53960520723023   -12.36823673003836
O   42   8     6.43815552067501    -0.78092818090474   -14.99949494178040
H   43   1     5.13629360998863    -3.20740752771493   -12.32839043702936
[GTO]
1 0
 s    6 1.00
             3047.5249  0.0018347001629433
             457.36951    0.01403730124668
             103.94869   0.068842606114048
             29.210155    0.23218442062076
              9.286663    0.46794134155879
              3.163927    0.36231203217765
 s    3 1.00
             7.8682724   -0.11933240861517
             1.8812885   -0.16085421161283
             0.5442493     1.1434564825515
 s    1 1.00
             0.1687144                   1
 p    3 1.00
             7.8682724   0.068999095584993
             1.8812885    0.31642397975315
             0.5442493    0.74430825237435
 p    1 1.00
             0.1687144                   1
 d    1 1.00
                   0.8                   1

2 0
 s    3 1.00
             18.731137    0.03349459952309
             2.8253937    0.23472694665786
             0.6401217    0.81375731841339
 s    1 1.00
             0.1612778                   1

3 0
 s    6 1.00
             3047.5249  0.0018347001629433
             457.36951    0.01403730124668
             103.94869   0.068842606114048
             29.210155    0.23218442062076
              9.286663    0.46794134155879
              3.163927    0.36231203217765
 s    3 1.00
             7.8682724   -0.11933240861517
             1.8812885   -0.16085421161283
             0.5442493     1.1434564825515
 s    1 1.00
             0.1687144                   1
 p    3 1.00
             7.8682724   0.068999095584993
             1.8812885    0.31642397975315
             0.5442493    0.74430825237435
 p    1 1.00
             0.1687144                   1
 d    1 1.00
                   0.8                   1

4 0
 s    3 1.00
             18.731137    0.03349459952309
             2.8253937    0.23472694665786
             0.6401217    0.81375731841339
 s    1 1.00
             0.1612778                   1

5 0
 s    6 1.00
             3047.5249  0.0018347001629433
             457.36951    0.01403730124668
             103.94869   0.068842606114048
             29.210155    0.23218442062076
              9.286663    0.46794134155879
              3.163927    0.36231203217765
 s    3 1.00
             7.8682724   -0.11933240861517
             1.8812885   -0.16085421161283
             0.5442493     1.1434564825515
 s    1 1.00
             0.1687144                   1
 p    3 1.00
             7.8682724   0.068999095584993
             1.8812885    0.31642397975315
             0.5442493    0.74430825237435
 p    1 1.00
             0.1687144                   1
 d    1 1.00
                   0.8                   1

6 0
 s    3 1.00
             18.731137    0.03349459952309
             2.8253937    0.23472694665786
             0.6401217    0.81375731841339
 s    1 1.00
             0.1612778                   1

7 0
 s    6 1.00
             3047.5249  0.0018347001629433
             457.36951    0.01403730124668
             103.94869   0.068842606114048
             29.210155    0.23218442062076
              9.286663    0.46794134155879
              3.163927    0.36231203217765
 s    3 1.00
             7.8682724   -0.11933240861517
             1.8812885   -0.16085421161283
             0.5442493     1.1434564825515
 s    1 1.00
             0.1687144                   1
 p    3 1.00
             7.8682724   0.068999095584993
             1.8812885    0.31642397975315
             0.5442493    0.74430825237435
 p    1 1.00
             0.1687144                   1
 d    1 1.00
                   0.8                   1

8 0
 s    3 1.00
             18.731137    0.03349459952309
             2.8253937    0.23472694665786
             0.6401217    0.81375731841339
 s    1 1.00
             0.1612778                   1

9 0
 s    3 1.00
             18.731137    0.03349459952309
             2.8253937    0.23472694665786
             0.6401217    0.81375731841339
 s    1 1.00
             0.1612778                   1

10 0
 s    6 1.00
             3047.5249  0.0018347001629433
             457.36951    0.01403730124668
             103.94869   0.068842606114048
             29.210155    0.23218442062076
              9.286663    0.46794134155879
              3.163927    0.36231203217765
 s    3 1.00
             7.8682724   -0.11933240861517
             1.8812885   -0.16085421161283
             0.5442493     1.1434564825515
 s    1 1.00
             0.1687144                   1
 p    3 1.00
             7.8682724   0.068999095584993
             1.8812885    0.31642397975315
             0.5442493    0.74430825237435
 p    1 1.00
             0.1687144                   1
 d    1 1.00
                   0.8                   1

11 0
 s    3 1.00
             18.731137    0.03349459952309
             2.8253937    0.23472694665786
             0.6401217    0.81375731841339
 s    1 1.00
             0.1612778                   1

12 0
 s    6 1.00
             3047.5249  0.0018347001629433
             457.36951    0.01403730124668
             103.94869   0.068842606114048
             29.210155    0.23218442062076
              9.286663    0.46794134155879
              3.163927    0.36231203217765
 s    3 1.00
             7.8682724   -0.11933240861517
             1.8812885   -0.16085421161283
             0.5442493     1.1434564825515
 s    1 1.00
             0.1687144                   1
 p    3 1.00
             7.8682724   0.068999095584993
             1.8812885    0.31642397975315
             0.5442493    0.74430825237435
 p    1 1.00
             0.1687144                   1
 d    1 1.00
                   0.8                   1

13 0
 s    3 1.00
             18.731137    0.03349459952309
             2.8253937    0.23472694665786
             0.6401217    0.81375731841339
 s    1 1.00
             0.1612778                   1

14 0
 s    3 1.00
             18.731137    0.03349459952309
             2.8253937    0.23472694665786
             0.6401217    0.81375731841339
 s    1 1.00
             0.1612778                   1

15 0
 s    6 1.00
             3047.5249  0.0018347001629433
             457.36951    0.01403730124668
             103.94869   0.068842606114048
             29.210155    0.23218442062076
              9.286663    0.46794134155879
              3.163927    0.36231203217765
 s    3 1.00
             7.8682724   -0.11933240861517
             1.8812885   -0.16085421161283
             0.5442493     1.1434564825515
 s    1 1.00
             0.1687144                   1
 p    3 1.00
             7.8682724   0.068999095584993
             1.8812885    0.31642397975315
             0.5442493    0.74430825237435
 p    1 1.00
             0.1687144                   1
 d    1 1.00
                   0.8                   1

16 0
 s    6 1.00
             3047.5249  0.0018347001629433
             457.36951    0.01403730124668
             103.94869   0.068842606114048
             29.210155    0.23218442062076
              9.286663    0.46794134155879
              3.163927    0.36231203217765
 s    3 1.00
             7.8682724   -0.11933240861517
             1.8812885   -0.16085421161283
             0.5442493     1.1434564825515
 s    1 1.00
             0.1687144                   1
 p    3 1.00
             7.8682724   0.068999095584993
             1.8812885    0.31642397975315
             0.5442493    0.74430825237435
 p    1 1.00
             0.1687144                   1
 d    1 1.00
                   0.8                   1

17 0
 s    6 1.00
             3047.5249  0.0018347001629433
             457.36951    0.01403730124668
             103.94869   0.068842606114048
             29.210155    0.23218442062076
              9.286663    0.46794134155879
              3.163927    0.36231203217765
 s    3 1.00
             7.8682724   -0.11933240861517
             1.8812885   -0.16085421161283
             0.5442493     1.1434564825515
 s    1 1.00
             0.1687144                   1
 p    3 1.00
             7.8682724   0.068999095584993
             1.8812885    0.31642397975315
             0.5442493    0.74430825237435
 p    1 1.00
             0.1687144                   1
 d    1 1.00
                   0.8                   1

18 0
 s    6 1.00
             3047.5249  0.0018347001629433
             457.36951    0.01403730124668
             103.94869   0.068842606114048
             29.210155    0.23218442062076
              9.286663    0.46794134155879
              3.163927    0.36231203217765
 s    3 1.00
             7.8682724   -0.11933240861517
             1.8812885   -0.16085421161283
             0.5442493     1.1434564825515
 s    1 1.00
             0.1687144                   1
 p    3 1.00
             7.8682724   0.068999095584993
             1.8812885    0.31642397975315
             0.5442493    0.74430825237435
 p    1 1.00
             0.1687144                   1
 d    1 1.00
                   0.8                   1

19 0
 s    6 1.00
             3047.5249  0.0018347001629433
             457.36951    0.01403730124668
             103.94869   0.068842606114048
             29.210155    0.23218442062076
              9.286663    0.46794134155879
              3.163927    0.36231203217765
 s    3 1.00
             7.8682724   -0.11933240861517
             1.8812885   -0.16085421161283
             0.5442493     1.1434564825515
 s    1 1.00
             0.1687144                   1
 p    3 1.00
             7.8682724   0.068999095584993
             1.8812885    0.31642397975315
             0.5442493    0.74430825237435
 p    1 1.00
             0.1687144                   1
 d    1 1.00
                   0.8                   1

20 0
 s    6 1.00
             3047.5249  0.0018347001629433
             457.36951    0.01403730124668
             103.94869   0.068842606114048
             29.210155    0.23218442062076
              9.286663    0.46794134155879
              3.163927    0.36231203217765
 s    3 1.00
             7.8682724   -0.11933240861517
             1.8812885   -0.16085421161283
             0.5442493     1.1434564825515
 s    1 1.00
             0.1687144                   1
 p    3 1.00
             7.8682724   0.068999095584993
             1.8812885    0.31642397975315
             0.5442493    0.74430825237435
 p    1 1.00
             0.1687144                   1
 d    1 1.00
                   0.8                   1

21 0
 s    6 1.00
             3047.5249  0.0018347001629433
             457.36951    0.01403730124668
             103.94869   0.068842606114048
             29.210155    0.23218442062076
              9.286663    0.46794134155879
              3.163927    0.36231203217765
 s    3 1.00
             7.8682724   -0.11933240861517
             1.8812885   -0.16085421161283
             0.5442493     1.1434564825515
 s    1 1.00
             0.1687144                   1
 p    3 1.00
             7.8682724   0.068999095584993
             1.8812885    0.31642397975315
             0.5442493    0.74430825237435
 p    1 1.00
             0.1687144                   1
 d    1 1.00
                   0.8                   1

22 0
 s    3 1.00
             18.731137    0.03349459952309
             2.8253937    0.23472694665786
             0.6401217    0.81375731841339
 s    1 1.00
             0.1612778                   1

23 0
 s    3 1.00
             18.731137    0.03349459952309
             2.8253937    0.23472694665786
             0.6401217    0.81375731841339
 s    1 1.00
             0.1612778                   1

24 0
 s    3 1.00
             18.731137    0.03349459952309
             2.8253937    0.23472694665786
             0.6401217    0.81375731841339
 s    1 1.00
             0.1612778                   1

25 0
 s    3 1.00
             18.731137    0.03349459952309
             2.8253937    0.23472694665786
             0.6401217    0.81375731841339
 s    1 1.00
             0.1612778                   1

26 0
 s    3 1.00
             18.731137    0.03349459952309
             2.8253937    0.23472694665786
             0.6401217    0.81375731841339
 s    1 1.00
             0.1612778                   1

27 0
 s    3 1.00
             18.731137    0.03349459952309
             2.8253937    0.23472694665786
             0.6401217    0.81375731841339
 s    1 1.00
             0.1612778                   1

28 0
 s    3 1.00
             18.731137    0.03349459952309
             2.8253937    0.23472694665786
             0.6401217    0.81375731841339
 s    1 1.00
             0.1612778                   1

29 0
 s    3 1.00
             18.731137    0.03349459952309
             2.8253937    0.23472694665786
             0.6401217    0.81375731841339
 s    1 1.00
             0.1612778                   1

30 0
 s    3 1.00
             18.731137    0.03349459952309
             2.8253937    0.23472694665786
             0.6401217    0.81375731841339
 s    1 1.00
             0.1612778                   1

31 0
 s    3 1.00
             18.731137    0.03349459952309
             2.8253937    0.23472694665786
             0.6401217    0.81375731841339
 s    1 1.00
             0.1612778                   1

32 0
 s    3 1.00
             18.731137    0.03349459952309
             2.8253937    0.23472694665786
             0.6401217    0.81375731841339
 s    1 1.00
             0.1612778                   1

33 0
 s    6 1.00
             3047.5249  0.0018347001629433
             457.36951    0.01403730124668
             103.94869   0.068842606114048
             29.210155    0.23218442062076
              9.286663    0.46794134155879
              3.163927    0.36231203217765
 s    3 1.00
             7.8682724   -0.11933240861517
             1.8812885   -0.16085421161283
             0.5442493     1.1434564825515
 s    1 1.00
             0.1687144                   1
 p    3 1.00
             7.8682724   0.068999095584993
             1.8812885    0.31642397975315
             0.5442493    0.74430825237435
 p    1 1.00
             0.1687144                   1
 d    1 1.00
                   0.8                   1

34 0
 s    6 1.00
             3047.5249  0.0018347001629433
             457.36951    0.01403730124668
             103.94869   0.068842606114048
             29.210155    0.23218442062076
              9.286663    0.46794134155879
              3.163927    0.36231203217765
 s    3 1.00
             7.8682724   -0.11933240861517
             1.8812885   -0.16085421161283
             0.5442493     1.1434564825515
 s    1 1.00
             0.1687144                   1
 p    3 1.00
             7.8682724   0.068999095584993
             1.8812885    0.31642397975315
             0.5442493    0.74430825237435
 p    1 1.00
             0.1687144                   1
 d    1 1.00
                   0.8                   1

35 0
 s    3 1.00
             18.731137    0.03349459952309
             2.8253937    0.23472694665786
             0.6401217    0.81375731841339
 s    1 1.00
             0.1612778                   1

36 0
 s    6 1.00
             3047.5249  0.0018347001629433
             457.36951    0.01403730124668
             103.94869   0.068842606114048
             29.210155    0.23218442062076
              9.286663    0.46794134155879
              3.163927    0.36231203217765
 s    3 1.00
             7.8682724   -0.11933240861517
             1.8812885   -0.16085421161283
             0.5442493     1.1434564825515
 s    1 1.00
             0.1687144                   1
 p    3 1.00
             7.8682724   0.068999095584993
             1.8812885    0.31642397975315
             0.5442493    0.74430825237435
 p    1 1.00
             0.1687144                   1
 d    1 1.00
                   0.8                   1

37 0
 s    3 1.00
             18.731137    0.03349459952309
             2.8253937    0.23472694665786
             0.6401217    0.81375731841339
 s    1 1.00
             0.1612778                   1

38 0
 s    3 1.00
             18.731137    0.03349459952309
             2.8253937    0.23472694665786
             0.6401217    0.81375731841339
 s    1 1.00
             0.1612778                   1

39 0
 s    6 1.00
             3047.5249  0.0018347001629433
             457.36951    0.01403730124668
             103.94869   0.068842606114048
             29.210155    0.23218442062076
              9.286663    0.46794134155879
              3.163927    0.36231203217765
 s    3 1.00
             7.8682724   -0.11933240861517
             1.8812885   -0.16085421161283
             0.5442493     1.1434564825515
 s    1 1.00
             0.1687144                   1
 p    3 1.00
             7.8682724   0.068999095584993
             1.8812885    0.31642397975315
             0.5442493    0.74430825237435
 p    1 1.00
             0.1687144                   1
 d    1 1.00
                   0.8                   1

40 0
 s    6 1.00
             3047.5249  0.0018347001629433
             457.36951    0.01403730124668
             103.94869   0.068842606114048
             29.210155    0.23218442062076
              9.286663    0.46794134155879
              3.163927    0.36231203217765
 s    3 1.00
             7.8682724   -0.11933240861517
             1.8812885   -0.16085421161283
             0.5442493     1.1434564825515
 s    1 1.00
             0.1687144                   1
 p    3 1.00
             7.8682724   0.068999095584993
             1.8812885    0.31642397975315
             0.5442493    0.74430825237435
 p    1 1.00
             0.1687144                   1
 d    1 1.00
                   0.8                   1

41 0
 s    3 1.00
             18.731137    0.03349459952309
             2.8253937    0.23472694665786
             0.6401217    0.81375731841339
 s    1 1.00
             0.1612778                   1

42 0
 s    6 1.00
             5484.6717   0.001831099805527
             825.23495   0.013950098518422
             188.04696    0.06844509273075
               52.9645    0.23271427528445
              16.89757    0.47019295006289
             5.7996353    0.35852086192309
 s    3 1.00
             15.539616   -0.11077750382508
             3.5999336   -0.14802630511126
             1.0137618     1.1307670390447
 s    1 1.00
             0.2700058                   1
 p    3 1.00
             15.539616   0.070874299543311
             3.5999336    0.33975279781076
             1.0137618    0.72715859531445
 p    1 1.00
             0.2700058                   1
 d    1 1.00
                   0.8                   1

43 0
 s    3 1.00
             18.731137    0.03349459952309
             2.8253937    0.23472694665786
             0.6401217    0.81375731841339
 s    1 1.00
             0.1612778                   1

[5d]
[7f]
[9g]

[MO]
 Sym= A
 Ene=               0
 Spin= Alpha
 Occup=    1.00000
   1     0.021833785168395
   2    -0.00078182724823492
   3    0.0068412752450181
   4    0.00037903908360453
   5    -0.00015765093944209
   6    0.0011493307994668
   7    0.00082821366306998
   8    0.0013427038793683
   9    -0.0054526320430053
  10    -0.00088168791876305
  11    -0.00086344789379044
  12    0.00014115371007147
  13    -0.0002050990966975
  14    4.1466757757027e-05
  15    -0.00048894945694869
  16    -0.00090116883957002
  17      0.99481500295562
  18      0.03684514112243
  19     -0.02842011105275
  20    0.00093934050741568
  21    0.00018204905531182
  22    -0.00054173122650165
  23    -0.0035926377020191
  24    -0.0011033113323553
  25    -0.00079920460581838
  26    0.00075815295007144
  27    -0.00030309001646439
  28    -0.00033963766899995
  29    0.00029522053512983
  30    0.00021386863036107
  31    -0.0011293892224398
  32    0.0038320484503089
  33     0.013563610226533
  34    -0.00025305523849826
  35    0.0010375030209013
  36    0.00083124423834976
  37    0.00031924878732368
  38    -0.0011104545588225
  39    -0.0026493739169734
  40    0.0034162094652811
  41    0.0038049444097141
  42    -0.00057568955690555
  43     0.001177150692719
  44    0.00048080635872504
  45    -0.00035811826014333
  46    -0.00035349519292822
  47    -0.00055064438971642
  48    -0.00057559785834418
  49    -0.0002731738457305
  50    -0.00053714862555098
  51    0.00017390907831416
  52    0.00028597598907794
  53    3.3380538507437e-05
  54    -0.00037609537079338
  55    -0.0052090388481786
  56    0.00097198993296837
  57    0.0066954498141983
  58    -0.00016199538815753
  59    -1.5760293081958e-05
  60    0.00012333978124555
  61    -0.00020513233388543
  62    -0.00023244158559869
  63    -0.00047408995899274
  64    0.00023405704893248
  65    -2.5736232160922e-06
  66    -4.0424961425106e-06
  67    -4.9954192315788e-08
  68    -1.2796315081813e-06
  69    5.7788379508731e-06
  70    1.8835221470568e-06
  71    -4.3984341116826e-06
  72    -2.0573837739295e-08
  73    1.2894215552258e-05
  74    2.5321784608685e-05
  75    9.1780642546185e-06
  76    -1.3252503606744e-07
  77    -2.9057994577245e-07
  78    2.837085197961e-07
  79    5.4403726452623e-07
  80    -2.6553129865697e-08
  81    2.5198644779912e-06
  82    1.293419497607e-05
  83    2.0010778084379e-07
  84    9.0886780338412e-07
  85    -6.6746018446036e-05
  86    3.9855402979241e-06
  87    3.1809795489047e-06
  88    5.175168513606e-06
  89    2.2886476814635e-05
  90    -6.2496090316068e-05
  91    8.5461350929778e-06
  92    1.605252810924e-06
  93    -2.5976434352078e-06
  94    3.7154891073803e-06
  95    -6.5185148786272e-07
  96    -1.0426405483994e-06
  97    7.1786938118726e-06
  98    1.2503291654197e-05
  99    -3.3780309952557e-06
 100    -1.8883499327055e-05
 101    -1.0251291188058e-06
 102    -1.0423422763854e-05
 103    0.00021265449023933
 104    -2.4582377546172e-06
 105    -9.054275579694e-06
 106    -3.2157738251461e-06
 107    -0.00018391374145838
 108    0.00017824573983395
 109    0.00014218679780554
 110    -6.0322778412052e-06
 111    -3.0556812210678e-07
 112    8.9638855604559e-08
 113    1.1117230480539e-06
 114    -5.1542837681082e-06
 115    -3.3140856500065e-06
 116    -3.2389718201812e-05
 117    0.00023410872207624
 118    -2.2363121048027e-06
 119    2.593299825249e-06
 120    5.2418071880877e-06
 121    -5.0681555752026e-05
 122    1.5060141134581e-05
 123    2.8985503149459e-05
 124    1.4263862176757e-06
 125    -3.0039766655186e-06
 126    -2.2935311883902e-06
 127    8.7573892171832e-07
 128    -2.1933679449453e-06
 129    -5.3569623864652e-06
 130    -5.1867359922908e-05
 131    0.00015251490421338
 132    4.9412193023158e-06
 133    -4.5821238359477e-06
 134    2.1907014064571e-05
 135    -0.00032905439512768
 136    3.0219012584665e-05
 137    -0.00040521332046315
 138    8.9446727320487e-06
 139    1.3433378800838e-05
 140    5.2017437660661e-06
 141    4.4994998947169e-06
 142    6.4284196912059e-06
 143    -2.1291190451519e-06
 144    -2.8195372475368e-05
 145    4.0667379903549e-05
 146    1.9953978205398e-06
 147    5.5965854069203e-06
 148    1.2650744539001e-05
 149    1.8559147850056e-05
 150    4.1577539921478e-07
 151    -6.6108859133309e-05
 152    -6.5331960901746e-06
 153    -3.9640128524528e-06
 154    -2.9542191059661e-06
 155    4.1251863592167e-06
 156    -4.0935033501919e-06
 157    1.5925298542851e-06
 158    1.2366757642118e-05
 159    -3.8025075422818e-05
 160    5.7920635405566e-06
 161    2.3538051192023e-08
 162    -1.5046133873455e-06
 163    -4.9048424215605e-05
 164    2.459205656034e-05
 165    1.1186260103915e-05
 166    4.4011878857606e-06
 167    -8.7070778884257e-07
 168    -2.0787770401213e-07
 169    8.5834823269526e-07
 170    1.9312450012227e-06
 171    -4.7925641367755e-07
 172    -1.2360922455845e-05
 173    2.2995139419397e-05
 174    -4.0416079434907e-06
 175    -2.8090616990513e-07
 176    1.0738605381808e-05
 177    -1.1338196846433e-06
 178    -1.3972938189886e-06
 179    -2.5662859483215e-05
 180    1.5413709848494e-06
 181    4.645081601571e-06
 182    9.3233146709112e-07
 183    -1.210571096587e-06
 184    1.5587929839276e-06
 185    -3.2660406906896e-06
 186    -2.8123860749247e-05
 187    8.1107805124321e-05
 188    -2.3052480541757e-06
 189    6.7244574947054e-07
 190    4.8562716028562e-06
 191    -3.6189822486481e-06
 192    -1.3395988010353e-05
 193    -6.9225413101714e-05
 194    3.0746463025673e-06
 195    1.6617096008365e-06
 196    2.6993872713708e-06
 197    -2.3727188111986e-07
 198    3.8925231019342e-07
 199    -7.2236924902823e-06
 200    5.5417406130422e-07
 201    -2.4092406339862e-06
 202    1.9298232418871e-05
 203    -1.1004852204921e-05
 204    -4.076397551796e-06
 205    -6.408338971994e-07
 206    -2.6260063270851e-05
 207    8.7287696621765e-06
 208    -5.9235699753374e-05
 209    1.0785365050148e-05
 210    -2.5706139787893e-05
 211    6.193046110177e-06
 212    1.7031908545666e-05
 213    -6.4248643579869e-07
 214    -2.054031827079e-05
 215    -2.5547313196922e-06
 216    -2.7953625482693e-05
 217    1.3615181590805e-06
 218     8.74101695975e-06
 219    4.7448319392221e-07
 220    -1.3697828885065e-06
 221    -8.1488308615579e-06
 222    -8.3117848229768e-05
 223    0.00082495379064069
 224    -1.2659875368901e-05
 225    -8.2569365296706e-07
 226    1.2650947520194e-05
 227    0.00060077264254443
 228    0.00029700467673806
 229    -0.00088342968285587
 230    2.1152373599627e-06
 231    -4.1838666370251e-05
 232    -2.031990992232e-05
 233    2.1021883010132e-05
 234    2.1410054127968e-05
 235    -1.4667776901527e-05
 236    -3.7470418182009e-05
 237    -0.00017548694964624
 238    -1.9879978099637e-05
 239    -2.2474081622005e-06
 240    1.040932057639e-05
 241    0.00026477018956358
 242    0.00033692455466616
 243    -0.0014700967718759
 244    9.3326188730312e-06
 245    6.7462466350452e-05
 246    1.1221783432512e-05
 247    1.8881088075091e-05
 248    -2.8558211892042e-06
 249    -3.3265027779433e-05
 250    0.00029468024211079
 251    -2.4129503701611e-05
 252    -0.00039381012056183
 253    0.0020650704745729
 254    6.8973594337577e-05
 255    -3.371103331676e-05
 256    0.00022112308333286
 257    -1.4080686131873e-05
 258    0.00033955442912411
 259     -0.00176010123451
 260    -5.841185101932e-05
 261    -1.4550913604322e-05
 262    -1.0680497388919e-05
 263    0.00013426356244116
 264    7.5032693992673e-05
 265    -8.6547134278394e-05
 266    0.00019286077523513
 267    -0.00013612320417578
 268    -0.00050454965789275
 269    -7.5432486572896e-05
 270    -0.00050363829018123
 271     0.006691207452797
 272    -9.4044561220368e-05
 273    0.00010747304836422
 274    0.00010867381478245
 275    -0.0013251751319832
 276    -0.0026957813850455
 277    0.0027998142416903
 278    8.6973816201229e-05
 279    -0.000169158296083
 280    -0.00010122544327759