[Molden Format]
made by pyscf v[2.0.1]
[Atoms] (AU)
C   1   6     0.69100024066471     0.64692934207205    -3.48223131169301
H   2   1     2.68052439830868     1.13355088658700    -3.25784032593313
C   3   6    -0.36286361513219     0.85440132524594    -5.97030179418974
H   4   1    -2.35448549047279     0.36322488579172    -6.17995817793143
C   5   6     0.93697958957450     1.61209284601821    -8.05828437677121
H   6   1     0.14022243979667     3.08603065646166    -9.25562650474843
C   7   6     3.33155915073320     0.56926267114995    -8.78956929307971
H   8   1     4.10661901770469    -0.90506612570738    -7.57081623325171
H   9   1     1.55630230933075    -1.92953025305990    12.99630010416247
C   10   6     0.75233899775814    -2.21270439606481    11.10705728102219
H   11   1    -0.43433408177274    -3.90944857546550    11.22216085340412
C   12   6     2.86362581178706    -2.63237380607947     9.17926416456045
H   13   1     4.39038949912609    -1.24955421540245     9.49899813497433
H   14   1     3.74629220191363    -4.48798724300892     9.47414880959024
C   15   6     2.02478325613682    -2.42177285709634     6.44560829588644
C   16   6     3.88048732735477    -3.58795445234514     4.61402886975252
C   17   6    -0.18412382258602    -1.30464291234259     5.76021113872346
C   18   6    -2.10044360464350    -0.26837831858460     7.71610340967100
C   19   6    -3.08956938670431     2.35282328359417     6.88693925039594
C   20   6    -4.37372924086464    -2.09766595989678     7.93610724222001
C   21   6    -0.83850430601230     0.06372213486173    10.33002307638377
H   22   1     0.38411922151109     1.74281358582432    10.27380136542181
H   23   1    -2.30980003007874     0.45460143924521    11.73986301809809
H   24   1     4.58527064644668    -5.38706904487420     5.36778158031719
H   25   1     5.54944938085014    -2.37631462192748     4.35398898413318
H   26   1     3.06633019150423    -3.94118377050688     2.75255466040884
H   27   1    -4.17727778763735     2.26573369139522     5.12914900961283
H   28   1    -1.52662344944051     3.68001877445626     6.59540397144508
H   29   1    -4.32916174397830     3.13643051467482     8.35225460090378
H   30   1    -5.32329548508442    -2.36691813602939     6.11583672749896
H   31   1    -5.77989366602257    -1.33896741843465     9.25748940450990
H   32   1    -3.79310905208926    -3.96389819310853     8.61386170102686
C   33   6    -1.01100794811226    -1.06331657314144     3.11929490449947
C   34   6     0.37686231036534    -0.33275864505552     1.09165013605873
H   35   1    -3.01671213906703    -1.40297922279997     2.77827895090944
C   36   6    -0.64382707979370    -0.11591880174385    -1.42063131251064
H   37   1     2.35569259782137     0.17174499283897     1.33641070251401
H   38   1    -2.63317482980319    -0.60229203511219    -1.66119700387645
C   39   6     4.69106502259275     1.26188352336463   -10.85081981009206
C   40   6     7.11506387067225     0.08270412537969   -11.43459041306820
H   41   1     4.02727424636240     2.71762167762249   -12.14232148362751
O   42   8     8.43283181269616     0.61123359193353   -13.25254761350674
H   43   1     7.72125158488297    -1.39686243822724   -10.06214800755086
[GTO]
1 0
 s    6 1.00
             3047.5249  0.0018347001629433
             457.36951    0.01403730124668
             103.94869   0.068842606114048
             29.210155    0.23218442062076
              9.286663    0.46794134155879
              3.163927    0.36231203217765
 s    3 1.00
             7.8682724   -0.11933240861517
             1.8812885   -0.16085421161283
             0.5442493     1.1434564825515
 s    1 1.00
             0.1687144                   1
 p    3 1.00
             7.8682724   0.068999095584993
             1.8812885    0.31642397975315
             0.5442493    0.74430825237435
 p    1 1.00
             0.1687144                   1
 d    1 1.00
                   0.8                   1

2 0
 s    3 1.00
             18.731137    0.03349459952309
             2.8253937    0.23472694665786
             0.6401217    0.81375731841339
 s    1 1.00
             0.1612778                   1

3 0
 s    6 1.00
             3047.5249  0.0018347001629433
             457.36951    0.01403730124668
             103.94869   0.068842606114048
             29.210155    0.23218442062076
              9.286663    0.46794134155879
              3.163927    0.36231203217765
 s    3 1.00
             7.8682724   -0.11933240861517
             1.8812885   -0.16085421161283
             0.5442493     1.1434564825515
 s    1 1.00
             0.1687144                   1
 p    3 1.00
             7.8682724   0.068999095584993
             1.8812885    0.31642397975315
             0.5442493    0.74430825237435
 p    1 1.00
             0.1687144                   1
 d    1 1.00
                   0.8                   1

4 0
 s    3 1.00
             18.731137    0.03349459952309
             2.8253937    0.23472694665786
             0.6401217    0.81375731841339
 s    1 1.00
             0.1612778                   1

5 0
 s    6 1.00
             3047.5249  0.0018347001629433
             457.36951    0.01403730124668
             103.94869   0.068842606114048
             29.210155    0.23218442062076
              9.286663    0.46794134155879
              3.163927    0.36231203217765
 s    3 1.00
             7.8682724   -0.11933240861517
             1.8812885   -0.16085421161283
             0.5442493     1.1434564825515
 s    1 1.00
             0.1687144                   1
 p    3 1.00
             7.8682724   0.068999095584993
             1.8812885    0.31642397975315
             0.5442493    0.74430825237435
 p    1 1.00
             0.1687144                   1
 d    1 1.00
                   0.8                   1

6 0
 s    3 1.00
             18.731137    0.03349459952309
             2.8253937    0.23472694665786
             0.6401217    0.81375731841339
 s    1 1.00
             0.1612778                   1

7 0
 s    6 1.00
             3047.5249  0.0018347001629433
             457.36951    0.01403730124668
             103.94869   0.068842606114048
             29.210155    0.23218442062076
              9.286663    0.46794134155879
              3.163927    0.36231203217765
 s    3 1.00
             7.8682724   -0.11933240861517
             1.8812885   -0.16085421161283
             0.5442493     1.1434564825515
 s    1 1.00
             0.1687144                   1
 p    3 1.00
             7.8682724   0.068999095584993
             1.8812885    0.31642397975315
             0.5442493    0.74430825237435
 p    1 1.00
             0.1687144                   1
 d    1 1.00
                   0.8                   1

8 0
 s    3 1.00
             18.731137    0.03349459952309
             2.8253937    0.23472694665786
             0.6401217    0.81375731841339
 s    1 1.00
             0.1612778                   1

9 0
 s    3 1.00
             18.731137    0.03349459952309
             2.8253937    0.23472694665786
             0.6401217    0.81375731841339
 s    1 1.00
             0.1612778                   1

10 0
 s    6 1.00
             3047.5249  0.0018347001629433
             457.36951    0.01403730124668
             103.94869   0.068842606114048
             29.210155    0.23218442062076
              9.286663    0.46794134155879
              3.163927    0.36231203217765
 s    3 1.00
             7.8682724   -0.11933240861517
             1.8812885   -0.16085421161283
             0.5442493     1.1434564825515
 s    1 1.00
             0.1687144                   1
 p    3 1.00
             7.8682724   0.068999095584993
             1.8812885    0.31642397975315
             0.5442493    0.74430825237435
 p    1 1.00
             0.1687144                   1
 d    1 1.00
                   0.8                   1

11 0
 s    3 1.00
             18.731137    0.03349459952309
             2.8253937    0.23472694665786
             0.6401217    0.81375731841339
 s    1 1.00
             0.1612778                   1

12 0
 s    6 1.00
             3047.5249  0.0018347001629433
             457.36951    0.01403730124668
             103.94869   0.068842606114048
             29.210155    0.23218442062076
              9.286663    0.46794134155879
              3.163927    0.36231203217765
 s    3 1.00
             7.8682724   -0.11933240861517
             1.8812885   -0.16085421161283
             0.5442493     1.1434564825515
 s    1 1.00
             0.1687144                   1
 p    3 1.00
             7.8682724   0.068999095584993
             1.8812885    0.31642397975315
             0.5442493    0.74430825237435
 p    1 1.00
             0.1687144                   1
 d    1 1.00
                   0.8                   1

13 0
 s    3 1.00
             18.731137    0.03349459952309
             2.8253937    0.23472694665786
             0.6401217    0.81375731841339
 s    1 1.00
             0.1612778                   1

14 0
 s    3 1.00
             18.731137    0.03349459952309
             2.8253937    0.23472694665786
             0.6401217    0.81375731841339
 s    1 1.00
             0.1612778                   1

15 0
 s    6 1.00
             3047.5249  0.0018347001629433
             457.36951    0.01403730124668
             103.94869   0.068842606114048
             29.210155    0.23218442062076
              9.286663    0.46794134155879
              3.163927    0.36231203217765
 s    3 1.00
             7.8682724   -0.11933240861517
             1.8812885   -0.16085421161283
             0.5442493     1.1434564825515
 s    1 1.00
             0.1687144                   1
 p    3 1.00
             7.8682724   0.068999095584993
             1.8812885    0.31642397975315
             0.5442493    0.74430825237435
 p    1 1.00
             0.1687144                   1
 d    1 1.00
                   0.8                   1

16 0
 s    6 1.00
             3047.5249  0.0018347001629433
             457.36951    0.01403730124668
             103.94869   0.068842606114048
             29.210155    0.23218442062076
              9.286663    0.46794134155879
              3.163927    0.36231203217765
 s    3 1.00
             7.8682724   -0.11933240861517
             1.8812885   -0.16085421161283
             0.5442493     1.1434564825515
 s    1 1.00
             0.1687144                   1
 p    3 1.00
             7.8682724   0.068999095584993
             1.8812885    0.31642397975315
             0.5442493    0.74430825237435
 p    1 1.00
             0.1687144                   1
 d    1 1.00
                   0.8                   1

17 0
 s    6 1.00
             3047.5249  0.0018347001629433
             457.36951    0.01403730124668
             103.94869   0.068842606114048
             29.210155    0.23218442062076
              9.286663    0.46794134155879
              3.163927    0.36231203217765
 s    3 1.00
             7.8682724   -0.11933240861517
             1.8812885   -0.16085421161283
             0.5442493     1.1434564825515
 s    1 1.00
             0.1687144                   1
 p    3 1.00
             7.8682724   0.068999095584993
             1.8812885    0.31642397975315
             0.5442493    0.74430825237435
 p    1 1.00
             0.1687144                   1
 d    1 1.00
                   0.8                   1

18 0
 s    6 1.00
             3047.5249  0.0018347001629433
             457.36951    0.01403730124668
             103.94869   0.068842606114048
             29.210155    0.23218442062076
              9.286663    0.46794134155879
              3.163927    0.36231203217765
 s    3 1.00
             7.8682724   -0.11933240861517
             1.8812885   -0.16085421161283
             0.5442493     1.1434564825515
 s    1 1.00
             0.1687144                   1
 p    3 1.00
             7.8682724   0.068999095584993
             1.8812885    0.31642397975315
             0.5442493    0.74430825237435
 p    1 1.00
             0.1687144                   1
 d    1 1.00
                   0.8                   1

19 0
 s    6 1.00
             3047.5249  0.0018347001629433
             457.36951    0.01403730124668
             103.94869   0.068842606114048
             29.210155    0.23218442062076
              9.286663    0.46794134155879
              3.163927    0.36231203217765
 s    3 1.00
             7.8682724   -0.11933240861517
             1.8812885   -0.16085421161283
             0.5442493     1.1434564825515
 s    1 1.00
             0.1687144                   1
 p    3 1.00
             7.8682724   0.068999095584993
             1.8812885    0.31642397975315
             0.5442493    0.74430825237435
 p    1 1.00
             0.1687144                   1
 d    1 1.00
                   0.8                   1

20 0
 s    6 1.00
             3047.5249  0.0018347001629433
             457.36951    0.01403730124668
             103.94869   0.068842606114048
             29.210155    0.23218442062076
              9.286663    0.46794134155879
              3.163927    0.36231203217765
 s    3 1.00
             7.8682724   -0.11933240861517
             1.8812885   -0.16085421161283
             0.5442493     1.1434564825515
 s    1 1.00
             0.1687144                   1
 p    3 1.00
             7.8682724   0.068999095584993
             1.8812885    0.31642397975315
             0.5442493    0.74430825237435
 p    1 1.00
             0.1687144                   1
 d    1 1.00
                   0.8                   1

21 0
 s    6 1.00
             3047.5249  0.0018347001629433
             457.36951    0.01403730124668
             103.94869   0.068842606114048
             29.210155    0.23218442062076
              9.286663    0.46794134155879
              3.163927    0.36231203217765
 s    3 1.00
             7.8682724   -0.11933240861517
             1.8812885   -0.16085421161283
             0.5442493     1.1434564825515
 s    1 1.00
             0.1687144                   1
 p    3 1.00
             7.8682724   0.068999095584993
             1.8812885    0.31642397975315
             0.5442493    0.74430825237435
 p    1 1.00
             0.1687144                   1
 d    1 1.00
                   0.8                   1

22 0
 s    3 1.00
             18.731137    0.03349459952309
             2.8253937    0.23472694665786
             0.6401217    0.81375731841339
 s    1 1.00
             0.1612778                   1

23 0
 s    3 1.00
             18.731137    0.03349459952309
             2.8253937    0.23472694665786
             0.6401217    0.81375731841339
 s    1 1.00
             0.1612778                   1

24 0
 s    3 1.00
             18.731137    0.03349459952309
             2.8253937    0.23472694665786
             0.6401217    0.81375731841339
 s    1 1.00
             0.1612778                   1

25 0
 s    3 1.00
             18.731137    0.03349459952309
             2.8253937    0.23472694665786
             0.6401217    0.81375731841339
 s    1 1.00
             0.1612778                   1

26 0
 s    3 1.00
             18.731137    0.03349459952309
             2.8253937    0.23472694665786
             0.6401217    0.81375731841339
 s    1 1.00
             0.1612778                   1

27 0
 s    3 1.00
             18.731137    0.03349459952309
             2.8253937    0.23472694665786
             0.6401217    0.81375731841339
 s    1 1.00
             0.1612778                   1

28 0
 s    3 1.00
             18.731137    0.03349459952309
             2.8253937    0.23472694665786
             0.6401217    0.81375731841339
 s    1 1.00
             0.1612778                   1

29 0
 s    3 1.00
             18.731137    0.03349459952309
             2.8253937    0.23472694665786
             0.6401217    0.81375731841339
 s    1 1.00
             0.1612778                   1

30 0
 s    3 1.00
             18.731137    0.03349459952309
             2.8253937    0.23472694665786
             0.6401217    0.81375731841339
 s    1 1.00
             0.1612778                   1

31 0
 s    3 1.00
             18.731137    0.03349459952309
             2.8253937    0.23472694665786
             0.6401217    0.81375731841339
 s    1 1.00
             0.1612778                   1

32 0
 s    3 1.00
             18.731137    0.03349459952309
             2.8253937    0.23472694665786
             0.6401217    0.81375731841339
 s    1 1.00
             0.1612778                   1

33 0
 s    6 1.00
             3047.5249  0.0018347001629433
             457.36951    0.01403730124668
             103.94869   0.068842606114048
             29.210155    0.23218442062076
              9.286663    0.46794134155879
              3.163927    0.36231203217765
 s    3 1.00
             7.8682724   -0.11933240861517
             1.8812885   -0.16085421161283
             0.5442493     1.1434564825515
 s    1 1.00
             0.1687144                   1
 p    3 1.00
             7.8682724   0.068999095584993
             1.8812885    0.31642397975315
             0.5442493    0.74430825237435
 p    1 1.00
             0.1687144                   1
 d    1 1.00
                   0.8                   1

34 0
 s    6 1.00
             3047.5249  0.0018347001629433
             457.36951    0.01403730124668
             103.94869   0.068842606114048
             29.210155    0.23218442062076
              9.286663    0.46794134155879
              3.163927    0.36231203217765
 s    3 1.00
             7.8682724   -0.11933240861517
             1.8812885   -0.16085421161283
             0.5442493     1.1434564825515
 s    1 1.00
             0.1687144                   1
 p    3 1.00
             7.8682724   0.068999095584993
             1.8812885    0.31642397975315
             0.5442493    0.74430825237435
 p    1 1.00
             0.1687144                   1
 d    1 1.00
                   0.8                   1

35 0
 s    3 1.00
             18.731137    0.03349459952309
             2.8253937    0.23472694665786
             0.6401217    0.81375731841339
 s    1 1.00
             0.1612778                   1

36 0
 s    6 1.00
             3047.5249  0.0018347001629433
             457.36951    0.01403730124668
             103.94869   0.068842606114048
             29.210155    0.23218442062076
              9.286663    0.46794134155879
              3.163927    0.36231203217765
 s    3 1.00
             7.8682724   -0.11933240861517
             1.8812885   -0.16085421161283
             0.5442493     1.1434564825515
 s    1 1.00
             0.1687144                   1
 p    3 1.00
             7.8682724   0.068999095584993
             1.8812885    0.31642397975315
             0.5442493    0.74430825237435
 p    1 1.00
             0.1687144                   1
 d    1 1.00
                   0.8                   1

37 0
 s    3 1.00
             18.731137    0.03349459952309
             2.8253937    0.23472694665786
             0.6401217    0.81375731841339
 s    1 1.00
             0.1612778                   1

38 0
 s    3 1.00
             18.731137    0.03349459952309
             2.8253937    0.23472694665786
             0.6401217    0.81375731841339
 s    1 1.00
             0.1612778                   1

39 0
 s    6 1.00
             3047.5249  0.0018347001629433
             457.36951    0.01403730124668
             103.94869   0.068842606114048
             29.210155    0.23218442062076
              9.286663    0.46794134155879
              3.163927    0.36231203217765
 s    3 1.00
             7.8682724   -0.11933240861517
             1.8812885   -0.16085421161283
             0.5442493     1.1434564825515
 s    1 1.00
             0.1687144                   1
 p    3 1.00
             7.8682724   0.068999095584993
             1.8812885    0.31642397975315
             0.5442493    0.74430825237435
 p    1 1.00
             0.1687144                   1
 d    1 1.00
                   0.8                   1

40 0
 s    6 1.00
             3047.5249  0.0018347001629433
             457.36951    0.01403730124668
             103.94869   0.068842606114048
             29.210155    0.23218442062076
              9.286663    0.46794134155879
              3.163927    0.36231203217765
 s    3 1.00
             7.8682724   -0.11933240861517
             1.8812885   -0.16085421161283
             0.5442493     1.1434564825515
 s    1 1.00
             0.1687144                   1
 p    3 1.00
             7.8682724   0.068999095584993
             1.8812885    0.31642397975315
             0.5442493    0.74430825237435
 p    1 1.00
             0.1687144                   1
 d    1 1.00
                   0.8                   1

41 0
 s    3 1.00
             18.731137    0.03349459952309
             2.8253937    0.23472694665786
             0.6401217    0.81375731841339
 s    1 1.00
             0.1612778                   1

42 0
 s    6 1.00
             5484.6717   0.001831099805527
             825.23495   0.013950098518422
             188.04696    0.06844509273075
               52.9645    0.23271427528445
              16.89757    0.47019295006289
             5.7996353    0.35852086192309
 s    3 1.00
             15.539616   -0.11077750382508
             3.5999336   -0.14802630511126
             1.0137618     1.1307670390447
 s    1 1.00
             0.2700058                   1
 p    3 1.00
             15.539616   0.070874299543311
             3.5999336    0.33975279781076
             1.0137618    0.72715859531445
 p    1 1.00
             0.2700058                   1
 d    1 1.00
                   0.8                   1

43 0
 s    3 1.00
             18.731137    0.03349459952309
             2.8253937    0.23472694665786
             0.6401217    0.81375731841339
 s    1 1.00
             0.1612778                   1

[5d]
[7f]
[9g]

[MO]
 Sym= A
 Ene=               0
 Spin= Alpha
 Occup=    1.00000
   1     0.020287254744386
   2    -0.00077215703807721
   3    0.0070424410464049
   4    0.0004441788228441
   5    -0.00018592713779457
   6    0.0010764946130996
   7    0.00039424209972115
   8    0.0011684607135394
   9    -0.0038474038812625
  10    -0.00089942394670222
  11    -0.00092785348014861
  12    0.00010786114359712
  13    -0.00023041677909378
  14    5.4654365901932e-05
  15    -0.00039780313163562
  16    -0.00093896523624811
  17      0.99456535719601
  18      0.03634024168718
  19    -0.027157598647001
  20    0.00085010358780494
  21    0.00020513470724829
  22    -0.00023767334483356
  23    -0.0031444935125917
  24    -0.00094444654458815
  25    -0.00047991968381621
  26    0.00074005390778213
  27    -0.00026764754889363
  28    -0.0003531678468741
  29    0.0002378664138966
  30    0.00024275960058168
  31    -0.0011462171140927
  32    0.0037715488466195
  33     0.025967066894256
  34    -0.00046765376800218
  35    0.0041396142693869
  36    0.00081601461470551
  37    0.00039140469240554
  38    -0.001202036989843
  39    -0.0025507831858034
  40    0.00088816661887466
  41    0.0025589056115469
  42    -0.00052764350282877
  43    0.0010406538043638
  44    0.00056641635670078
  45    -0.00038398581158291
  46    -0.00041156084366221
  47    -0.00043018169131589
  48    -0.00014527098870841
  49    -6.8403349345072e-05
  50    -0.00035717893615281
  51    -0.0013509759216303
  52    0.00032249646823324
  53    0.00014271727196117
  54    -0.00021853700672589
  55    -0.0040240000251928
  56    -0.00090608352491428
  57    0.0035990955904741
  58    -0.0001100290197555
  59    0.00011506351361708
  60    -5.723896586181e-05
  61    2.9522608773832e-05
  62    -0.0002011717385822
  63    -0.00034659275551161
  64    -4.7312281208232e-05
  65    -2.0458616101525e-06
  66    -5.7016371856337e-06
  67    1.6266945008432e-07
  68    1.5955111944727e-06
  69    -2.4322154070446e-06
  70    4.2762196729213e-07
  71    -3.0033938151168e-06
  72    -6.8614854954015e-07
  73    1.1378275329549e-05
  74    2.3535180135909e-05
  75    1.2146465076071e-05
  76    -2.4877989472101e-07
  77    -9.9649776905503e-10
  78    -1.1516278755395e-07
  79    2.0358027785633e-07
  80    8.3897314268406e-08
  81    2.5879231262752e-06
  82    1.3227924252932e-05
  83    -2.1920292567814e-07
  84    -1.2390070189708e-06
  85    -3.3883208718707e-05
  86    2.552552635772e-06
  87    2.9204650088492e-06
  88    2.6099765096185e-06
  89    7.7332140033323e-06
  90    -4.5908576759459e-05
  91    4.4822679231055e-06
  92    1.5204477331511e-06
  93    -1.3986320084274e-06
  94    2.159306039448e-06
  95    -2.7674483072003e-07
  96    -9.109285460435e-07
  97    4.6070503816275e-06
  98    1.0583078413851e-05
  99    -2.8920909379584e-06
 100    -1.5183566147989e-05
 101    3.1901139135759e-07
 102    -3.3107470509716e-06
 103    5.5067748944725e-05
 104    -6.0061900195088e-07
 105    -7.3677891975083e-06
 106    6.0061243960313e-07
 107    -9.6532580552985e-05
 108    0.00010983355637521
 109    0.00010802252409891
 110    -6.182290776505e-06
 111    -8.3926893171765e-07
 112    2.4620238009079e-07
 113    -1.4247168989884e-07
 114    -2.2802909767771e-06
 115    -2.8825420091909e-06
 116    -2.9557400414099e-05
 117    0.00017907746232085
 118    -3.3389201390493e-07
 119    -2.1067499041255e-06
 120    6.0473706196486e-06
 121    -4.6078357882971e-05
 122    3.2954288205232e-05
 123    9.0350679992165e-06
 124    7.3047790606062e-07
 125    -2.4969203498444e-06
 126    -1.2855009114015e-06
 127    1.4139793804119e-06
 128    -1.8044300607152e-06
 129    -3.8679638543013e-06
 130    -3.9319079995537e-05
 131    1.4033736344086e-05
 132    -2.4099076876048e-06
 133    -3.1063014004677e-06
 134    2.0764511890982e-05
 135    -0.0001325832488667
 136    -1.6709053405655e-05
 137    -0.00022632622145433
 138    2.2489318819971e-06
 139    1.0913108089055e-05
 140    2.2008435702416e-06
 141    4.821681439415e-06
 142    4.7132401793225e-06
 143    -2.2677626364623e-06
 144    -2.5355408257374e-05
 145    8.2865724321707e-05
 146    2.3348037356435e-06
 147    4.7227636481518e-06
 148    6.9026599413419e-06
 149    1.9313971277679e-05
 150    -9.4829040864205e-06
 151    -7.0313957241149e-05
 152    -2.863506137797e-06
 153    -4.4534909670323e-06
 154    -1.0134245650716e-06
 155     2.80637993217e-06
 156    -2.4079141933543e-06
 157    1.0709424822593e-06
 158    8.7054835963239e-06
 159    -2.9552090617534e-05
 160    4.100113520986e-06
 161    -2.031124871133e-08
 162    -1.9979974892532e-06
 163    -3.4748867933522e-05
 164    2.2314962535779e-05
 165    1.1498265286774e-05
 166    3.2787104591063e-06
 167    -1.1589812974967e-06
 168    -4.2863611644977e-07
 169    1.1308706092104e-06
 170    9.251056887783e-07
 171    -7.8601209007022e-07
 172    -1.3951114063799e-05
 173    2.9307037855864e-05
 174    -3.2821149956615e-06
 175    5.8873737270191e-08
 176    8.7133973626528e-06
 177    -6.3109545642023e-06
 178    -8.0109213440678e-06
 179    -2.6565977507175e-05
 180    1.5384093015139e-06
 181    3.2823514036395e-06
 182    1.2517001397894e-06
 183    -9.2526660670168e-07
 184    5.5072425198573e-07
 185    -1.9927474350723e-06
 186    -1.6724863607633e-05
 187    5.0800252892319e-05
 188    -5.0310676289064e-07
 189    3.3838914263359e-07
 190    3.2280423429162e-06
 191    -1.2893342992982e-05
 192    -8.618941673132e-06
 193    -4.355644043652e-05
 194    1.4431681366496e-06
 195    1.1377649301467e-06
 196    1.5053016813584e-06
 197    2.9672480336856e-07
 198    3.4057638453079e-07
 199    -3.7686629167824e-06
 200    3.6081021814542e-06
 201    -2.4596724100064e-06
 202    1.0405446664772e-05
 203    -6.4618742037151e-06
 204    1.107961442247e-05
 205    -3.2974128755485e-06
 206    -2.4659398066568e-05
 207    5.0075933666819e-06
 208    -4.4974227151229e-05
 209    8.5803320217674e-06
 210    -1.8847211559437e-05
 211    4.8694995916226e-06
 212    1.013855908029e-05
 213    -9.5063191684235e-07
 214    -1.5687314636024e-05
 215    1.1008888663387e-07
 216    -4.3398310029258e-05
 217    8.7667419087792e-08
 218    9.2452690418248e-06
 219    -8.96327514726e-07
 220    -3.4835256802096e-06
 221    -4.3538031555919e-06
 222    -5.3490740134005e-05
 223    0.00067636804848667
 224    -1.6749515195465e-05
 225    -7.3453942111544e-06
 226    2.3290766078637e-06
 227    0.00055682735699241
 228    0.00022051755909993
 229    -0.00046185315450552
 230    3.9591533759184e-07
 231    -2.877631105229e-05
 232    -1.1070951262444e-05
 233    1.6362747195257e-05
 234    1.5253961408565e-05
 235    -1.9376924605654e-05
 236    -5.599249056341e-05
 237    0.00044582331405244
 238    -1.5055574283786e-05
 239    2.7626508537912e-08
 240    -1.0404922908171e-05
 241    9.2194154458025e-05
 242     0.000338751224333
 243    -0.0014603583455601
 244    2.2176758934747e-05
 245    5.7076824930149e-05
 246    -3.0396063858182e-06
 247    1.7399448587408e-05
 248    -7.681510436839e-06
 249    -1.7227470775048e-05
 250    0.00029642336771413
 251    -9.4114849602658e-06
 252    -0.00028926387301829
 253    0.00053812539875341
 254    6.7052206232989e-05
 255    -5.8083145546415e-06
 256    0.00024682827230096
 257    -0.00062831930205848
 258    -4.2937689764724e-05
 259    -0.0014453338789194
 260    -7.854453775298e-05
 261    7.0916526084643e-06
 262    1.5231034297071e-05
 263    0.00012617262922632
 264    5.0170605676803e-05
 265    -7.3112209205981e-05
 266    0.00015436383564493
 267    -0.00014649450479804
 268    -0.00062753774610258
 269    -5.7277394886187e-05
 270    -0.00036581525916684
 271    0.0048843601647942
 272    -0.00010999974159795
 273    1.8746496639054e-05
 274    3.9496267784781e-05
 275    -0.00082136688124796
 276    -0.0012014970166491
 277    0.0026436467059019
 278    0.00010154097275336
 279    -0.00010447188348166
 280    -8.1594268179724e-05