[Molden Format]
made by pyscf v[2.0.1]
[Atoms] (AU)
C   1   6     0.69100024066471     0.64692934207205    -3.48223131169301
H   2   1     2.68052439830868     1.13355088658700    -3.25784032593313
C   3   6    -0.36286361513219     0.85440132524594    -5.97030179418974
H   4   1    -2.35448549047279     0.36322488579172    -6.17995817793143
C   5   6     0.93697958957450     1.61209284601821    -8.05828437677121
H   6   1     1.25179717896080     3.62344259528190    -8.36861463213972
C   7   6     1.93299030663405    -0.10622024085708    -9.90534865945394
H   8   1     1.60367989661651    -2.11561190296467    -9.56827000221191
H   9   1     1.55630230933075    -1.92953025305990    12.99630010416247
C   10   6     0.75233899775814    -2.21270439606481    11.10705728102219
H   11   1    -0.43433408177274    -3.90944857546550    11.22216085340412
C   12   6     2.86362581178706    -2.63237380607947     9.17926416456045
H   13   1     4.39038949912609    -1.24955421540245     9.49899813497433
H   14   1     3.74629220191363    -4.48798724300892     9.47414880959024
C   15   6     2.02478325613682    -2.42177285709634     6.44560829588644
C   16   6     3.88048732735477    -3.58795445234514     4.61402886975252
C   17   6    -0.18412382258602    -1.30464291234259     5.76021113872346
C   18   6    -2.10044360464350    -0.26837831858460     7.71610340967100
C   19   6    -3.08956938670431     2.35282328359417     6.88693925039594
C   20   6    -4.37372924086464    -2.09766595989678     7.93610724222001
C   21   6    -0.83850430601230     0.06372213486173    10.33002307638377
H   22   1     0.38411922151109     1.74281358582432    10.27380136542181
H   23   1    -2.30980003007874     0.45460143924521    11.73986301809809
H   24   1     4.58527064644668    -5.38706904487420     5.36778158031719
H   25   1     5.54944938085014    -2.37631462192748     4.35398898413318
H   26   1     3.06633019150423    -3.94118377050688     2.75255466040884
H   27   1    -4.17727778763735     2.26573369139522     5.12914900961283
H   28   1    -1.52662344944051     3.68001877445626     6.59540397144508
H   29   1    -4.32916174397830     3.13643051467482     8.35225460090378
H   30   1    -5.32329548508442    -2.36691813602939     6.11583672749896
H   31   1    -5.77989366602257    -1.33896741843465     9.25748940450990
H   32   1    -3.79310905208926    -3.96389819310853     8.61386170102686
C   33   6    -1.01100794811226    -1.06331657314144     3.11929490449947
C   34   6     0.37686231036534    -0.33275864505552     1.09165013605873
H   35   1    -3.01671213906703    -1.40297922279997     2.77827895090944
C   36   6    -0.64382707979370    -0.11591880174385    -1.42063131251064
H   37   1     2.35569259782137     0.17174499283897     1.33641070251401
H   38   1    -2.63317482980319    -0.60229203511219    -1.66119700387645
C   39   6     3.23483881481583     0.56109494848388   -12.01167590238676
C   40   6     4.17213386166354    -1.33546547775814   -13.78129708499957
H   41   1     3.62751071831436     2.52907164005278   -12.45960989181140
O   42   8     5.35190984410731    -0.86987395658954   -15.70799822813352
H   43   1     3.72751838268070    -3.32497850208065   -13.24806737881206
[GTO]
1 0
 s    6 1.00
             3047.5249  0.0018347001629433
             457.36951    0.01403730124668
             103.94869   0.068842606114048
             29.210155    0.23218442062076
              9.286663    0.46794134155879
              3.163927    0.36231203217765
 s    3 1.00
             7.8682724   -0.11933240861517
             1.8812885   -0.16085421161283
             0.5442493     1.1434564825515
 s    1 1.00
             0.1687144                   1
 p    3 1.00
             7.8682724   0.068999095584993
             1.8812885    0.31642397975315
             0.5442493    0.74430825237435
 p    1 1.00
             0.1687144                   1
 d    1 1.00
                   0.8                   1

2 0
 s    3 1.00
             18.731137    0.03349459952309
             2.8253937    0.23472694665786
             0.6401217    0.81375731841339
 s    1 1.00
             0.1612778                   1

3 0
 s    6 1.00
             3047.5249  0.0018347001629433
             457.36951    0.01403730124668
             103.94869   0.068842606114048
             29.210155    0.23218442062076
              9.286663    0.46794134155879
              3.163927    0.36231203217765
 s    3 1.00
             7.8682724   -0.11933240861517
             1.8812885   -0.16085421161283
             0.5442493     1.1434564825515
 s    1 1.00
             0.1687144                   1
 p    3 1.00
             7.8682724   0.068999095584993
             1.8812885    0.31642397975315
             0.5442493    0.74430825237435
 p    1 1.00
             0.1687144                   1
 d    1 1.00
                   0.8                   1

4 0
 s    3 1.00
             18.731137    0.03349459952309
             2.8253937    0.23472694665786
             0.6401217    0.81375731841339
 s    1 1.00
             0.1612778                   1

5 0
 s    6 1.00
             3047.5249  0.0018347001629433
             457.36951    0.01403730124668
             103.94869   0.068842606114048
             29.210155    0.23218442062076
              9.286663    0.46794134155879
              3.163927    0.36231203217765
 s    3 1.00
             7.8682724   -0.11933240861517
             1.8812885   -0.16085421161283
             0.5442493     1.1434564825515
 s    1 1.00
             0.1687144                   1
 p    3 1.00
             7.8682724   0.068999095584993
             1.8812885    0.31642397975315
             0.5442493    0.74430825237435
 p    1 1.00
             0.1687144                   1
 d    1 1.00
                   0.8                   1

6 0
 s    3 1.00
             18.731137    0.03349459952309
             2.8253937    0.23472694665786
             0.6401217    0.81375731841339
 s    1 1.00
             0.1612778                   1

7 0
 s    6 1.00
             3047.5249  0.0018347001629433
             457.36951    0.01403730124668
             103.94869   0.068842606114048
             29.210155    0.23218442062076
              9.286663    0.46794134155879
              3.163927    0.36231203217765
 s    3 1.00
             7.8682724   -0.11933240861517
             1.8812885   -0.16085421161283
             0.5442493     1.1434564825515
 s    1 1.00
             0.1687144                   1
 p    3 1.00
             7.8682724   0.068999095584993
             1.8812885    0.31642397975315
             0.5442493    0.74430825237435
 p    1 1.00
             0.1687144                   1
 d    1 1.00
                   0.8                   1

8 0
 s    3 1.00
             18.731137    0.03349459952309
             2.8253937    0.23472694665786
             0.6401217    0.81375731841339
 s    1 1.00
             0.1612778                   1

9 0
 s    3 1.00
             18.731137    0.03349459952309
             2.8253937    0.23472694665786
             0.6401217    0.81375731841339
 s    1 1.00
             0.1612778                   1

10 0
 s    6 1.00
             3047.5249  0.0018347001629433
             457.36951    0.01403730124668
             103.94869   0.068842606114048
             29.210155    0.23218442062076
              9.286663    0.46794134155879
              3.163927    0.36231203217765
 s    3 1.00
             7.8682724   -0.11933240861517
             1.8812885   -0.16085421161283
             0.5442493     1.1434564825515
 s    1 1.00
             0.1687144                   1
 p    3 1.00
             7.8682724   0.068999095584993
             1.8812885    0.31642397975315
             0.5442493    0.74430825237435
 p    1 1.00
             0.1687144                   1
 d    1 1.00
                   0.8                   1

11 0
 s    3 1.00
             18.731137    0.03349459952309
             2.8253937    0.23472694665786
             0.6401217    0.81375731841339
 s    1 1.00
             0.1612778                   1

12 0
 s    6 1.00
             3047.5249  0.0018347001629433
             457.36951    0.01403730124668
             103.94869   0.068842606114048
             29.210155    0.23218442062076
              9.286663    0.46794134155879
              3.163927    0.36231203217765
 s    3 1.00
             7.8682724   -0.11933240861517
             1.8812885   -0.16085421161283
             0.5442493     1.1434564825515
 s    1 1.00
             0.1687144                   1
 p    3 1.00
             7.8682724   0.068999095584993
             1.8812885    0.31642397975315
             0.5442493    0.74430825237435
 p    1 1.00
             0.1687144                   1
 d    1 1.00
                   0.8                   1

13 0
 s    3 1.00
             18.731137    0.03349459952309
             2.8253937    0.23472694665786
             0.6401217    0.81375731841339
 s    1 1.00
             0.1612778                   1

14 0
 s    3 1.00
             18.731137    0.03349459952309
             2.8253937    0.23472694665786
             0.6401217    0.81375731841339
 s    1 1.00
             0.1612778                   1

15 0
 s    6 1.00
             3047.5249  0.0018347001629433
             457.36951    0.01403730124668
             103.94869   0.068842606114048
             29.210155    0.23218442062076
              9.286663    0.46794134155879
              3.163927    0.36231203217765
 s    3 1.00
             7.8682724   -0.11933240861517
             1.8812885   -0.16085421161283
             0.5442493     1.1434564825515
 s    1 1.00
             0.1687144                   1
 p    3 1.00
             7.8682724   0.068999095584993
             1.8812885    0.31642397975315
             0.5442493    0.74430825237435
 p    1 1.00
             0.1687144                   1
 d    1 1.00
                   0.8                   1

16 0
 s    6 1.00
             3047.5249  0.0018347001629433
             457.36951    0.01403730124668
             103.94869   0.068842606114048
             29.210155    0.23218442062076
              9.286663    0.46794134155879
              3.163927    0.36231203217765
 s    3 1.00
             7.8682724   -0.11933240861517
             1.8812885   -0.16085421161283
             0.5442493     1.1434564825515
 s    1 1.00
             0.1687144                   1
 p    3 1.00
             7.8682724   0.068999095584993
             1.8812885    0.31642397975315
             0.5442493    0.74430825237435
 p    1 1.00
             0.1687144                   1
 d    1 1.00
                   0.8                   1

17 0
 s    6 1.00
             3047.5249  0.0018347001629433
             457.36951    0.01403730124668
             103.94869   0.068842606114048
             29.210155    0.23218442062076
              9.286663    0.46794134155879
              3.163927    0.36231203217765
 s    3 1.00
             7.8682724   -0.11933240861517
             1.8812885   -0.16085421161283
             0.5442493     1.1434564825515
 s    1 1.00
             0.1687144                   1
 p    3 1.00
             7.8682724   0.068999095584993
             1.8812885    0.31642397975315
             0.5442493    0.74430825237435
 p    1 1.00
             0.1687144                   1
 d    1 1.00
                   0.8                   1

18 0
 s    6 1.00
             3047.5249  0.0018347001629433
             457.36951    0.01403730124668
             103.94869   0.068842606114048
             29.210155    0.23218442062076
              9.286663    0.46794134155879
              3.163927    0.36231203217765
 s    3 1.00
             7.8682724   -0.11933240861517
             1.8812885   -0.16085421161283
             0.5442493     1.1434564825515
 s    1 1.00
             0.1687144                   1
 p    3 1.00
             7.8682724   0.068999095584993
             1.8812885    0.31642397975315
             0.5442493    0.74430825237435
 p    1 1.00
             0.1687144                   1
 d    1 1.00
                   0.8                   1

19 0
 s    6 1.00
             3047.5249  0.0018347001629433
             457.36951    0.01403730124668
             103.94869   0.068842606114048
             29.210155    0.23218442062076
              9.286663    0.46794134155879
              3.163927    0.36231203217765
 s    3 1.00
             7.8682724   -0.11933240861517
             1.8812885   -0.16085421161283
             0.5442493     1.1434564825515
 s    1 1.00
             0.1687144                   1
 p    3 1.00
             7.8682724   0.068999095584993
             1.8812885    0.31642397975315
             0.5442493    0.74430825237435
 p    1 1.00
             0.1687144                   1
 d    1 1.00
                   0.8                   1

20 0
 s    6 1.00
             3047.5249  0.0018347001629433
             457.36951    0.01403730124668
             103.94869   0.068842606114048
             29.210155    0.23218442062076
              9.286663    0.46794134155879
              3.163927    0.36231203217765
 s    3 1.00
             7.8682724   -0.11933240861517
             1.8812885   -0.16085421161283
             0.5442493     1.1434564825515
 s    1 1.00
             0.1687144                   1
 p    3 1.00
             7.8682724   0.068999095584993
             1.8812885    0.31642397975315
             0.5442493    0.74430825237435
 p    1 1.00
             0.1687144                   1
 d    1 1.00
                   0.8                   1

21 0
 s    6 1.00
             3047.5249  0.0018347001629433
             457.36951    0.01403730124668
             103.94869   0.068842606114048
             29.210155    0.23218442062076
              9.286663    0.46794134155879
              3.163927    0.36231203217765
 s    3 1.00
             7.8682724   -0.11933240861517
             1.8812885   -0.16085421161283
             0.5442493     1.1434564825515
 s    1 1.00
             0.1687144                   1
 p    3 1.00
             7.8682724   0.068999095584993
             1.8812885    0.31642397975315
             0.5442493    0.74430825237435
 p    1 1.00
             0.1687144                   1
 d    1 1.00
                   0.8                   1

22 0
 s    3 1.00
             18.731137    0.03349459952309
             2.8253937    0.23472694665786
             0.6401217    0.81375731841339
 s    1 1.00
             0.1612778                   1

23 0
 s    3 1.00
             18.731137    0.03349459952309
             2.8253937    0.23472694665786
             0.6401217    0.81375731841339
 s    1 1.00
             0.1612778                   1

24 0
 s    3 1.00
             18.731137    0.03349459952309
             2.8253937    0.23472694665786
             0.6401217    0.81375731841339
 s    1 1.00
             0.1612778                   1

25 0
 s    3 1.00
             18.731137    0.03349459952309
             2.8253937    0.23472694665786
             0.6401217    0.81375731841339
 s    1 1.00
             0.1612778                   1

26 0
 s    3 1.00
             18.731137    0.03349459952309
             2.8253937    0.23472694665786
             0.6401217    0.81375731841339
 s    1 1.00
             0.1612778                   1

27 0
 s    3 1.00
             18.731137    0.03349459952309
             2.8253937    0.23472694665786
             0.6401217    0.81375731841339
 s    1 1.00
             0.1612778                   1

28 0
 s    3 1.00
             18.731137    0.03349459952309
             2.8253937    0.23472694665786
             0.6401217    0.81375731841339
 s    1 1.00
             0.1612778                   1

29 0
 s    3 1.00
             18.731137    0.03349459952309
             2.8253937    0.23472694665786
             0.6401217    0.81375731841339
 s    1 1.00
             0.1612778                   1

30 0
 s    3 1.00
             18.731137    0.03349459952309
             2.8253937    0.23472694665786
             0.6401217    0.81375731841339
 s    1 1.00
             0.1612778                   1

31 0
 s    3 1.00
             18.731137    0.03349459952309
             2.8253937    0.23472694665786
             0.6401217    0.81375731841339
 s    1 1.00
             0.1612778                   1

32 0
 s    3 1.00
             18.731137    0.03349459952309
             2.8253937    0.23472694665786
             0.6401217    0.81375731841339
 s    1 1.00
             0.1612778                   1

33 0
 s    6 1.00
             3047.5249  0.0018347001629433
             457.36951    0.01403730124668
             103.94869   0.068842606114048
             29.210155    0.23218442062076
              9.286663    0.46794134155879
              3.163927    0.36231203217765
 s    3 1.00
             7.8682724   -0.11933240861517
             1.8812885   -0.16085421161283
             0.5442493     1.1434564825515
 s    1 1.00
             0.1687144                   1
 p    3 1.00
             7.8682724   0.068999095584993
             1.8812885    0.31642397975315
             0.5442493    0.74430825237435
 p    1 1.00
             0.1687144                   1
 d    1 1.00
                   0.8                   1

34 0
 s    6 1.00
             3047.5249  0.0018347001629433
             457.36951    0.01403730124668
             103.94869   0.068842606114048
             29.210155    0.23218442062076
              9.286663    0.46794134155879
              3.163927    0.36231203217765
 s    3 1.00
             7.8682724   -0.11933240861517
             1.8812885   -0.16085421161283
             0.5442493     1.1434564825515
 s    1 1.00
             0.1687144                   1
 p    3 1.00
             7.8682724   0.068999095584993
             1.8812885    0.31642397975315
             0.5442493    0.74430825237435
 p    1 1.00
             0.1687144                   1
 d    1 1.00
                   0.8                   1

35 0
 s    3 1.00
             18.731137    0.03349459952309
             2.8253937    0.23472694665786
             0.6401217    0.81375731841339
 s    1 1.00
             0.1612778                   1

36 0
 s    6 1.00
             3047.5249  0.0018347001629433
             457.36951    0.01403730124668
             103.94869   0.068842606114048
             29.210155    0.23218442062076
              9.286663    0.46794134155879
              3.163927    0.36231203217765
 s    3 1.00
             7.8682724   -0.11933240861517
             1.8812885   -0.16085421161283
             0.5442493     1.1434564825515
 s    1 1.00
             0.1687144                   1
 p    3 1.00
             7.8682724   0.068999095584993
             1.8812885    0.31642397975315
             0.5442493    0.74430825237435
 p    1 1.00
             0.1687144                   1
 d    1 1.00
                   0.8                   1

37 0
 s    3 1.00
             18.731137    0.03349459952309
             2.8253937    0.23472694665786
             0.6401217    0.81375731841339
 s    1 1.00
             0.1612778                   1

38 0
 s    3 1.00
             18.731137    0.03349459952309
             2.8253937    0.23472694665786
             0.6401217    0.81375731841339
 s    1 1.00
             0.1612778                   1

39 0
 s    6 1.00
             3047.5249  0.0018347001629433
             457.36951    0.01403730124668
             103.94869   0.068842606114048
             29.210155    0.23218442062076
              9.286663    0.46794134155879
              3.163927    0.36231203217765
 s    3 1.00
             7.8682724   -0.11933240861517
             1.8812885   -0.16085421161283
             0.5442493     1.1434564825515
 s    1 1.00
             0.1687144                   1
 p    3 1.00
             7.8682724   0.068999095584993
             1.8812885    0.31642397975315
             0.5442493    0.74430825237435
 p    1 1.00
             0.1687144                   1
 d    1 1.00
                   0.8                   1

40 0
 s    6 1.00
             3047.5249  0.0018347001629433
             457.36951    0.01403730124668
             103.94869   0.068842606114048
             29.210155    0.23218442062076
              9.286663    0.46794134155879
              3.163927    0.36231203217765
 s    3 1.00
             7.8682724   -0.11933240861517
             1.8812885   -0.16085421161283
             0.5442493     1.1434564825515
 s    1 1.00
             0.1687144                   1
 p    3 1.00
             7.8682724   0.068999095584993
             1.8812885    0.31642397975315
             0.5442493    0.74430825237435
 p    1 1.00
             0.1687144                   1
 d    1 1.00
                   0.8                   1

41 0
 s    3 1.00
             18.731137    0.03349459952309
             2.8253937    0.23472694665786
             0.6401217    0.81375731841339
 s    1 1.00
             0.1612778                   1

42 0
 s    6 1.00
             5484.6717   0.001831099805527
             825.23495   0.013950098518422
             188.04696    0.06844509273075
               52.9645    0.23271427528445
              16.89757    0.47019295006289
             5.7996353    0.35852086192309
 s    3 1.00
             15.539616   -0.11077750382508
             3.5999336   -0.14802630511126
             1.0137618     1.1307670390447
 s    1 1.00
             0.2700058                   1
 p    3 1.00
             15.539616   0.070874299543311
             3.5999336    0.33975279781076
             1.0137618    0.72715859531445
 p    1 1.00
             0.2700058                   1
 d    1 1.00
                   0.8                   1

43 0
 s    3 1.00
             18.731137    0.03349459952309
             2.8253937    0.23472694665786
             0.6401217    0.81375731841339
 s    1 1.00
             0.1612778                   1

[5d]
[7f]
[9g]

[MO]
 Sym= A
 Ene=               0
 Spin= Alpha
 Occup=    1.00000
   1    -0.021094346079513
   2    0.0008205603183502
   3    -0.0067217357325708
   4    -0.00036522533781259
   5    9.6558086583939e-05
   6    -0.0011789441999999
   7    -0.00083802812336329
   8    -0.0011105865319419
   9     0.005274419387297
  10    0.00090164536943868
  11    0.00085845119544599
  12    -0.00014550278175941
  13    0.00020795018427673
  14    -4.0315077379133e-05
  15    0.00049255977104017
  16    0.00087551436034011
  17     -0.99480497682039
  18    -0.036784632690354
  19     0.028215620201511
  20    -0.00088391400674185
  21    -0.0001454861830792
  22    0.00053963277493681
  23    0.0034228481187337
  24    0.00099974698884593
  25    0.00070356475969104
  26    -0.00077904834640293
  27    0.0002891984530147
  28    0.00035114683001113
  29    -0.00029937428542525
  30    -0.000179325286944
  31    0.0010901719734342
  32    -0.0039043047758271
  33    -0.014979034883502
  34    0.00023022443548391
  35    -0.0010634946438158
  36    -0.00083340354913274
  37    -0.00031425947954145
  38     0.001127433489041
  39    0.0018233991170746
  40    -0.0034302126765274
  41    -0.0043882135890062
  42    0.0006301730215891
  43    -0.0011482170774434
  44    -0.00043512814323659
  45    0.0003262620978491
  46    0.00040357456351237
  47    0.00054409997292378
  48    0.00060576410456419
  49    0.0003307691691485
  50    0.0005503041509852
  51    -0.00042135977095138
  52    -0.00018787122963161
  53    -2.2214876495344e-05
  54    0.00042932876657486
  55    0.0040692212520495
  56    -0.0011292568449303
  57    -0.0071412301354485
  58    0.00011854733242208
  59    2.5219233704337e-06
  60    -0.00019912779564247
  61    0.00025156145156726
  62    0.00010485077071588
  63    0.00046310716018879
  64    -0.00023428045595018
  65    2.6497686153818e-06
  66    4.3257527997976e-06
  67    1.1980822267443e-07
  68    1.3713588357793e-06
  69    -8.0170011681325e-06
  70    -2.289385367614e-06
  71    4.4155109611033e-06
  72    2.7341319342019e-07
  73    -1.2214349870881e-05
  74    -2.3588666924025e-05
  75    -9.1586089516466e-06
  76    1.5767568699868e-07
  77    3.9316075500744e-07
  78    -3.6079661024126e-07
  79    -5.8161797725184e-07
  80    7.614893416042e-08
  81    -2.2183247119169e-06
  82    -1.1666123524497e-05
  83    -1.9195282020628e-07
  84    -1.3310117800689e-06
  85     6.40598458503e-05
  86    -3.3591556063898e-06
  87    -2.9063257564564e-06
  88    -5.0553745855448e-06
  89    -2.4160013357239e-05
  90    6.1000078543094e-05
  91    -6.7841091759665e-06
  92    -1.5755711127301e-06
  93    2.7481993152112e-06
  94    -3.5436301387652e-06
  95    7.426831551783e-07
  96    1.0641962153034e-06
  97    -6.2975590199927e-06
  98    -1.0716282137402e-05
  99    3.030217190371e-06
 100    1.7757065509719e-05
 101    1.1281521081937e-06
 102    1.2404427996428e-05
 103    -0.00023388942662038
 104    8.9455432766756e-07
 105    6.1431824916646e-06
 106    3.1721454927539e-06
 107    0.00018776825457255
 108    -0.00017824506510601
 109    -0.0001304938758559
 110    5.6665000099133e-06
 111    1.8468283002418e-07
 112    -8.0619191957413e-08
 113    -1.7902938708362e-06
 114    5.2770100166503e-06
 115    3.1808247136068e-06
 116    3.194989214735e-05
 117    -0.00023025199458849
 118    2.384923979548e-06
 119    -3.2003813447336e-06
 120    -5.1445877130102e-06
 121    4.6217441027614e-05
 122    -8.7792092517798e-06
 123    -2.6700788373813e-05
 124    -1.549326258442e-06
 125    2.522010954212e-06
 126    2.393333319252e-06
 127    -3.4552080256354e-07
 128    2.0469994800601e-06
 129    5.3849527556783e-06
 130    5.1869844063912e-05
 131    -0.00014619601082395
 132    -5.4751079752562e-06
 133    5.2358073498159e-06
 134    -2.1646768563161e-05
 135    0.00034214839597567
 136    -4.9698208358945e-05
 137    0.00039626211307461
 138    -9.6073630812213e-06
 139    -1.2480199239923e-05
 140    -5.4497575626677e-06
 141    -4.233312728916e-06
 142    -6.4154373535166e-06
 143    1.7942618723813e-06
 144    2.3684292347496e-05
 145    -1.8718719858079e-05
 146    -2.3621284730384e-06
 147    -6.0685462236346e-06
 148    -1.114842955385e-05
 149    -1.3264135514989e-05
 150    8.1129812935112e-06
 151    4.9669929220166e-05
 152    6.9778038067982e-06
 153    3.3913449740405e-06
 154    2.7399584129056e-06
 155    -4.1833312264506e-06
 156    3.6615706676359e-06
 157    -1.3159813527576e-06
 158    -1.0946515400659e-05
 159    2.4824320883588e-05
 160    -5.6873235170015e-06
 161    4.0548980128674e-07
 162    1.0883874868446e-06
 163    4.5240900390146e-05
 164    -1.9060711448625e-05
 165    -8.5722205522927e-06
 166    -3.8681993278063e-06
 167    3.0859770280237e-07
 168    2.0566450701441e-07
 169    -5.658334852169e-07
 170    -1.7363215032735e-06
 171    4.1362190295568e-07
 172    1.1347981491765e-05
 173    -2.0323461259788e-05
 174    3.6012228891731e-06
 175    1.6801429493815e-07
 176    -1.0314331381334e-05
 177    4.7382548057144e-06
 178    1.9764243336112e-06
 179    2.6886589306045e-05
 180    -1.6161990512679e-06
 181    -4.3181631713539e-06
 182    -6.3519466728058e-07
 183    1.3706034006996e-06
 184    -1.3714226327875e-06
 185    3.1767069164175e-06
 186    2.7923945245018e-05
 187    -7.7948372347296e-05
 188    2.3645910631286e-06
 189    -7.8975747239773e-07
 190    -5.1810170981562e-06
 191    -1.102281890831e-07
 192    1.1050520541884e-05
 193    6.8889338140683e-05
 194    -3.3402424056851e-06
 195    -1.4526913951488e-06
 196    -2.3172774244895e-06
 197    3.4961805665265e-07
 198    -3.0472026564799e-07
 199    7.4695461903863e-06
 200    9.6935819362331e-07
 201    1.8083115357329e-06
 202    -2.0562853767551e-05
 203    1.0860048283335e-05
 204    6.3352158579472e-06
 205    1.0909869165337e-06
 206    2.5782613161616e-05
 207    -1.0368724955754e-05
 208    6.6719452301706e-05
 209    -9.8926303837893e-06
 210    2.5974334082215e-05
 211    -5.3341266847436e-06
 212    -1.6138739240303e-05
 213    7.1303353866644e-07
 214    1.958948823288e-05
 215    2.1024063289214e-06
 216     3.10421703526e-05
 217    -1.4570115611022e-06
 218    -7.772604894019e-06
 219    -4.8884941446256e-07
 220    3.3161128917197e-07
 221    7.3625905295932e-06
 222    7.7830766027786e-05
 223    -0.00076152770861809
 224    1.3210322550983e-05
 225    2.9609617827263e-06
 226    -1.2528728302763e-05
 227    -0.00058756062980247
 228    -0.0002746380007368
 229    0.00084839293846504
 230    -7.2953152327682e-07
 231    3.9470515413258e-05
 232    1.9917839444125e-05
 233    -1.9725545695158e-05
 234    -2.0894815086421e-05
 235    1.5197925261462e-05
 236    4.0577662766923e-05
 237    9.5071430116184e-05
 238    1.8777987713857e-05
 239    1.6304009605647e-06
 240    -5.8112226145601e-06
 241    -0.00024350781419709
 242    -0.00029953711013493
 243    0.0014436219025415
 244    -1.2403277942682e-05
 245    -6.4539507241315e-05
 246    -1.3892537487615e-05
 247    -1.7269324804549e-05
 248    -8.6327181809851e-07
 249    3.1361620275056e-05
 250    -0.00029515525504981
 251    2.3833791023194e-05
 252    0.00038488235830942
 253    -0.0019408988367946
 254    -7.5198504333209e-05
 255    3.8846073333998e-05
 256    -0.00021838180365824
 257    0.00010219190304302
 258    -0.00042361776326408
 259    0.0017224929952843
 260    6.0448866940045e-05
 261    1.2700725336282e-05
 262    1.866321086902e-05
 263    -0.00012728953585452
 264    -8.4837394915077e-05
 265    8.4253259444053e-05
 266    -0.00018999728360798
 267    0.00013680215931873
 268    0.00052378832846848
 269    7.2432970219528e-05
 270    0.00048217239552521
 271    -0.0063838834789555
 272    4.6082486547289e-05
 273    -0.00010431935703243
 274    -0.00013077848286425
 275    0.0017461022911984
 276    0.0026293371141663
 277    -0.0023698450344406
 278    -7.0613519692366e-05
 279    0.00017093224786391
 280    7.4854099855263e-05
 281    2.673711082953e-05