[Molden Format]
made by pyscf v[2.0.1]
[Atoms] (AU)
C   1   6     0.69100024066471     0.64692934207205    -3.48223131169301
H   2   1     2.68052439830868     1.13355088658700    -3.25784032593313
C   3   6    -0.36286361513219     0.85440132524594    -5.97030179418974
H   4   1    -2.35448549047279     0.36322488579172    -6.17995817793143
C   5   6     0.93697958957450     1.61209284601821    -8.05828437677121
H   6   1     2.68174994182533     2.67994959464420    -7.82079505522331
C   7   6     0.13444904340515     1.08121190669811   -10.59410649762000
H   8   1    -1.61655526267424     0.00863003830430   -10.80213119601662
H   9   1     1.55630230933075    -1.92953025305990    12.99630010416247
C   10   6     0.75233899775814    -2.21270439606481    11.10705728102219
H   11   1    -0.43433408177274    -3.90944857546550    11.22216085340412
C   12   6     2.86362581178706    -2.63237380607947     9.17926416456045
H   13   1     4.39038949912609    -1.24955421540245     9.49899813497433
H   14   1     3.74629220191363    -4.48798724300892     9.47414880959024
C   15   6     2.02478325613682    -2.42177285709634     6.44560829588644
C   16   6     3.88048732735477    -3.58795445234514     4.61402886975252
C   17   6    -0.18412382258602    -1.30464291234259     5.76021113872346
C   18   6    -2.10044360464350    -0.26837831858460     7.71610340967100
C   19   6    -3.08956938670431     2.35282328359417     6.88693925039594
C   20   6    -4.37372924086464    -2.09766595989678     7.93610724222001
C   21   6    -0.83850430601230     0.06372213486173    10.33002307638377
H   22   1     0.38411922151109     1.74281358582432    10.27380136542181
H   23   1    -2.30980003007874     0.45460143924521    11.73986301809809
H   24   1     4.58527064644668    -5.38706904487420     5.36778158031719
H   25   1     5.54944938085014    -2.37631462192748     4.35398898413318
H   26   1     3.06633019150423    -3.94118377050688     2.75255466040884
H   27   1    -4.17727778763735     2.26573369139522     5.12914900961283
H   28   1    -1.52662344944051     3.68001877445626     6.59540397144508
H   29   1    -4.32916174397830     3.13643051467482     8.35225460090378
H   30   1    -5.32329548508442    -2.36691813602939     6.11583672749896
H   31   1    -5.77989366602257    -1.33896741843465     9.25748940450990
H   32   1    -3.79310905208926    -3.96389819310853     8.61386170102686
C   33   6    -1.01100794811226    -1.06331657314144     3.11929490449947
C   34   6     0.37686231036534    -0.33275864505552     1.09165013605873
H   35   1    -3.01671213906703    -1.40297922279997     2.77827895090944
C   36   6    -0.64382707979370    -0.11591880174385    -1.42063131251064
H   37   1     2.35569259782137     0.17174499283897     1.33641070251401
H   38   1    -2.63317482980319    -0.60229203511219    -1.66119700387645
C   39   6     1.36441264344082     1.79875350819652   -12.72695837882209
C   40   6     0.39042169983249     1.16479015456541   -15.22824898409742
H   41   1     3.11744943935123     2.87075295695162   -12.65315109008398
O   42   8     1.39604269582139     1.74939992973347   -17.22017818748739
H   43   1    -1.40767336523230     0.06622817248511   -15.21429812709214
[GTO]
1 0
 s    6 1.00
             3047.5249  0.0018347001629433
             457.36951    0.01403730124668
             103.94869   0.068842606114048
             29.210155    0.23218442062076
              9.286663    0.46794134155879
              3.163927    0.36231203217765
 s    3 1.00
             7.8682724   -0.11933240861517
             1.8812885   -0.16085421161283
             0.5442493     1.1434564825515
 s    1 1.00
             0.1687144                   1
 p    3 1.00
             7.8682724   0.068999095584993
             1.8812885    0.31642397975315
             0.5442493    0.74430825237435
 p    1 1.00
             0.1687144                   1
 d    1 1.00
                   0.8                   1

2 0
 s    3 1.00
             18.731137    0.03349459952309
             2.8253937    0.23472694665786
             0.6401217    0.81375731841339
 s    1 1.00
             0.1612778                   1

3 0
 s    6 1.00
             3047.5249  0.0018347001629433
             457.36951    0.01403730124668
             103.94869   0.068842606114048
             29.210155    0.23218442062076
              9.286663    0.46794134155879
              3.163927    0.36231203217765
 s    3 1.00
             7.8682724   -0.11933240861517
             1.8812885   -0.16085421161283
             0.5442493     1.1434564825515
 s    1 1.00
             0.1687144                   1
 p    3 1.00
             7.8682724   0.068999095584993
             1.8812885    0.31642397975315
             0.5442493    0.74430825237435
 p    1 1.00
             0.1687144                   1
 d    1 1.00
                   0.8                   1

4 0
 s    3 1.00
             18.731137    0.03349459952309
             2.8253937    0.23472694665786
             0.6401217    0.81375731841339
 s    1 1.00
             0.1612778                   1

5 0
 s    6 1.00
             3047.5249  0.0018347001629433
             457.36951    0.01403730124668
             103.94869   0.068842606114048
             29.210155    0.23218442062076
              9.286663    0.46794134155879
              3.163927    0.36231203217765
 s    3 1.00
             7.8682724   -0.11933240861517
             1.8812885   -0.16085421161283
             0.5442493     1.1434564825515
 s    1 1.00
             0.1687144                   1
 p    3 1.00
             7.8682724   0.068999095584993
             1.8812885    0.31642397975315
             0.5442493    0.74430825237435
 p    1 1.00
             0.1687144                   1
 d    1 1.00
                   0.8                   1

6 0
 s    3 1.00
             18.731137    0.03349459952309
             2.8253937    0.23472694665786
             0.6401217    0.81375731841339
 s    1 1.00
             0.1612778                   1

7 0
 s    6 1.00
             3047.5249  0.0018347001629433
             457.36951    0.01403730124668
             103.94869   0.068842606114048
             29.210155    0.23218442062076
              9.286663    0.46794134155879
              3.163927    0.36231203217765
 s    3 1.00
             7.8682724   -0.11933240861517
             1.8812885   -0.16085421161283
             0.5442493     1.1434564825515
 s    1 1.00
             0.1687144                   1
 p    3 1.00
             7.8682724   0.068999095584993
             1.8812885    0.31642397975315
             0.5442493    0.74430825237435
 p    1 1.00
             0.1687144                   1
 d    1 1.00
                   0.8                   1

8 0
 s    3 1.00
             18.731137    0.03349459952309
             2.8253937    0.23472694665786
             0.6401217    0.81375731841339
 s    1 1.00
             0.1612778                   1

9 0
 s    3 1.00
             18.731137    0.03349459952309
             2.8253937    0.23472694665786
             0.6401217    0.81375731841339
 s    1 1.00
             0.1612778                   1

10 0
 s    6 1.00
             3047.5249  0.0018347001629433
             457.36951    0.01403730124668
             103.94869   0.068842606114048
             29.210155    0.23218442062076
              9.286663    0.46794134155879
              3.163927    0.36231203217765
 s    3 1.00
             7.8682724   -0.11933240861517
             1.8812885   -0.16085421161283
             0.5442493     1.1434564825515
 s    1 1.00
             0.1687144                   1
 p    3 1.00
             7.8682724   0.068999095584993
             1.8812885    0.31642397975315
             0.5442493    0.74430825237435
 p    1 1.00
             0.1687144                   1
 d    1 1.00
                   0.8                   1

11 0
 s    3 1.00
             18.731137    0.03349459952309
             2.8253937    0.23472694665786
             0.6401217    0.81375731841339
 s    1 1.00
             0.1612778                   1

12 0
 s    6 1.00
             3047.5249  0.0018347001629433
             457.36951    0.01403730124668
             103.94869   0.068842606114048
             29.210155    0.23218442062076
              9.286663    0.46794134155879
              3.163927    0.36231203217765
 s    3 1.00
             7.8682724   -0.11933240861517
             1.8812885   -0.16085421161283
             0.5442493     1.1434564825515
 s    1 1.00
             0.1687144                   1
 p    3 1.00
             7.8682724   0.068999095584993
             1.8812885    0.31642397975315
             0.5442493    0.74430825237435
 p    1 1.00
             0.1687144                   1
 d    1 1.00
                   0.8                   1

13 0
 s    3 1.00
             18.731137    0.03349459952309
             2.8253937    0.23472694665786
             0.6401217    0.81375731841339
 s    1 1.00
             0.1612778                   1

14 0
 s    3 1.00
             18.731137    0.03349459952309
             2.8253937    0.23472694665786
             0.6401217    0.81375731841339
 s    1 1.00
             0.1612778                   1

15 0
 s    6 1.00
             3047.5249  0.0018347001629433
             457.36951    0.01403730124668
             103.94869   0.068842606114048
             29.210155    0.23218442062076
              9.286663    0.46794134155879
              3.163927    0.36231203217765
 s    3 1.00
             7.8682724   -0.11933240861517
             1.8812885   -0.16085421161283
             0.5442493     1.1434564825515
 s    1 1.00
             0.1687144                   1
 p    3 1.00
             7.8682724   0.068999095584993
             1.8812885    0.31642397975315
             0.5442493    0.74430825237435
 p    1 1.00
             0.1687144                   1
 d    1 1.00
                   0.8                   1

16 0
 s    6 1.00
             3047.5249  0.0018347001629433
             457.36951    0.01403730124668
             103.94869   0.068842606114048
             29.210155    0.23218442062076
              9.286663    0.46794134155879
              3.163927    0.36231203217765
 s    3 1.00
             7.8682724   -0.11933240861517
             1.8812885   -0.16085421161283
             0.5442493     1.1434564825515
 s    1 1.00
             0.1687144                   1
 p    3 1.00
             7.8682724   0.068999095584993
             1.8812885    0.31642397975315
             0.5442493    0.74430825237435
 p    1 1.00
             0.1687144                   1
 d    1 1.00
                   0.8                   1

17 0
 s    6 1.00
             3047.5249  0.0018347001629433
             457.36951    0.01403730124668
             103.94869   0.068842606114048
             29.210155    0.23218442062076
              9.286663    0.46794134155879
              3.163927    0.36231203217765
 s    3 1.00
             7.8682724   -0.11933240861517
             1.8812885   -0.16085421161283
             0.5442493     1.1434564825515
 s    1 1.00
             0.1687144                   1
 p    3 1.00
             7.8682724   0.068999095584993
             1.8812885    0.31642397975315
             0.5442493    0.74430825237435
 p    1 1.00
             0.1687144                   1
 d    1 1.00
                   0.8                   1

18 0
 s    6 1.00
             3047.5249  0.0018347001629433
             457.36951    0.01403730124668
             103.94869   0.068842606114048
             29.210155    0.23218442062076
              9.286663    0.46794134155879
              3.163927    0.36231203217765
 s    3 1.00
             7.8682724   -0.11933240861517
             1.8812885   -0.16085421161283
             0.5442493     1.1434564825515
 s    1 1.00
             0.1687144                   1
 p    3 1.00
             7.8682724   0.068999095584993
             1.8812885    0.31642397975315
             0.5442493    0.74430825237435
 p    1 1.00
             0.1687144                   1
 d    1 1.00
                   0.8                   1

19 0
 s    6 1.00
             3047.5249  0.0018347001629433
             457.36951    0.01403730124668
             103.94869   0.068842606114048
             29.210155    0.23218442062076
              9.286663    0.46794134155879
              3.163927    0.36231203217765
 s    3 1.00
             7.8682724   -0.11933240861517
             1.8812885   -0.16085421161283
             0.5442493     1.1434564825515
 s    1 1.00
             0.1687144                   1
 p    3 1.00
             7.8682724   0.068999095584993
             1.8812885    0.31642397975315
             0.5442493    0.74430825237435
 p    1 1.00
             0.1687144                   1
 d    1 1.00
                   0.8                   1

20 0
 s    6 1.00
             3047.5249  0.0018347001629433
             457.36951    0.01403730124668
             103.94869   0.068842606114048
             29.210155    0.23218442062076
              9.286663    0.46794134155879
              3.163927    0.36231203217765
 s    3 1.00
             7.8682724   -0.11933240861517
             1.8812885   -0.16085421161283
             0.5442493     1.1434564825515
 s    1 1.00
             0.1687144                   1
 p    3 1.00
             7.8682724   0.068999095584993
             1.8812885    0.31642397975315
             0.5442493    0.74430825237435
 p    1 1.00
             0.1687144                   1
 d    1 1.00
                   0.8                   1

21 0
 s    6 1.00
             3047.5249  0.0018347001629433
             457.36951    0.01403730124668
             103.94869   0.068842606114048
             29.210155    0.23218442062076
              9.286663    0.46794134155879
              3.163927    0.36231203217765
 s    3 1.00
             7.8682724   -0.11933240861517
             1.8812885   -0.16085421161283
             0.5442493     1.1434564825515
 s    1 1.00
             0.1687144                   1
 p    3 1.00
             7.8682724   0.068999095584993
             1.8812885    0.31642397975315
             0.5442493    0.74430825237435
 p    1 1.00
             0.1687144                   1
 d    1 1.00
                   0.8                   1

22 0
 s    3 1.00
             18.731137    0.03349459952309
             2.8253937    0.23472694665786
             0.6401217    0.81375731841339
 s    1 1.00
             0.1612778                   1

23 0
 s    3 1.00
             18.731137    0.03349459952309
             2.8253937    0.23472694665786
             0.6401217    0.81375731841339
 s    1 1.00
             0.1612778                   1

24 0
 s    3 1.00
             18.731137    0.03349459952309
             2.8253937    0.23472694665786
             0.6401217    0.81375731841339
 s    1 1.00
             0.1612778                   1

25 0
 s    3 1.00
             18.731137    0.03349459952309
             2.8253937    0.23472694665786
             0.6401217    0.81375731841339
 s    1 1.00
             0.1612778                   1

26 0
 s    3 1.00
             18.731137    0.03349459952309
             2.8253937    0.23472694665786
             0.6401217    0.81375731841339
 s    1 1.00
             0.1612778                   1

27 0
 s    3 1.00
             18.731137    0.03349459952309
             2.8253937    0.23472694665786
             0.6401217    0.81375731841339
 s    1 1.00
             0.1612778                   1

28 0
 s    3 1.00
             18.731137    0.03349459952309
             2.8253937    0.23472694665786
             0.6401217    0.81375731841339
 s    1 1.00
             0.1612778                   1

29 0
 s    3 1.00
             18.731137    0.03349459952309
             2.8253937    0.23472694665786
             0.6401217    0.81375731841339
 s    1 1.00
             0.1612778                   1

30 0
 s    3 1.00
             18.731137    0.03349459952309
             2.8253937    0.23472694665786
             0.6401217    0.81375731841339
 s    1 1.00
             0.1612778                   1

31 0
 s    3 1.00
             18.731137    0.03349459952309
             2.8253937    0.23472694665786
             0.6401217    0.81375731841339
 s    1 1.00
             0.1612778                   1

32 0
 s    3 1.00
             18.731137    0.03349459952309
             2.8253937    0.23472694665786
             0.6401217    0.81375731841339
 s    1 1.00
             0.1612778                   1

33 0
 s    6 1.00
             3047.5249  0.0018347001629433
             457.36951    0.01403730124668
             103.94869   0.068842606114048
             29.210155    0.23218442062076
              9.286663    0.46794134155879
              3.163927    0.36231203217765
 s    3 1.00
             7.8682724   -0.11933240861517
             1.8812885   -0.16085421161283
             0.5442493     1.1434564825515
 s    1 1.00
             0.1687144                   1
 p    3 1.00
             7.8682724   0.068999095584993
             1.8812885    0.31642397975315
             0.5442493    0.74430825237435
 p    1 1.00
             0.1687144                   1
 d    1 1.00
                   0.8                   1

34 0
 s    6 1.00
             3047.5249  0.0018347001629433
             457.36951    0.01403730124668
             103.94869   0.068842606114048
             29.210155    0.23218442062076
              9.286663    0.46794134155879
              3.163927    0.36231203217765
 s    3 1.00
             7.8682724   -0.11933240861517
             1.8812885   -0.16085421161283
             0.5442493     1.1434564825515
 s    1 1.00
             0.1687144                   1
 p    3 1.00
             7.8682724   0.068999095584993
             1.8812885    0.31642397975315
             0.5442493    0.74430825237435
 p    1 1.00
             0.1687144                   1
 d    1 1.00
                   0.8                   1

35 0
 s    3 1.00
             18.731137    0.03349459952309
             2.8253937    0.23472694665786
             0.6401217    0.81375731841339
 s    1 1.00
             0.1612778                   1

36 0
 s    6 1.00
             3047.5249  0.0018347001629433
             457.36951    0.01403730124668
             103.94869   0.068842606114048
             29.210155    0.23218442062076
              9.286663    0.46794134155879
              3.163927    0.36231203217765
 s    3 1.00
             7.8682724   -0.11933240861517
             1.8812885   -0.16085421161283
             0.5442493     1.1434564825515
 s    1 1.00
             0.1687144                   1
 p    3 1.00
             7.8682724   0.068999095584993
             1.8812885    0.31642397975315
             0.5442493    0.74430825237435
 p    1 1.00
             0.1687144                   1
 d    1 1.00
                   0.8                   1

37 0
 s    3 1.00
             18.731137    0.03349459952309
             2.8253937    0.23472694665786
             0.6401217    0.81375731841339
 s    1 1.00
             0.1612778                   1

38 0
 s    3 1.00
             18.731137    0.03349459952309
             2.8253937    0.23472694665786
             0.6401217    0.81375731841339
 s    1 1.00
             0.1612778                   1

39 0
 s    6 1.00
             3047.5249  0.0018347001629433
             457.36951    0.01403730124668
             103.94869   0.068842606114048
             29.210155    0.23218442062076
              9.286663    0.46794134155879
              3.163927    0.36231203217765
 s    3 1.00
             7.8682724   -0.11933240861517
             1.8812885   -0.16085421161283
             0.5442493     1.1434564825515
 s    1 1.00
             0.1687144                   1
 p    3 1.00
             7.8682724   0.068999095584993
             1.8812885    0.31642397975315
             0.5442493    0.74430825237435
 p    1 1.00
             0.1687144                   1
 d    1 1.00
                   0.8                   1

40 0
 s    6 1.00
             3047.5249  0.0018347001629433
             457.36951    0.01403730124668
             103.94869   0.068842606114048
             29.210155    0.23218442062076
              9.286663    0.46794134155879
              3.163927    0.36231203217765
 s    3 1.00
             7.8682724   -0.11933240861517
             1.8812885   -0.16085421161283
             0.5442493     1.1434564825515
 s    1 1.00
             0.1687144                   1
 p    3 1.00
             7.8682724   0.068999095584993
             1.8812885    0.31642397975315
             0.5442493    0.74430825237435
 p    1 1.00
             0.1687144                   1
 d    1 1.00
                   0.8                   1

41 0
 s    3 1.00
             18.731137    0.03349459952309
             2.8253937    0.23472694665786
             0.6401217    0.81375731841339
 s    1 1.00
             0.1612778                   1

42 0
 s    6 1.00
             5484.6717   0.001831099805527
             825.23495   0.013950098518422
             188.04696    0.06844509273075
               52.9645    0.23271427528445
              16.89757    0.47019295006289
             5.7996353    0.35852086192309
 s    3 1.00
             15.539616   -0.11077750382508
             3.5999336   -0.14802630511126
             1.0137618     1.1307670390447
 s    1 1.00
             0.2700058                   1
 p    3 1.00
             15.539616   0.070874299543311
             3.5999336    0.33975279781076
             1.0137618    0.72715859531445
 p    1 1.00
             0.2700058                   1
 d    1 1.00
                   0.8                   1

43 0
 s    3 1.00
             18.731137    0.03349459952309
             2.8253937    0.23472694665786
             0.6401217    0.81375731841339
 s    1 1.00
             0.1612778                   1

[5d]
[7f]
[9g]

[MO]
 Sym= A
 Ene=               0
 Spin= Alpha
 Occup=    1.00000
   1    -1.117141035749e-05
   2    5.1943102425462e-05
   3    -0.00029214475961002
   4    -1.794308095053e-06
   5    3.4888429864666e-05
   6    -4.3106325242677e-06
   7    2.8792802544938e-05
   8    -0.00029168195425297
   9    0.00093719636879214
  10    -1.6259194302995e-05
  11    -4.158035763706e-05
  12    -5.6439847627055e-06
  13    -1.4175425769545e-05
  14    -8.8410414043553e-08
  15    4.0873437842188e-05
  16    -0.0001301063223296
  17    -0.00041569223569025
  18    0.00032647479474691
  19    -0.00084801686956408
  20    -1.3624636709986e-05
  21    4.4192073710437e-07
  22    -0.00020080176750606
  23    0.00019209355937435
  24    -0.00017167877392864
  25     0.001167070627153
  26    5.7181370368565e-05
  27    3.2717690454526e-07
  28    -2.0828817536203e-05
  29    -7.057226430568e-05
  30    -0.00012218144676262
  31    0.00011049294980424
  32    0.00034855762135928
  33    -0.013901844570887
  34    0.0010131815872936
  35    -0.0069626072455947
  36    -0.00032855751107981
  37    -0.00021778037346704
  38    -0.0011324923946583
  39    -0.00037314487641913
  40    -0.00011525852795948
  41    0.0041719057594147
  42    0.00099688557874257
  43    0.00072070440378174
  44    0.00047634122786806
  45    9.2837227580401e-05
  46    0.00018847063061006
  47    0.00041160313671602
  48    0.00060244048019555
  49     -0.99500393139138
  50    -0.036043474002881
  51     0.027951263109744
  52    -0.00062086062239512
  53    -0.00034527735890293
  54    9.1118603163094e-05
  55    0.0029281094537584
  56     0.001784976008264
  57    0.00050725464508387
  58    -0.00087194066567794
  59    0.00034659882197011
  60    0.00018322747468151
  61    -0.0001559758217194
  62    -0.0002901480323131
  63    0.0011198318412769
  64    -0.0038206650969149
  65     4.56122824142e-07
  66    1.0342982845317e-06
  67    -6.0618667343623e-09
  68    3.2618461917681e-07
  69    -2.4469782207879e-06
  70    -6.1227954708947e-08
  71    5.2671544210333e-07
  72    -8.5375816822077e-08
  73    -1.7640911387582e-06
  74    -3.2498000479109e-06
  75    -1.4782703861144e-06
  76    7.9415004731391e-08
  77    1.1482322163781e-07
  78    -6.3434815336415e-08
  79    -7.9102373570791e-08
  80    1.0666176095586e-07
  81    -4.9121644243773e-07
  82    -9.5134016583648e-07
  83    5.3154031637937e-08
  84    1.1012617413376e-06
  85    1.9384299670174e-05
  86    -1.1555613403134e-06
  87    -2.1403793915023e-07
  88    -1.3484036767953e-06
  89    -4.1906443676239e-06
  90    7.2814541911467e-06
  91    -4.7089827641484e-06
  92    -4.1166933196309e-07
  93    3.9105657576702e-07
  94    -4.0730296399031e-07
  95    -8.0048274051016e-08
  96    2.4296690624297e-07
  97    -9.914622313359e-07
  98    -1.627631080703e-06
  99    6.0881911208625e-08
 100    2.5877600850284e-06
 101    -2.6106776927712e-07
 102    -6.3375962960333e-07
 103    1.078747569937e-05
 104    -6.632084514016e-07
 105    2.1220660494036e-06
 106    5.7604888081052e-07
 107    2.6692164435031e-05
 108    -2.3365415477161e-05
 109    -5.798037914874e-05
 110    1.5000987137411e-06
 111    7.3018321657331e-07
 112    -4.2832995036097e-07
 113    -5.5858609546531e-09
 114    5.0460126677342e-07
 115    8.8010782380715e-07
 116    8.4818710127683e-06
 117    -5.9213750951424e-05
 118    4.5278805027249e-07
 119    7.765318722709e-07
 120    -2.6301933464876e-06
 121    1.8956109196915e-05
 122    -1.6922267918438e-05
 123    -4.8197971284042e-06
 124    2.0199153842055e-07
 125    7.8738124073633e-07
 126    -3.9846932692217e-07
 127    -8.0531439619901e-07
 128    5.9401703986801e-07
 129    1.217549436665e-06
 130    1.2230966972049e-05
 131    -7.5339370846777e-05
 132    9.7708006930222e-07
 133    -8.4611354615483e-08
 134    -5.8899701070067e-06
 135    1.0677364730095e-05
 136    9.8243294696789e-06
 137    0.0001269676702505
 138    -2.9576359753555e-06
 139    -2.5662342701876e-06
 140    2.8398774876392e-07
 141    -7.1585945671482e-07
 142    -9.1315617908324e-08
 143    1.0504761267128e-06
 144    9.1854941239912e-06
 145    -5.0990586634295e-05
 146    -1.0173288278622e-06
 147    -6.104933782596e-07
 148    -1.1212269229283e-06
 149    -2.0512977618535e-05
 150    1.1575821508501e-05
 151    2.1448554641473e-05
 152    1.1713589028473e-06
 153    1.2644987178144e-06
 154    -1.9266069022416e-08
 155    -1.032987658536e-06
 156    1.3527803346632e-06
 157    -1.8361778047998e-07
 158    -1.4620869569809e-06
 159    4.9099873121768e-06
 160    -8.0423416713536e-07
 161    -3.255781742931e-07
 162    6.0812154924796e-07
 163    8.971924361069e-06
 164    -2.8634627040827e-06
 165    -4.628471827239e-06
 166    -9.9448373410409e-07
 167    5.8103468335036e-07
 168    2.1131089957656e-07
 169    -9.9803835678818e-08
 170    -3.3540909041468e-07
 171    -7.4560190318874e-08
 172    6.491313578426e-07
 173    7.6242236901146e-06
 174    1.8964731502901e-06
 175    4.8468857206699e-07
 176    -1.4298748518669e-06
 177    -2.5592750463163e-06
 178    -1.8163148111501e-06
 179    1.6996812775019e-07
 180    -7.6004386823755e-08
 181    -4.5244694394476e-07
 182    -3.9758893344478e-07
 183    5.3303651147462e-07
 184    -2.5947067258158e-07
 185    4.1351085864725e-07
 186    4.2503123725886e-06
 187    -7.440526415843e-06
 188    1.9549912096103e-07
 189    -1.4079055243005e-07
 190    -1.5788490835461e-06
 191    -3.5153716872566e-08
 192    -3.8704227402956e-07
 193    8.5040219115266e-06
 194    -3.2571574822723e-07
 195    -6.4579933015393e-08
 196    -3.3927696634178e-07
 197    -2.7117395226734e-07
 198    1.7286523947768e-07
 199    8.3462671670782e-07
 200    1.2362716123136e-06
 201    1.5288605852128e-07
 202    -4.0081458505104e-06
 203    1.2800963826497e-06
 204    -5.0967179725595e-06
 205    1.819278003822e-06
 206    5.554583389964e-06
 207    9.8010262466931e-07
 208    7.0328047241809e-06
 209    -1.72606788809e-06
 210    2.8522377706436e-06
 211    -1.2999570710205e-06
 212    -3.0592403798194e-06
 213    4.0534235514089e-07
 214    3.5544456206129e-06
 215    1.2602759954672e-06
 216    -6.8752116184987e-06
 217    -6.9058961207172e-07
 218    -3.1328844312628e-06
 219    -3.8526944047194e-07
 220    -1.0517328917406e-06
 221    1.5983878429468e-06
 222    1.4444619340844e-05
 223    -2.2502941010397e-05
 224    -2.9029132128025e-06
 225    2.0203098400922e-06
 226    -4.4715147157899e-06
 227    -1.1886992125144e-05
 228    -3.6698111177281e-05
 229    0.00015043580505658
 230    4.1342915681456e-07
 231    6.8926288937237e-06
 232    1.8789256748359e-06
 233    -3.9842986396213e-06
 234    -3.2160831824696e-06
 235    2.0272712176414e-06
 236    2.6318538350254e-05
 237    -2.5445230037825e-05
 238    1.3879056526335e-06
 239    2.8069540921193e-06
 240    -1.2419300131058e-05
 241     3.51628590249e-05
 242    -3.1705940604384e-05
 243    0.00014439693270921
 244    -2.309112934649e-06
 245    -1.2557827744927e-05
 246    1.5880759987112e-06
 247    -6.5834395588056e-06
 248    9.2251900989014e-07
 249    5.0259976089465e-06
 250    5.5597127166894e-07
 251    5.0105570566961e-06
 252    3.2136487012549e-05
 253    -0.00044236088327563
 254    7.0944143244142e-06
 255    -5.2763394388506e-06
 256    -8.7033091280529e-06
 257    -0.00031574049367734
 258    -9.8886227648984e-05
 259    0.00038901537805882
 260    -1.6278698353741e-06
 261    2.5526042730669e-05
 262    5.0527114839966e-06
 263    -1.5272877860185e-05
 264    -6.6931247891966e-06
 265    5.1915691165318e-06
 266    -3.0976740175049e-05
 267    1.2873177829535e-05
 268    -0.00016426281028333
 269    -0.0002047499652232
 270    0.0018598109847532
 271    -0.008658474473123
 272    -0.00085099186669119
 273    -0.00049591164917303
 274    0.0014618772713414
 275    0.00044079571833161
 276    0.00020671814407855
 277    -0.0037173840318421
 278    0.00064233031247582
 279    -0.00097267790816284
 280    -0.00057149942402188