[Molden Format]
made by pyscf v[2.0.1]
[Atoms] (AU)
C   1   6     0.69100024066471     0.64692934207205    -3.48223131169301
H   2   1     2.68052439830868     1.13355088658700    -3.25784032593313
C   3   6    -0.36286361513219     0.85440132524594    -5.97030179418974
H   4   1    -2.35448549047279     0.36322488579172    -6.17995817793143
C   5   6     0.93697958957450     1.61209284601821    -8.05828437677121
H   6   1     1.03927160684768     3.62047501567417    -8.50199621914587
C   7   6     2.20035018302409    -0.10258413888539    -9.73758817852609
H   8   1     2.08224949102462    -2.10886499715255    -9.26789512642378
H   9   1     1.55630230933075    -1.92953025305990    12.99630010416247
C   10   6     0.75233899775814    -2.21270439606481    11.10705728102219
H   11   1    -0.43433408177274    -3.90944857546550    11.22216085340412
C   12   6     2.86362581178706    -2.63237380607947     9.17926416456045
H   13   1     4.39038949912609    -1.24955421540245     9.49899813497433
H   14   1     3.74629220191363    -4.48798724300892     9.47414880959024
C   15   6     2.02478325613682    -2.42177285709634     6.44560829588644
C   16   6     3.88048732735477    -3.58795445234514     4.61402886975252
C   17   6    -0.18412382258602    -1.30464291234259     5.76021113872346
C   18   6    -2.10044360464350    -0.26837831858460     7.71610340967100
C   19   6    -3.08956938670431     2.35282328359417     6.88693925039594
C   20   6    -4.37372924086464    -2.09766595989678     7.93610724222001
C   21   6    -0.83850430601230     0.06372213486173    10.33002307638377
H   22   1     0.38411922151109     1.74281358582432    10.27380136542181
H   23   1    -2.30980003007874     0.45460143924521    11.73986301809809
H   24   1     4.58527064644668    -5.38706904487420     5.36778158031719
H   25   1     5.54944938085014    -2.37631462192748     4.35398898413318
H   26   1     3.06633019150423    -3.94118377050688     2.75255466040884
H   27   1    -4.17727778763735     2.26573369139522     5.12914900961283
H   28   1    -1.52662344944051     3.68001877445626     6.59540397144508
H   29   1    -4.32916174397830     3.13643051467482     8.35225460090378
H   30   1    -5.32329548508442    -2.36691813602939     6.11583672749896
H   31   1    -5.77989366602257    -1.33896741843465     9.25748940450990
H   32   1    -3.79310905208926    -3.96389819310853     8.61386170102686
C   33   6    -1.01100794811226    -1.06331657314144     3.11929490449947
C   34   6     0.37686231036534    -0.33275864505552     1.09165013605873
H   35   1    -3.01671213906703    -1.40297922279997     2.77827895090944
C   36   6    -0.64382707979370    -0.11591880174385    -1.42063131251064
H   37   1     2.35569259782137     0.17174499283897     1.33641070251401
H   38   1    -2.63317482980319    -0.60229203511219    -1.66119700387645
C   39   6     3.51308281939799     0.56451683374771   -11.83721740116087
C   40   6     4.73454985947753    -1.32827425009098   -13.42856361339847
H   41   1     3.70368628307445     2.52946227119814   -12.41204614817202
O   42   8     5.94050384923934    -0.86285538356078   -15.33903067176323
H   43   1     4.49094488416901    -3.31470750932465   -12.76908014850535
[GTO]
1 0
 s    6 1.00
             3047.5249  0.0018347001629433
             457.36951    0.01403730124668
             103.94869   0.068842606114048
             29.210155    0.23218442062076
              9.286663    0.46794134155879
              3.163927    0.36231203217765
 s    3 1.00
             7.8682724   -0.11933240861517
             1.8812885   -0.16085421161283
             0.5442493     1.1434564825515
 s    1 1.00
             0.1687144                   1
 p    3 1.00
             7.8682724   0.068999095584993
             1.8812885    0.31642397975315
             0.5442493    0.74430825237435
 p    1 1.00
             0.1687144                   1
 d    1 1.00
                   0.8                   1

2 0
 s    3 1.00
             18.731137    0.03349459952309
             2.8253937    0.23472694665786
             0.6401217    0.81375731841339
 s    1 1.00
             0.1612778                   1

3 0
 s    6 1.00
             3047.5249  0.0018347001629433
             457.36951    0.01403730124668
             103.94869   0.068842606114048
             29.210155    0.23218442062076
              9.286663    0.46794134155879
              3.163927    0.36231203217765
 s    3 1.00
             7.8682724   -0.11933240861517
             1.8812885   -0.16085421161283
             0.5442493     1.1434564825515
 s    1 1.00
             0.1687144                   1
 p    3 1.00
             7.8682724   0.068999095584993
             1.8812885    0.31642397975315
             0.5442493    0.74430825237435
 p    1 1.00
             0.1687144                   1
 d    1 1.00
                   0.8                   1

4 0
 s    3 1.00
             18.731137    0.03349459952309
             2.8253937    0.23472694665786
             0.6401217    0.81375731841339
 s    1 1.00
             0.1612778                   1

5 0
 s    6 1.00
             3047.5249  0.0018347001629433
             457.36951    0.01403730124668
             103.94869   0.068842606114048
             29.210155    0.23218442062076
              9.286663    0.46794134155879
              3.163927    0.36231203217765
 s    3 1.00
             7.8682724   -0.11933240861517
             1.8812885   -0.16085421161283
             0.5442493     1.1434564825515
 s    1 1.00
             0.1687144                   1
 p    3 1.00
             7.8682724   0.068999095584993
             1.8812885    0.31642397975315
             0.5442493    0.74430825237435
 p    1 1.00
             0.1687144                   1
 d    1 1.00
                   0.8                   1

6 0
 s    3 1.00
             18.731137    0.03349459952309
             2.8253937    0.23472694665786
             0.6401217    0.81375731841339
 s    1 1.00
             0.1612778                   1

7 0
 s    6 1.00
             3047.5249  0.0018347001629433
             457.36951    0.01403730124668
             103.94869   0.068842606114048
             29.210155    0.23218442062076
              9.286663    0.46794134155879
              3.163927    0.36231203217765
 s    3 1.00
             7.8682724   -0.11933240861517
             1.8812885   -0.16085421161283
             0.5442493     1.1434564825515
 s    1 1.00
             0.1687144                   1
 p    3 1.00
             7.8682724   0.068999095584993
             1.8812885    0.31642397975315
             0.5442493    0.74430825237435
 p    1 1.00
             0.1687144                   1
 d    1 1.00
                   0.8                   1

8 0
 s    3 1.00
             18.731137    0.03349459952309
             2.8253937    0.23472694665786
             0.6401217    0.81375731841339
 s    1 1.00
             0.1612778                   1

9 0
 s    3 1.00
             18.731137    0.03349459952309
             2.8253937    0.23472694665786
             0.6401217    0.81375731841339
 s    1 1.00
             0.1612778                   1

10 0
 s    6 1.00
             3047.5249  0.0018347001629433
             457.36951    0.01403730124668
             103.94869   0.068842606114048
             29.210155    0.23218442062076
              9.286663    0.46794134155879
              3.163927    0.36231203217765
 s    3 1.00
             7.8682724   -0.11933240861517
             1.8812885   -0.16085421161283
             0.5442493     1.1434564825515
 s    1 1.00
             0.1687144                   1
 p    3 1.00
             7.8682724   0.068999095584993
             1.8812885    0.31642397975315
             0.5442493    0.74430825237435
 p    1 1.00
             0.1687144                   1
 d    1 1.00
                   0.8                   1

11 0
 s    3 1.00
             18.731137    0.03349459952309
             2.8253937    0.23472694665786
             0.6401217    0.81375731841339
 s    1 1.00
             0.1612778                   1

12 0
 s    6 1.00
             3047.5249  0.0018347001629433
             457.36951    0.01403730124668
             103.94869   0.068842606114048
             29.210155    0.23218442062076
              9.286663    0.46794134155879
              3.163927    0.36231203217765
 s    3 1.00
             7.8682724   -0.11933240861517
             1.8812885   -0.16085421161283
             0.5442493     1.1434564825515
 s    1 1.00
             0.1687144                   1
 p    3 1.00
             7.8682724   0.068999095584993
             1.8812885    0.31642397975315
             0.5442493    0.74430825237435
 p    1 1.00
             0.1687144                   1
 d    1 1.00
                   0.8                   1

13 0
 s    3 1.00
             18.731137    0.03349459952309
             2.8253937    0.23472694665786
             0.6401217    0.81375731841339
 s    1 1.00
             0.1612778                   1

14 0
 s    3 1.00
             18.731137    0.03349459952309
             2.8253937    0.23472694665786
             0.6401217    0.81375731841339
 s    1 1.00
             0.1612778                   1

15 0
 s    6 1.00
             3047.5249  0.0018347001629433
             457.36951    0.01403730124668
             103.94869   0.068842606114048
             29.210155    0.23218442062076
              9.286663    0.46794134155879
              3.163927    0.36231203217765
 s    3 1.00
             7.8682724   -0.11933240861517
             1.8812885   -0.16085421161283
             0.5442493     1.1434564825515
 s    1 1.00
             0.1687144                   1
 p    3 1.00
             7.8682724   0.068999095584993
             1.8812885    0.31642397975315
             0.5442493    0.74430825237435
 p    1 1.00
             0.1687144                   1
 d    1 1.00
                   0.8                   1

16 0
 s    6 1.00
             3047.5249  0.0018347001629433
             457.36951    0.01403730124668
             103.94869   0.068842606114048
             29.210155    0.23218442062076
              9.286663    0.46794134155879
              3.163927    0.36231203217765
 s    3 1.00
             7.8682724   -0.11933240861517
             1.8812885   -0.16085421161283
             0.5442493     1.1434564825515
 s    1 1.00
             0.1687144                   1
 p    3 1.00
             7.8682724   0.068999095584993
             1.8812885    0.31642397975315
             0.5442493    0.74430825237435
 p    1 1.00
             0.1687144                   1
 d    1 1.00
                   0.8                   1

17 0
 s    6 1.00
             3047.5249  0.0018347001629433
             457.36951    0.01403730124668
             103.94869   0.068842606114048
             29.210155    0.23218442062076
              9.286663    0.46794134155879
              3.163927    0.36231203217765
 s    3 1.00
             7.8682724   -0.11933240861517
             1.8812885   -0.16085421161283
             0.5442493     1.1434564825515
 s    1 1.00
             0.1687144                   1
 p    3 1.00
             7.8682724   0.068999095584993
             1.8812885    0.31642397975315
             0.5442493    0.74430825237435
 p    1 1.00
             0.1687144                   1
 d    1 1.00
                   0.8                   1

18 0
 s    6 1.00
             3047.5249  0.0018347001629433
             457.36951    0.01403730124668
             103.94869   0.068842606114048
             29.210155    0.23218442062076
              9.286663    0.46794134155879
              3.163927    0.36231203217765
 s    3 1.00
             7.8682724   -0.11933240861517
             1.8812885   -0.16085421161283
             0.5442493     1.1434564825515
 s    1 1.00
             0.1687144                   1
 p    3 1.00
             7.8682724   0.068999095584993
             1.8812885    0.31642397975315
             0.5442493    0.74430825237435
 p    1 1.00
             0.1687144                   1
 d    1 1.00
                   0.8                   1

19 0
 s    6 1.00
             3047.5249  0.0018347001629433
             457.36951    0.01403730124668
             103.94869   0.068842606114048
             29.210155    0.23218442062076
              9.286663    0.46794134155879
              3.163927    0.36231203217765
 s    3 1.00
             7.8682724   -0.11933240861517
             1.8812885   -0.16085421161283
             0.5442493     1.1434564825515
 s    1 1.00
             0.1687144                   1
 p    3 1.00
             7.8682724   0.068999095584993
             1.8812885    0.31642397975315
             0.5442493    0.74430825237435
 p    1 1.00
             0.1687144                   1
 d    1 1.00
                   0.8                   1

20 0
 s    6 1.00
             3047.5249  0.0018347001629433
             457.36951    0.01403730124668
             103.94869   0.068842606114048
             29.210155    0.23218442062076
              9.286663    0.46794134155879
              3.163927    0.36231203217765
 s    3 1.00
             7.8682724   -0.11933240861517
             1.8812885   -0.16085421161283
             0.5442493     1.1434564825515
 s    1 1.00
             0.1687144                   1
 p    3 1.00
             7.8682724   0.068999095584993
             1.8812885    0.31642397975315
             0.5442493    0.74430825237435
 p    1 1.00
             0.1687144                   1
 d    1 1.00
                   0.8                   1

21 0
 s    6 1.00
             3047.5249  0.0018347001629433
             457.36951    0.01403730124668
             103.94869   0.068842606114048
             29.210155    0.23218442062076
              9.286663    0.46794134155879
              3.163927    0.36231203217765
 s    3 1.00
             7.8682724   -0.11933240861517
             1.8812885   -0.16085421161283
             0.5442493     1.1434564825515
 s    1 1.00
             0.1687144                   1
 p    3 1.00
             7.8682724   0.068999095584993
             1.8812885    0.31642397975315
             0.5442493    0.74430825237435
 p    1 1.00
             0.1687144                   1
 d    1 1.00
                   0.8                   1

22 0
 s    3 1.00
             18.731137    0.03349459952309
             2.8253937    0.23472694665786
             0.6401217    0.81375731841339
 s    1 1.00
             0.1612778                   1

23 0
 s    3 1.00
             18.731137    0.03349459952309
             2.8253937    0.23472694665786
             0.6401217    0.81375731841339
 s    1 1.00
             0.1612778                   1

24 0
 s    3 1.00
             18.731137    0.03349459952309
             2.8253937    0.23472694665786
             0.6401217    0.81375731841339
 s    1 1.00
             0.1612778                   1

25 0
 s    3 1.00
             18.731137    0.03349459952309
             2.8253937    0.23472694665786
             0.6401217    0.81375731841339
 s    1 1.00
             0.1612778                   1

26 0
 s    3 1.00
             18.731137    0.03349459952309
             2.8253937    0.23472694665786
             0.6401217    0.81375731841339
 s    1 1.00
             0.1612778                   1

27 0
 s    3 1.00
             18.731137    0.03349459952309
             2.8253937    0.23472694665786
             0.6401217    0.81375731841339
 s    1 1.00
             0.1612778                   1

28 0
 s    3 1.00
             18.731137    0.03349459952309
             2.8253937    0.23472694665786
             0.6401217    0.81375731841339
 s    1 1.00
             0.1612778                   1

29 0
 s    3 1.00
             18.731137    0.03349459952309
             2.8253937    0.23472694665786
             0.6401217    0.81375731841339
 s    1 1.00
             0.1612778                   1

30 0
 s    3 1.00
             18.731137    0.03349459952309
             2.8253937    0.23472694665786
             0.6401217    0.81375731841339
 s    1 1.00
             0.1612778                   1

31 0
 s    3 1.00
             18.731137    0.03349459952309
             2.8253937    0.23472694665786
             0.6401217    0.81375731841339
 s    1 1.00
             0.1612778                   1

32 0
 s    3 1.00
             18.731137    0.03349459952309
             2.8253937    0.23472694665786
             0.6401217    0.81375731841339
 s    1 1.00
             0.1612778                   1

33 0
 s    6 1.00
             3047.5249  0.0018347001629433
             457.36951    0.01403730124668
             103.94869   0.068842606114048
             29.210155    0.23218442062076
              9.286663    0.46794134155879
              3.163927    0.36231203217765
 s    3 1.00
             7.8682724   -0.11933240861517
             1.8812885   -0.16085421161283
             0.5442493     1.1434564825515
 s    1 1.00
             0.1687144                   1
 p    3 1.00
             7.8682724   0.068999095584993
             1.8812885    0.31642397975315
             0.5442493    0.74430825237435
 p    1 1.00
             0.1687144                   1
 d    1 1.00
                   0.8                   1

34 0
 s    6 1.00
             3047.5249  0.0018347001629433
             457.36951    0.01403730124668
             103.94869   0.068842606114048
             29.210155    0.23218442062076
              9.286663    0.46794134155879
              3.163927    0.36231203217765
 s    3 1.00
             7.8682724   -0.11933240861517
             1.8812885   -0.16085421161283
             0.5442493     1.1434564825515
 s    1 1.00
             0.1687144                   1
 p    3 1.00
             7.8682724   0.068999095584993
             1.8812885    0.31642397975315
             0.5442493    0.74430825237435
 p    1 1.00
             0.1687144                   1
 d    1 1.00
                   0.8                   1

35 0
 s    3 1.00
             18.731137    0.03349459952309
             2.8253937    0.23472694665786
             0.6401217    0.81375731841339
 s    1 1.00
             0.1612778                   1

36 0
 s    6 1.00
             3047.5249  0.0018347001629433
             457.36951    0.01403730124668
             103.94869   0.068842606114048
             29.210155    0.23218442062076
              9.286663    0.46794134155879
              3.163927    0.36231203217765
 s    3 1.00
             7.8682724   -0.11933240861517
             1.8812885   -0.16085421161283
             0.5442493     1.1434564825515
 s    1 1.00
             0.1687144                   1
 p    3 1.00
             7.8682724   0.068999095584993
             1.8812885    0.31642397975315
             0.5442493    0.74430825237435
 p    1 1.00
             0.1687144                   1
 d    1 1.00
                   0.8                   1

37 0
 s    3 1.00
             18.731137    0.03349459952309
             2.8253937    0.23472694665786
             0.6401217    0.81375731841339
 s    1 1.00
             0.1612778                   1

38 0
 s    3 1.00
             18.731137    0.03349459952309
             2.8253937    0.23472694665786
             0.6401217    0.81375731841339
 s    1 1.00
             0.1612778                   1

39 0
 s    6 1.00
             3047.5249  0.0018347001629433
             457.36951    0.01403730124668
             103.94869   0.068842606114048
             29.210155    0.23218442062076
              9.286663    0.46794134155879
              3.163927    0.36231203217765
 s    3 1.00
             7.8682724   -0.11933240861517
             1.8812885   -0.16085421161283
             0.5442493     1.1434564825515
 s    1 1.00
             0.1687144                   1
 p    3 1.00
             7.8682724   0.068999095584993
             1.8812885    0.31642397975315
             0.5442493    0.74430825237435
 p    1 1.00
             0.1687144                   1
 d    1 1.00
                   0.8                   1

40 0
 s    6 1.00
             3047.5249  0.0018347001629433
             457.36951    0.01403730124668
             103.94869   0.068842606114048
             29.210155    0.23218442062076
              9.286663    0.46794134155879
              3.163927    0.36231203217765
 s    3 1.00
             7.8682724   -0.11933240861517
             1.8812885   -0.16085421161283
             0.5442493     1.1434564825515
 s    1 1.00
             0.1687144                   1
 p    3 1.00
             7.8682724   0.068999095584993
             1.8812885    0.31642397975315
             0.5442493    0.74430825237435
 p    1 1.00
             0.1687144                   1
 d    1 1.00
                   0.8                   1

41 0
 s    3 1.00
             18.731137    0.03349459952309
             2.8253937    0.23472694665786
             0.6401217    0.81375731841339
 s    1 1.00
             0.1612778                   1

42 0
 s    6 1.00
             5484.6717   0.001831099805527
             825.23495   0.013950098518422
             188.04696    0.06844509273075
               52.9645    0.23271427528445
              16.89757    0.47019295006289
             5.7996353    0.35852086192309
 s    3 1.00
             15.539616   -0.11077750382508
             3.5999336   -0.14802630511126
             1.0137618     1.1307670390447
 s    1 1.00
             0.2700058                   1
 p    3 1.00
             15.539616   0.070874299543311
             3.5999336    0.33975279781076
             1.0137618    0.72715859531445
 p    1 1.00
             0.2700058                   1
 d    1 1.00
                   0.8                   1

43 0
 s    3 1.00
             18.731137    0.03349459952309
             2.8253937    0.23472694665786
             0.6401217    0.81375731841339
 s    1 1.00
             0.1612778                   1

[5d]
[7f]
[9g]

[MO]
 Sym= A
 Ene=               0
 Spin= Alpha
 Occup=    1.00000
   1    -0.020074341476614
   2    0.0008564398886398
   3    -0.0068573681854671
   4    -0.00036925358745139
   5    0.00012352293807824
   6    -0.0011651358659096
   7    -0.00083059323568271
   8    -0.0012463594560455
   9    0.0054602411961956
  10    0.00088887147083909
  11    0.00085515133065306
  12    -0.00014139888872845
  13    0.00020513955480817
  14    -3.843755645913e-05
  15     0.000492867985201
  16    0.00089066183957476
  17     -0.99486830524476
  18    -0.036849922163065
  19     0.028434841619327
  20    -0.00092188351534566
  21    -0.00015886553152289
  22    0.00057298563337564
  23    0.0035448661949932
  24    0.0010629813520652
  25    0.00078195238510651
  26    -0.00077002139769237
  27    0.0003011664969452
  28    0.0003417673819574
  29    -0.00029911355096539
  30    -0.00020259273645637
  31    0.0011113090041607
  32    -0.0038723608408189
  33     -0.01232213304468
  34    0.00028093703079449
  35    -0.00094361510208215
  36    -0.00083554625640617
  37    -0.00031591912239904
  38     0.001113836712663
  39    0.0022945536051351
  40    -0.0035388551931754
  41    -0.0041064864449351
  42    0.00060418736979619
  43    -0.0011747865769431
  44    -0.00045170977489533
  45    0.0003366449390393
  46    0.00038150969343237
  47    0.0005500469581176
  48    0.00060787429242195
  49    0.00027424497517031
  50    0.00054869163875242
  51    -0.00032097466454496
  52    -0.00024235099541102
  53    -2.3417484468432e-05
  54    0.00040702782048073
  55    0.0047652372433142
  56    -0.0011310075375829
  57    -0.0070381833408118
  58    0.00014397710910938
  59    1.6666643722201e-05
  60    -0.00016650758467617
  61    0.00023940632922062
  62    0.00018023458993613
  63    0.00047618661207012
  64    -0.0002472627838969
  65    2.6847130840711e-06
  66    4.3035699418492e-06
  67     1.19004172449e-07
  68    1.3245231574226e-06
  69    -6.9388701631461e-06
  70    -2.2990430191494e-06
  71    4.5743712913263e-06
  72    2.4705324871547e-07
  73    -1.2934417543495e-05
  74    -2.4366196467094e-05
  75    -9.2372689041917e-06
  76    1.2998520244037e-07
  77    3.5186742264894e-07
  78    -3.3708929908335e-07
  79    -5.7135594031276e-07
  80    5.3727582035315e-08
  81    -2.3743971573665e-06
  82    -1.2234911107588e-05
  83    -1.8373125937755e-07
  84    -1.3001285682917e-06
  85    6.5669786359829e-05
  86    -3.4775789566456e-06
  87    -2.9377391606681e-06
  88    -5.0954092595875e-06
  89    -2.3776877174441e-05
  90    6.2532698453634e-05
  91    -7.3257572730872e-06
  92    -1.6142032487389e-06
  93    2.7570143907357e-06
  94    -3.641858600727e-06
  95    7.4446602840279e-07
  96    1.1041483213571e-06
  97    -6.4601267212086e-06
  98    -1.0991305806307e-05
  99    3.0730086770868e-06
 100    1.8115811270287e-05
 101    1.0201118279407e-06
 102    1.1861541626672e-05
 103    -0.00022876633002326
 104    6.528303519257e-07
 105    6.2121866751265e-06
 106    3.2813487879933e-06
 107    0.00018791755190217
 108    -0.00018250667163096
 109    -0.00013585391668753
 110    5.8320695804998e-06
 111    1.627696819065e-07
 112    -5.1144833819086e-08
 113    -1.4208523005313e-06
 114    5.3566441669251e-06
 115    3.2152318652215e-06
 116    3.2266902032267e-05
 117    -0.00023297819295276
 118    2.3411785429193e-06
 119    -2.9271964421753e-06
 120    -5.3446487479032e-06
 121    4.8419535565927e-05
 122    -1.1093919344275e-05
 123    -2.9015044216851e-05
 124    -1.5329130353978e-06
 125    2.755799073312e-06
 126    2.3913606254983e-06
 127    -5.4011902198863e-07
 128    2.188132377764e-06
 129    5.3472511811796e-06
 130    5.1998168721989e-05
 131    -0.00015143526469941
 132    -5.56080076044e-06
 133    4.5286531742935e-06
 134    -2.1901677790887e-05
 135    0.00034390631566586
 136    -4.1100934774807e-05
 137    0.00040304818827578
 138    -9.3685240356961e-06
 139    -1.3005961993594e-05
 140    -5.6731568287977e-06
 141    -4.4375618510189e-06
 142    -6.6701095620572e-06
 143    2.0622950474711e-06
 144    2.5850180801091e-05
 145    -2.7543293446279e-05
 146    -2.5080176794729e-06
 147    -5.6920920219764e-06
 148    -1.1771143880476e-05
 149    -1.5174599931494e-05
 150    1.3578518884912e-06
 151    5.9765938609674e-05
 152    6.8644530335841e-06
 153    3.7036742271299e-06
 154    2.9880426610051e-06
 155    -4.1712586051427e-06
 156    3.9423916115063e-06
 157    -1.4533880577517e-06
 158    -1.223207911815e-05
 159    3.3500823113328e-05
 160    -5.7551058341398e-06
 161    1.5749882450484e-07
 162    1.6427317551911e-06
 163    4.8379091617004e-05
 164    -2.2964245271834e-05
 165    -1.0083643901166e-05
 166    -4.1933616962257e-06
 167    5.8400905179298e-07
 168     2.06898137733e-07
 169    -7.5762496357353e-07
 170    -1.8770003661668e-06
 171    4.5343905374857e-07
 172    1.1897788455316e-05
 173    -2.1966403820406e-05
 174    3.8852997787732e-06
 175    2.5978177947417e-07
 176    -1.0751663937664e-05
 177    1.7999251542399e-06
 178    1.5670224379717e-06
 179    2.6021260226064e-05
 180    -1.5623328054994e-06
 181    -4.5715663134871e-06
 182    -7.7291191086252e-07
 183    1.2393733043101e-06
 184    -1.5469545743634e-06
 185    3.2477009346095e-06
 186    2.8618223972566e-05
 187    -8.1906596828453e-05
 188    2.4058333672077e-06
 189    -7.3999067242104e-07
 190    -5.2668714339224e-06
 191    1.6169280695484e-06
 192    1.3005015905822e-05
 193    7.0205057426557e-05
 194    -3.2795852003832e-06
 195    -1.5906807585804e-06
 196    -2.6167115676269e-06
 197    3.2248127949657e-07
 198    -3.6537781830016e-07
 199    7.5587032045605e-06
 200    2.1467619380992e-07
 201    1.9705355014145e-06
 202    -2.0491231371194e-05
 203    1.0817587024812e-05
 204    5.2175485538993e-06
 205    9.9417456842606e-07
 206    2.6740228872453e-05
 207    -9.7592933520971e-06
 208    6.2634319611024e-05
 209    -1.0683022168864e-05
 210    2.6009148181927e-05
 211    -5.940032990732e-06
 212    -1.6898276407514e-05
 213    7.3836221272321e-07
 214    2.074742057617e-05
 215    2.6565517101962e-06
 216    2.8249278688639e-05
 217    -1.5520940896168e-06
 218    -8.583887520889e-06
 219    -5.2313280668942e-07
 220    1.1806282001873e-06
 221    8.1200867067768e-06
 222    8.2753035654403e-05
 223    -0.00081732131005456
 224    1.1886564512027e-05
 225    4.9573879811649e-06
 226    -1.1825179265527e-05
 227    -0.00060176490687632
 228    -0.00028797173918001
 229    0.0008865497651584
 230    -1.8612276747415e-06
 231    4.1399880891119e-05
 232    2.0651868026153e-05
 233    -2.071588274702e-05
 234    -2.1474396750852e-05
 235    1.4486461242875e-05
 236    3.7333774943574e-05
 237    0.00018325856435149
 238    1.9724130381575e-05
 239    2.5860054844182e-06
 240    -9.9126895630979e-06
 241    -0.00026965110543174
 242    -0.00032230967504385
 243    0.0014607198947301
 244    -9.826663244018e-06
 245    -6.6736929665561e-05
 246    -1.2841118442139e-05
 247    -1.7990830134963e-05
 248    1.1261620481093e-06
 249    3.2888360580184e-05
 250    -0.00029443599315854
 251    2.4842676447589e-05
 252    0.00039092115270378
 253    -0.0020579183337552
 254    -7.1453146742735e-05
 255    3.0940081906212e-05
 256    -0.00021703879173539
 257    2.5234283250138e-05
 258    -0.00039434629784465
 259    0.0017344793229114
 260    5.7666485286453e-05
 261    1.5768775638936e-05
 262    1.6161618117483e-05
 263    -0.00013164375239561
 264    -8.1138828480359e-05
 265    8.6598924167901e-05
 266    -0.00019287932988675
 267    0.0001346894675619
 268    0.00050455951478337
 269    7.509224917713e-05
 270    0.00050068471232925
 271    -0.0066524453939844
 272    7.6112639319811e-05
 273    -0.0001105266268107
 274    -0.00012056909233017
 275    0.0015379715924798
 276    0.0027460579274823
 277    -0.0026177110700153
 278    -7.8852904863894e-05
 279    0.00017353773862038
 280    9.0191597596027e-05
 281    2.9958245191708e-05