[Molden Format]
made by pyscf v[2.0.1]
[Atoms] (AU)
C   1   6     0.69100024066471     0.64692934207205    -3.48223131169301
H   2   1     2.68052439830868     1.13355088658700    -3.25784032593313
C   3   6    -0.36286361513219     0.85440132524594    -5.97030179418974
H   4   1    -2.35448549047279     0.36322488579172    -6.17995817793143
C   5   6     0.93697958957450     1.61209284601821    -8.05828437677121
H   6   1     0.96138501035509     3.61074187827952    -8.55401536893531
C   7   6     2.29833572157337    -0.09037665740906    -9.67215882917863
H   8   1     2.25763405404964    -2.08692321364337    -9.15074973557782
H   9   1     1.55630230933075    -1.92953025305990    12.99630010416247
C   10   6     0.75233899775814    -2.21270439606481    11.10705728102219
H   11   1    -0.43433408177274    -3.90944857546550    11.22216085340412
C   12   6     2.86362581178706    -2.63237380607947     9.17926416456045
H   13   1     4.39038949912609    -1.24955421540245     9.49899813497433
H   14   1     3.74629220191363    -4.48798724300892     9.47414880959024
C   15   6     2.02478325613682    -2.42177285709634     6.44560829588644
C   16   6     3.88048732735477    -3.58795445234514     4.61402886975252
C   17   6    -0.18412382258602    -1.30464291234259     5.76021113872346
C   18   6    -2.10044360464350    -0.26837831858460     7.71610340967100
C   19   6    -3.08956938670431     2.35282328359417     6.88693925039594
C   20   6    -4.37372924086464    -2.09766595989678     7.93610724222001
C   21   6    -0.83850430601230     0.06372213486173    10.33002307638377
H   22   1     0.38411922151109     1.74281358582432    10.27380136542181
H   23   1    -2.30980003007874     0.45460143924521    11.73986301809809
H   24   1     4.58527064644668    -5.38706904487420     5.36778158031719
H   25   1     5.54944938085014    -2.37631462192748     4.35398898413318
H   26   1     3.06633019150423    -3.94118377050688     2.75255466040884
H   27   1    -4.17727778763735     2.26573369139522     5.12914900961283
H   28   1    -1.52662344944051     3.68001877445626     6.59540397144508
H   29   1    -4.32916174397830     3.13643051467482     8.35225460090378
H   30   1    -5.32329548508442    -2.36691813602939     6.11583672749896
H   31   1    -5.77989366602257    -1.33896741843465     9.25748940450990
H   32   1    -3.79310905208926    -3.96389819310853     8.61386170102686
C   33   6    -1.01100794811226    -1.06331657314144     3.11929490449947
C   34   6     0.37686231036534    -0.33275864505552     1.09165013605873
H   35   1    -3.01671213906703    -1.40297922279997     2.77827895090944
C   36   6    -0.64382707979370    -0.11591880174385    -1.42063131251064
H   37   1     2.35569259782137     0.17174499283897     1.33641070251401
H   38   1    -2.63317482980319    -0.60229203511219    -1.66119700387645
C   39   6     3.61506927759443     0.57708357993929   -11.76916696671870
C   40   6     4.94068653136927    -1.30276865816170   -13.29098070185656
H   41   1     3.73162541044975     2.53269508104841   -12.39347992177894
O   42   8     6.15625203764207    -0.83635548426311   -15.19510343410387
H   43   1     4.77073908343657    -3.27989237609552   -12.58226454806003
[GTO]
1 0
 s    6 1.00
             3047.5249  0.0018347001629433
             457.36951    0.01403730124668
             103.94869   0.068842606114048
             29.210155    0.23218442062076
              9.286663    0.46794134155879
              3.163927    0.36231203217765
 s    3 1.00
             7.8682724   -0.11933240861517
             1.8812885   -0.16085421161283
             0.5442493     1.1434564825515
 s    1 1.00
             0.1687144                   1
 p    3 1.00
             7.8682724   0.068999095584993
             1.8812885    0.31642397975315
             0.5442493    0.74430825237435
 p    1 1.00
             0.1687144                   1
 d    1 1.00
                   0.8                   1

2 0
 s    3 1.00
             18.731137    0.03349459952309
             2.8253937    0.23472694665786
             0.6401217    0.81375731841339
 s    1 1.00
             0.1612778                   1

3 0
 s    6 1.00
             3047.5249  0.0018347001629433
             457.36951    0.01403730124668
             103.94869   0.068842606114048
             29.210155    0.23218442062076
              9.286663    0.46794134155879
              3.163927    0.36231203217765
 s    3 1.00
             7.8682724   -0.11933240861517
             1.8812885   -0.16085421161283
             0.5442493     1.1434564825515
 s    1 1.00
             0.1687144                   1
 p    3 1.00
             7.8682724   0.068999095584993
             1.8812885    0.31642397975315
             0.5442493    0.74430825237435
 p    1 1.00
             0.1687144                   1
 d    1 1.00
                   0.8                   1

4 0
 s    3 1.00
             18.731137    0.03349459952309
             2.8253937    0.23472694665786
             0.6401217    0.81375731841339
 s    1 1.00
             0.1612778                   1

5 0
 s    6 1.00
             3047.5249  0.0018347001629433
             457.36951    0.01403730124668
             103.94869   0.068842606114048
             29.210155    0.23218442062076
              9.286663    0.46794134155879
              3.163927    0.36231203217765
 s    3 1.00
             7.8682724   -0.11933240861517
             1.8812885   -0.16085421161283
             0.5442493     1.1434564825515
 s    1 1.00
             0.1687144                   1
 p    3 1.00
             7.8682724   0.068999095584993
             1.8812885    0.31642397975315
             0.5442493    0.74430825237435
 p    1 1.00
             0.1687144                   1
 d    1 1.00
                   0.8                   1

6 0
 s    3 1.00
             18.731137    0.03349459952309
             2.8253937    0.23472694665786
             0.6401217    0.81375731841339
 s    1 1.00
             0.1612778                   1

7 0
 s    6 1.00
             3047.5249  0.0018347001629433
             457.36951    0.01403730124668
             103.94869   0.068842606114048
             29.210155    0.23218442062076
              9.286663    0.46794134155879
              3.163927    0.36231203217765
 s    3 1.00
             7.8682724   -0.11933240861517
             1.8812885   -0.16085421161283
             0.5442493     1.1434564825515
 s    1 1.00
             0.1687144                   1
 p    3 1.00
             7.8682724   0.068999095584993
             1.8812885    0.31642397975315
             0.5442493    0.74430825237435
 p    1 1.00
             0.1687144                   1
 d    1 1.00
                   0.8                   1

8 0
 s    3 1.00
             18.731137    0.03349459952309
             2.8253937    0.23472694665786
             0.6401217    0.81375731841339
 s    1 1.00
             0.1612778                   1

9 0
 s    3 1.00
             18.731137    0.03349459952309
             2.8253937    0.23472694665786
             0.6401217    0.81375731841339
 s    1 1.00
             0.1612778                   1

10 0
 s    6 1.00
             3047.5249  0.0018347001629433
             457.36951    0.01403730124668
             103.94869   0.068842606114048
             29.210155    0.23218442062076
              9.286663    0.46794134155879
              3.163927    0.36231203217765
 s    3 1.00
             7.8682724   -0.11933240861517
             1.8812885   -0.16085421161283
             0.5442493     1.1434564825515
 s    1 1.00
             0.1687144                   1
 p    3 1.00
             7.8682724   0.068999095584993
             1.8812885    0.31642397975315
             0.5442493    0.74430825237435
 p    1 1.00
             0.1687144                   1
 d    1 1.00
                   0.8                   1

11 0
 s    3 1.00
             18.731137    0.03349459952309
             2.8253937    0.23472694665786
             0.6401217    0.81375731841339
 s    1 1.00
             0.1612778                   1

12 0
 s    6 1.00
             3047.5249  0.0018347001629433
             457.36951    0.01403730124668
             103.94869   0.068842606114048
             29.210155    0.23218442062076
              9.286663    0.46794134155879
              3.163927    0.36231203217765
 s    3 1.00
             7.8682724   -0.11933240861517
             1.8812885   -0.16085421161283
             0.5442493     1.1434564825515
 s    1 1.00
             0.1687144                   1
 p    3 1.00
             7.8682724   0.068999095584993
             1.8812885    0.31642397975315
             0.5442493    0.74430825237435
 p    1 1.00
             0.1687144                   1
 d    1 1.00
                   0.8                   1

13 0
 s    3 1.00
             18.731137    0.03349459952309
             2.8253937    0.23472694665786
             0.6401217    0.81375731841339
 s    1 1.00
             0.1612778                   1

14 0
 s    3 1.00
             18.731137    0.03349459952309
             2.8253937    0.23472694665786
             0.6401217    0.81375731841339
 s    1 1.00
             0.1612778                   1

15 0
 s    6 1.00
             3047.5249  0.0018347001629433
             457.36951    0.01403730124668
             103.94869   0.068842606114048
             29.210155    0.23218442062076
              9.286663    0.46794134155879
              3.163927    0.36231203217765
 s    3 1.00
             7.8682724   -0.11933240861517
             1.8812885   -0.16085421161283
             0.5442493     1.1434564825515
 s    1 1.00
             0.1687144                   1
 p    3 1.00
             7.8682724   0.068999095584993
             1.8812885    0.31642397975315
             0.5442493    0.74430825237435
 p    1 1.00
             0.1687144                   1
 d    1 1.00
                   0.8                   1

16 0
 s    6 1.00
             3047.5249  0.0018347001629433
             457.36951    0.01403730124668
             103.94869   0.068842606114048
             29.210155    0.23218442062076
              9.286663    0.46794134155879
              3.163927    0.36231203217765
 s    3 1.00
             7.8682724   -0.11933240861517
             1.8812885   -0.16085421161283
             0.5442493     1.1434564825515
 s    1 1.00
             0.1687144                   1
 p    3 1.00
             7.8682724   0.068999095584993
             1.8812885    0.31642397975315
             0.5442493    0.74430825237435
 p    1 1.00
             0.1687144                   1
 d    1 1.00
                   0.8                   1

17 0
 s    6 1.00
             3047.5249  0.0018347001629433
             457.36951    0.01403730124668
             103.94869   0.068842606114048
             29.210155    0.23218442062076
              9.286663    0.46794134155879
              3.163927    0.36231203217765
 s    3 1.00
             7.8682724   -0.11933240861517
             1.8812885   -0.16085421161283
             0.5442493     1.1434564825515
 s    1 1.00
             0.1687144                   1
 p    3 1.00
             7.8682724   0.068999095584993
             1.8812885    0.31642397975315
             0.5442493    0.74430825237435
 p    1 1.00
             0.1687144                   1
 d    1 1.00
                   0.8                   1

18 0
 s    6 1.00
             3047.5249  0.0018347001629433
             457.36951    0.01403730124668
             103.94869   0.068842606114048
             29.210155    0.23218442062076
              9.286663    0.46794134155879
              3.163927    0.36231203217765
 s    3 1.00
             7.8682724   -0.11933240861517
             1.8812885   -0.16085421161283
             0.5442493     1.1434564825515
 s    1 1.00
             0.1687144                   1
 p    3 1.00
             7.8682724   0.068999095584993
             1.8812885    0.31642397975315
             0.5442493    0.74430825237435
 p    1 1.00
             0.1687144                   1
 d    1 1.00
                   0.8                   1

19 0
 s    6 1.00
             3047.5249  0.0018347001629433
             457.36951    0.01403730124668
             103.94869   0.068842606114048
             29.210155    0.23218442062076
              9.286663    0.46794134155879
              3.163927    0.36231203217765
 s    3 1.00
             7.8682724   -0.11933240861517
             1.8812885   -0.16085421161283
             0.5442493     1.1434564825515
 s    1 1.00
             0.1687144                   1
 p    3 1.00
             7.8682724   0.068999095584993
             1.8812885    0.31642397975315
             0.5442493    0.74430825237435
 p    1 1.00
             0.1687144                   1
 d    1 1.00
                   0.8                   1

20 0
 s    6 1.00
             3047.5249  0.0018347001629433
             457.36951    0.01403730124668
             103.94869   0.068842606114048
             29.210155    0.23218442062076
              9.286663    0.46794134155879
              3.163927    0.36231203217765
 s    3 1.00
             7.8682724   -0.11933240861517
             1.8812885   -0.16085421161283
             0.5442493     1.1434564825515
 s    1 1.00
             0.1687144                   1
 p    3 1.00
             7.8682724   0.068999095584993
             1.8812885    0.31642397975315
             0.5442493    0.74430825237435
 p    1 1.00
             0.1687144                   1
 d    1 1.00
                   0.8                   1

21 0
 s    6 1.00
             3047.5249  0.0018347001629433
             457.36951    0.01403730124668
             103.94869   0.068842606114048
             29.210155    0.23218442062076
              9.286663    0.46794134155879
              3.163927    0.36231203217765
 s    3 1.00
             7.8682724   -0.11933240861517
             1.8812885   -0.16085421161283
             0.5442493     1.1434564825515
 s    1 1.00
             0.1687144                   1
 p    3 1.00
             7.8682724   0.068999095584993
             1.8812885    0.31642397975315
             0.5442493    0.74430825237435
 p    1 1.00
             0.1687144                   1
 d    1 1.00
                   0.8                   1

22 0
 s    3 1.00
             18.731137    0.03349459952309
             2.8253937    0.23472694665786
             0.6401217    0.81375731841339
 s    1 1.00
             0.1612778                   1

23 0
 s    3 1.00
             18.731137    0.03349459952309
             2.8253937    0.23472694665786
             0.6401217    0.81375731841339
 s    1 1.00
             0.1612778                   1

24 0
 s    3 1.00
             18.731137    0.03349459952309
             2.8253937    0.23472694665786
             0.6401217    0.81375731841339
 s    1 1.00
             0.1612778                   1

25 0
 s    3 1.00
             18.731137    0.03349459952309
             2.8253937    0.23472694665786
             0.6401217    0.81375731841339
 s    1 1.00
             0.1612778                   1

26 0
 s    3 1.00
             18.731137    0.03349459952309
             2.8253937    0.23472694665786
             0.6401217    0.81375731841339
 s    1 1.00
             0.1612778                   1

27 0
 s    3 1.00
             18.731137    0.03349459952309
             2.8253937    0.23472694665786
             0.6401217    0.81375731841339
 s    1 1.00
             0.1612778                   1

28 0
 s    3 1.00
             18.731137    0.03349459952309
             2.8253937    0.23472694665786
             0.6401217    0.81375731841339
 s    1 1.00
             0.1612778                   1

29 0
 s    3 1.00
             18.731137    0.03349459952309
             2.8253937    0.23472694665786
             0.6401217    0.81375731841339
 s    1 1.00
             0.1612778                   1

30 0
 s    3 1.00
             18.731137    0.03349459952309
             2.8253937    0.23472694665786
             0.6401217    0.81375731841339
 s    1 1.00
             0.1612778                   1

31 0
 s    3 1.00
             18.731137    0.03349459952309
             2.8253937    0.23472694665786
             0.6401217    0.81375731841339
 s    1 1.00
             0.1612778                   1

32 0
 s    3 1.00
             18.731137    0.03349459952309
             2.8253937    0.23472694665786
             0.6401217    0.81375731841339
 s    1 1.00
             0.1612778                   1

33 0
 s    6 1.00
             3047.5249  0.0018347001629433
             457.36951    0.01403730124668
             103.94869   0.068842606114048
             29.210155    0.23218442062076
              9.286663    0.46794134155879
              3.163927    0.36231203217765
 s    3 1.00
             7.8682724   -0.11933240861517
             1.8812885   -0.16085421161283
             0.5442493     1.1434564825515
 s    1 1.00
             0.1687144                   1
 p    3 1.00
             7.8682724   0.068999095584993
             1.8812885    0.31642397975315
             0.5442493    0.74430825237435
 p    1 1.00
             0.1687144                   1
 d    1 1.00
                   0.8                   1

34 0
 s    6 1.00
             3047.5249  0.0018347001629433
             457.36951    0.01403730124668
             103.94869   0.068842606114048
             29.210155    0.23218442062076
              9.286663    0.46794134155879
              3.163927    0.36231203217765
 s    3 1.00
             7.8682724   -0.11933240861517
             1.8812885   -0.16085421161283
             0.5442493     1.1434564825515
 s    1 1.00
             0.1687144                   1
 p    3 1.00
             7.8682724   0.068999095584993
             1.8812885    0.31642397975315
             0.5442493    0.74430825237435
 p    1 1.00
             0.1687144                   1
 d    1 1.00
                   0.8                   1

35 0
 s    3 1.00
             18.731137    0.03349459952309
             2.8253937    0.23472694665786
             0.6401217    0.81375731841339
 s    1 1.00
             0.1612778                   1

36 0
 s    6 1.00
             3047.5249  0.0018347001629433
             457.36951    0.01403730124668
             103.94869   0.068842606114048
             29.210155    0.23218442062076
              9.286663    0.46794134155879
              3.163927    0.36231203217765
 s    3 1.00
             7.8682724   -0.11933240861517
             1.8812885   -0.16085421161283
             0.5442493     1.1434564825515
 s    1 1.00
             0.1687144                   1
 p    3 1.00
             7.8682724   0.068999095584993
             1.8812885    0.31642397975315
             0.5442493    0.74430825237435
 p    1 1.00
             0.1687144                   1
 d    1 1.00
                   0.8                   1

37 0
 s    3 1.00
             18.731137    0.03349459952309
             2.8253937    0.23472694665786
             0.6401217    0.81375731841339
 s    1 1.00
             0.1612778                   1

38 0
 s    3 1.00
             18.731137    0.03349459952309
             2.8253937    0.23472694665786
             0.6401217    0.81375731841339
 s    1 1.00
             0.1612778                   1

39 0
 s    6 1.00
             3047.5249  0.0018347001629433
             457.36951    0.01403730124668
             103.94869   0.068842606114048
             29.210155    0.23218442062076
              9.286663    0.46794134155879
              3.163927    0.36231203217765
 s    3 1.00
             7.8682724   -0.11933240861517
             1.8812885   -0.16085421161283
             0.5442493     1.1434564825515
 s    1 1.00
             0.1687144                   1
 p    3 1.00
             7.8682724   0.068999095584993
             1.8812885    0.31642397975315
             0.5442493    0.74430825237435
 p    1 1.00
             0.1687144                   1
 d    1 1.00
                   0.8                   1

40 0
 s    6 1.00
             3047.5249  0.0018347001629433
             457.36951    0.01403730124668
             103.94869   0.068842606114048
             29.210155    0.23218442062076
              9.286663    0.46794134155879
              3.163927    0.36231203217765
 s    3 1.00
             7.8682724   -0.11933240861517
             1.8812885   -0.16085421161283
             0.5442493     1.1434564825515
 s    1 1.00
             0.1687144                   1
 p    3 1.00
             7.8682724   0.068999095584993
             1.8812885    0.31642397975315
             0.5442493    0.74430825237435
 p    1 1.00
             0.1687144                   1
 d    1 1.00
                   0.8                   1

41 0
 s    3 1.00
             18.731137    0.03349459952309
             2.8253937    0.23472694665786
             0.6401217    0.81375731841339
 s    1 1.00
             0.1612778                   1

42 0
 s    6 1.00
             5484.6717   0.001831099805527
             825.23495   0.013950098518422
             188.04696    0.06844509273075
               52.9645    0.23271427528445
              16.89757    0.47019295006289
             5.7996353    0.35852086192309
 s    3 1.00
             15.539616   -0.11077750382508
             3.5999336   -0.14802630511126
             1.0137618     1.1307670390447
 s    1 1.00
             0.2700058                   1
 p    3 1.00
             15.539616   0.070874299543311
             3.5999336    0.33975279781076
             1.0137618    0.72715859531445
 p    1 1.00
             0.2700058                   1
 d    1 1.00
                   0.8                   1

43 0
 s    3 1.00
             18.731137    0.03349459952309
             2.8253937    0.23472694665786
             0.6401217    0.81375731841339
 s    1 1.00
             0.1612778                   1

[5d]
[7f]
[9g]

[MO]
 Sym= A
 Ene=               0
 Spin= Alpha
 Occup=    1.00000
   1     0.020941507531658
   2    -0.0008212133749137
   3    0.0068573852291701
   4    0.0003738343302259
   5    -0.00014312484788589
   6    0.0011573362152243
   7    0.00083224033671954
   8    0.0012887538469339
   9    -0.005479596508146
  10    -0.00088337047645521
  11    -0.00085833588031368
  12    0.00014503846629864
  13    -0.00020488207575899
  14    4.1109081621631e-05
  15    -0.00049218023791879
  16    -0.00089476824707054
  17      0.99485261141099
  18     0.036854460966267
  19    -0.028454910121164
  20    0.00093341981931603
  21    0.00017960467521903
  22    -0.00056865770329051
  23    -0.0035819303859343
  24    -0.0010825579482219
  25    -0.00078972469513736
  26    0.00076410599974362
  27    -0.00030363604205131
  28    -0.00034501400963519
  29    0.00029898781824943
  30    0.00020447210175404
  31    -0.0011191013161921
  32    0.0038512457561926
  33     0.012200180885504
  34    -0.00028756400909785
  35    0.00097670303961211
  36    0.00083329903504538
  37    0.00031765758553461
  38    -0.0011134667711354
  39    -0.0024549161212319
  40    0.0035045844477384
  41    0.0039837636166368
  42    -0.00059116310492247
  43    0.0011795148053391
  44    0.00046874515729419
  45    -0.00034861391470585
  46    -0.00036145227830163
  47    -0.00055127073446595
  48    -0.00059718613520665
  49    -0.00026400363003377
  50    -0.00054357309879279
  51    0.00025883385620688
  52    0.00026277113204532
  53    2.7487363552976e-05
  54    -0.00039317947048637
  55    -0.0049788620413924
  56    0.0010788982121645
  57    0.0069135691652857
  58    -0.00015331130163966
  59    -1.8172597267566e-05
  60    0.00014970051985154
  61    -0.00022714257607557
  62    -0.00020471924292637
  63    -0.00047660978762444
  64    0.00024413911679523
  65    -2.5951281906995e-06
  66    -3.9404877465259e-06
  67    -6.5619749165621e-08
  68    -1.4308142480474e-06
  69    6.4611564360153e-06
  70    1.9804731057139e-06
  71    -4.4325512935306e-06
  72    -2.1527932159438e-08
  73    1.2769946713102e-05
  74    2.5094369460108e-05
  75    9.0009262672561e-06
  76    -1.2371361038782e-07
  77    -3.104396781158e-07
  78    3.1191748565036e-07
  79    5.6728345857512e-07
  80    -2.977453679767e-08
  81    2.4579342860628e-06
  82    1.2732929614859e-05
  83    2.2857180814828e-07
  84    1.1443009322617e-06
  85    -6.6733699001459e-05
  86    3.9316433857837e-06
  87    3.2044284029656e-06
  88    5.2177069155077e-06
  89    2.364386226126e-05
  90    -6.2862051540068e-05
  91    8.1196082585066e-06
  92    1.5827213108394e-06
  93    -2.6472079226808e-06
  94    3.7512222992578e-06
  95    -6.8979304190301e-07
  96    -1.0278618363927e-06
  97    7.2023009636208e-06
  98    1.2451557845375e-05
  99    -3.4084863482058e-06
 100    -1.8915548036054e-05
 101    -1.1405847709842e-06
 102    -1.1121733618721e-05
 103    0.00022452454192097
 104    -2.6025381817426e-06
 105    -8.8930109688041e-06
 106    -3.3295878234994e-06
 107    -0.00018746340393038
 108    0.00017993253156817
 109    0.00013838600811641
 110    -5.9098878657948e-06
 111    -2.106728904567e-07
 112    5.9022074944261e-08
 113    1.3131718669862e-06
 114    -5.2701908611884e-06
 115    -3.2878581746994e-06
 116    -3.2154343506489e-05
 117    0.00023344931105714
 118    -2.3086997795686e-06
 119    2.9659431999701e-06
 120    5.0428138652685e-06
 121    -4.9157199255099e-05
 122    1.2323779422196e-05
 123    2.883039216127e-05
 124    1.4956100494785e-06
 125    -2.9076399546081e-06
 126    -2.3897141126343e-06
 127    7.3053879982445e-07
 128    -2.1359297754161e-06
 129    -5.3506311313861e-06
 130    -5.189906771601e-05
 131    0.00015238236257497
 132    5.3861138865603e-06
 133    -5.0022842555809e-06
 134    2.1731158967162e-05
 135    -0.00033995408790556
 136    3.6524473254735e-05
 137    -0.00040395791854683
 138    9.1447704993236e-06
 139    1.3241404049578e-05
 140    5.3717184219621e-06
 141    4.3914220064289e-06
 142    6.5188759750796e-06
 143    -1.9845921463412e-06
 144    -2.7040544967478e-05
 145    3.1449870010692e-05
 146    2.0018739722653e-06
 147    5.7733642020319e-06
 148    1.2735832060422e-05
 149    1.5817799879615e-05
 150    -1.7859071645645e-07
 151    -6.237476118354e-05
 152    -6.7202374516021e-06
 153    -3.7930002645925e-06
 154    -3.007395753322e-06
 155    4.1332104182385e-06
 156    -4.016696128932e-06
 157    1.5733010113318e-06
 158    1.225771725829e-05
 159    -3.6098132691592e-05
 160    5.8552861732414e-06
 161    -7.9893379915653e-08
 162    -1.3276223203849e-06
 163    -4.8480049189222e-05
 164    2.3626814347939e-05
 165    1.0691580894321e-05
 166    4.3152292952863e-06
 167    -7.2956194505094e-07
 168    -1.9963711142029e-07
 169    8.0557185243643e-07
 170    1.9104161614474e-06
 171    -4.5142763345202e-07
 172    -1.2093548471327e-05
 173    2.2120272985483e-05
 174    -3.9976140968891e-06
 175    -2.5849600008672e-07
 176    1.0716494142378e-05
 177    -1.3723627295482e-06
 178    -1.4072408164639e-06
 179    -2.5829521663326e-05
 180    1.552334820468e-06
 181    4.6482291031445e-06
 182    8.4530950061724e-07
 183    -1.216933130007e-06
 184    1.5706915114818e-06
 185    -3.30036803075e-06
 186    -2.8416004424716e-05
 187    8.2182425405924e-05
 188    -2.4032580098604e-06
 189    6.8830365166039e-07
 190    4.8247231378447e-06
 191    -2.7019085575443e-06
 192    -1.3153150034753e-05
 193    -7.0229358163911e-05
 194    3.1966192241646e-06
 195    1.6640769838135e-06
 196    2.6650566959305e-06
 197    -3.0113246906764e-07
 198    3.9323393839024e-07
 199    -7.389805496615e-06
 200    1.770395513762e-07
 201    -2.3398728429667e-06
 202     1.96069711692e-05
 203    -1.1209804140006e-05
 204    -5.4770479958458e-06
 205    -4.5805742007594e-07
 206    -2.5943087367551e-05
 207    9.3241162061563e-06
 208    -6.1572416327141e-05
 209    1.063748503853e-05
 210    -2.5726744755666e-05
 211    6.0420900862704e-06
 212    1.7061991156793e-05
 213    -5.9618466634276e-07
 214    -2.0443767738265e-05
 215    -2.6003372116962e-06
 216    -2.766442955817e-05
 217    1.4370574171466e-06
 218    8.5664613015784e-06
 219    5.0538779463841e-07
 220    -1.1768070281733e-06
 221    -8.2116993294307e-06
 222    -8.3496888438595e-05
 223    0.00082739002869623
 224    -1.2843725897522e-05
 225    4.6165827814447e-08
 226    1.2793037816698e-05
 227    0.00060249223057605
 228    0.0002957887705008
 229    -0.00088966039969762
 230    2.0960434952262e-06
 231    -4.1739321044296e-05
 232    -2.0687293867296e-05
 233    2.0882433283469e-05
 234    2.1523723417958e-05
 235    -1.4486404972037e-05
 236    -3.6767590218414e-05
 237    -0.00019341474185467
 238    -2.0066572351564e-05
 239    -2.2014608357512e-06
 240    1.0567927775219e-05
 241    0.00027237311093139
 242    0.00032998584912793
 243    -0.0014649098082348
 244    9.4219155308863e-06
 245    6.7112326558603e-05
 246    1.2574918019388e-05
 247    1.8418866494289e-05
 248    -1.8493726803865e-06
 249    -3.3195217541492e-05
 250    0.00029411391046494
 251    -2.4581105268681e-05
 252    -0.00039305307876496
 253    0.0020777310932359
 254    7.1239172522722e-05
 255    -3.6845017635073e-05
 256    0.00021761069963141
 257    -1.1375452156085e-05
 258    0.0003696983776773
 259    -0.0017433374466232
 260    -5.7798086210994e-05
 261    -1.525489043223e-05
 262    -1.3800211696222e-05
 263    0.00013287353819808
 264    7.8395511553894e-05
 265    -8.6883572691263e-05
 266    0.00019274006103751
 267    -0.00013485847618428
 268    -0.0005026857821991
 269    -7.5434525953909e-05
 270    -0.00050366339531692
 271    0.0066922433326118
 272    -8.1352864782133e-05
 273    0.00011062719764661
 274    0.0001176351348363
 275    -0.0014443372007169
 276    -0.0027408501684347
 277    0.0027036729596086
 278    8.2732081179257e-05
 279    -0.00017223881892709
 280    -9.5609287225185e-05