[Molden Format]
made by pyscf v[2.0.1]
[Atoms] (AU)
C   1   6     0.69100024066471     0.64692934207205    -3.48223131169301
H   2   1     2.68052439830868     1.13355088658700    -3.25784032593313
C   3   6    -0.36286361513219     0.85440132524594    -5.97030179418974
H   4   1    -2.35448549047279     0.36322488579172    -6.17995817793143
C   5   6     0.93697958957450     1.61209284601821    -8.05828437677121
H   6   1     2.04771873455416     3.34419409619576    -7.97445952172335
C   7   6     0.93181860145248     0.24539724069794   -10.40101785795171
H   8   1    -0.18866463604211    -1.48700602985521   -10.45595821195799
H   9   1     1.55630230933075    -1.92953025305990    12.99630010416247
C   10   6     0.75233899775814    -2.21270439606481    11.10705728102219
H   11   1    -0.43433408177274    -3.90944857546550    11.22216085340412
C   12   6     2.86362581178706    -2.63237380607947     9.17926416456045
H   13   1     4.39038949912609    -1.24955421540245     9.49899813497433
H   14   1     3.74629220191363    -4.48798724300892     9.47414880959024
C   15   6     2.02478325613682    -2.42177285709634     6.44560829588644
C   16   6     3.88048732735477    -3.58795445234514     4.61402886975252
C   17   6    -0.18412382258602    -1.30464291234259     5.76021113872346
C   18   6    -2.10044360464350    -0.26837831858460     7.71610340967100
C   19   6    -3.08956938670431     2.35282328359417     6.88693925039594
C   20   6    -4.37372924086464    -2.09766595989678     7.93610724222001
C   21   6    -0.83850430601230     0.06372213486173    10.33002307638377
H   22   1     0.38411922151109     1.74281358582432    10.27380136542181
H   23   1    -2.30980003007874     0.45460143924521    11.73986301809809
H   24   1     4.58527064644668    -5.38706904487420     5.36778158031719
H   25   1     5.54944938085014    -2.37631462192748     4.35398898413318
H   26   1     3.06633019150423    -3.94118377050688     2.75255466040884
H   27   1    -4.17727778763735     2.26573369139522     5.12914900961283
H   28   1    -1.52662344944051     3.68001877445626     6.59540397144508
H   29   1    -4.32916174397830     3.13643051467482     8.35225460090378
H   30   1    -5.32329548508442    -2.36691813602939     6.11583672749896
H   31   1    -5.77989366602257    -1.33896741843465     9.25748940450990
H   32   1    -3.79310905208926    -3.96389819310853     8.61386170102686
C   33   6    -1.01100794811226    -1.06331657314144     3.11929490449947
C   34   6     0.37686231036534    -0.33275864505552     1.09165013605873
H   35   1    -3.01671213906703    -1.40297922279997     2.77827895090944
C   36   6    -0.64382707979370    -0.11591880174385    -1.42063131251064
H   37   1     2.35569259782137     0.17174499283897     1.33641070251401
H   38   1    -2.63317482980319    -0.60229203511219    -1.66119700387645
C   39   6     2.19331151370285     0.92821726401642   -12.52684146370420
C   40   6     2.06658501336205    -0.59430170292716   -14.82312084011087
H   41   1     3.34297492540252     2.63137484242591   -12.59961951178576
O   42   8     3.14891962090165    -0.09254461622574   -16.79735885819125
H   43   1     0.86886987612456    -2.32059369084518   -14.66320417409860
[GTO]
1 0
 s    6 1.00
             3047.5249  0.0018347001629433
             457.36951    0.01403730124668
             103.94869   0.068842606114048
             29.210155    0.23218442062076
              9.286663    0.46794134155879
              3.163927    0.36231203217765
 s    3 1.00
             7.8682724   -0.11933240861517
             1.8812885   -0.16085421161283
             0.5442493     1.1434564825515
 s    1 1.00
             0.1687144                   1
 p    3 1.00
             7.8682724   0.068999095584993
             1.8812885    0.31642397975315
             0.5442493    0.74430825237435
 p    1 1.00
             0.1687144                   1
 d    1 1.00
                   0.8                   1

2 0
 s    3 1.00
             18.731137    0.03349459952309
             2.8253937    0.23472694665786
             0.6401217    0.81375731841339
 s    1 1.00
             0.1612778                   1

3 0
 s    6 1.00
             3047.5249  0.0018347001629433
             457.36951    0.01403730124668
             103.94869   0.068842606114048
             29.210155    0.23218442062076
              9.286663    0.46794134155879
              3.163927    0.36231203217765
 s    3 1.00
             7.8682724   -0.11933240861517
             1.8812885   -0.16085421161283
             0.5442493     1.1434564825515
 s    1 1.00
             0.1687144                   1
 p    3 1.00
             7.8682724   0.068999095584993
             1.8812885    0.31642397975315
             0.5442493    0.74430825237435
 p    1 1.00
             0.1687144                   1
 d    1 1.00
                   0.8                   1

4 0
 s    3 1.00
             18.731137    0.03349459952309
             2.8253937    0.23472694665786
             0.6401217    0.81375731841339
 s    1 1.00
             0.1612778                   1

5 0
 s    6 1.00
             3047.5249  0.0018347001629433
             457.36951    0.01403730124668
             103.94869   0.068842606114048
             29.210155    0.23218442062076
              9.286663    0.46794134155879
              3.163927    0.36231203217765
 s    3 1.00
             7.8682724   -0.11933240861517
             1.8812885   -0.16085421161283
             0.5442493     1.1434564825515
 s    1 1.00
             0.1687144                   1
 p    3 1.00
             7.8682724   0.068999095584993
             1.8812885    0.31642397975315
             0.5442493    0.74430825237435
 p    1 1.00
             0.1687144                   1
 d    1 1.00
                   0.8                   1

6 0
 s    3 1.00
             18.731137    0.03349459952309
             2.8253937    0.23472694665786
             0.6401217    0.81375731841339
 s    1 1.00
             0.1612778                   1

7 0
 s    6 1.00
             3047.5249  0.0018347001629433
             457.36951    0.01403730124668
             103.94869   0.068842606114048
             29.210155    0.23218442062076
              9.286663    0.46794134155879
              3.163927    0.36231203217765
 s    3 1.00
             7.8682724   -0.11933240861517
             1.8812885   -0.16085421161283
             0.5442493     1.1434564825515
 s    1 1.00
             0.1687144                   1
 p    3 1.00
             7.8682724   0.068999095584993
             1.8812885    0.31642397975315
             0.5442493    0.74430825237435
 p    1 1.00
             0.1687144                   1
 d    1 1.00
                   0.8                   1

8 0
 s    3 1.00
             18.731137    0.03349459952309
             2.8253937    0.23472694665786
             0.6401217    0.81375731841339
 s    1 1.00
             0.1612778                   1

9 0
 s    3 1.00
             18.731137    0.03349459952309
             2.8253937    0.23472694665786
             0.6401217    0.81375731841339
 s    1 1.00
             0.1612778                   1

10 0
 s    6 1.00
             3047.5249  0.0018347001629433
             457.36951    0.01403730124668
             103.94869   0.068842606114048
             29.210155    0.23218442062076
              9.286663    0.46794134155879
              3.163927    0.36231203217765
 s    3 1.00
             7.8682724   -0.11933240861517
             1.8812885   -0.16085421161283
             0.5442493     1.1434564825515
 s    1 1.00
             0.1687144                   1
 p    3 1.00
             7.8682724   0.068999095584993
             1.8812885    0.31642397975315
             0.5442493    0.74430825237435
 p    1 1.00
             0.1687144                   1
 d    1 1.00
                   0.8                   1

11 0
 s    3 1.00
             18.731137    0.03349459952309
             2.8253937    0.23472694665786
             0.6401217    0.81375731841339
 s    1 1.00
             0.1612778                   1

12 0
 s    6 1.00
             3047.5249  0.0018347001629433
             457.36951    0.01403730124668
             103.94869   0.068842606114048
             29.210155    0.23218442062076
              9.286663    0.46794134155879
              3.163927    0.36231203217765
 s    3 1.00
             7.8682724   -0.11933240861517
             1.8812885   -0.16085421161283
             0.5442493     1.1434564825515
 s    1 1.00
             0.1687144                   1
 p    3 1.00
             7.8682724   0.068999095584993
             1.8812885    0.31642397975315
             0.5442493    0.74430825237435
 p    1 1.00
             0.1687144                   1
 d    1 1.00
                   0.8                   1

13 0
 s    3 1.00
             18.731137    0.03349459952309
             2.8253937    0.23472694665786
             0.6401217    0.81375731841339
 s    1 1.00
             0.1612778                   1

14 0
 s    3 1.00
             18.731137    0.03349459952309
             2.8253937    0.23472694665786
             0.6401217    0.81375731841339
 s    1 1.00
             0.1612778                   1

15 0
 s    6 1.00
             3047.5249  0.0018347001629433
             457.36951    0.01403730124668
             103.94869   0.068842606114048
             29.210155    0.23218442062076
              9.286663    0.46794134155879
              3.163927    0.36231203217765
 s    3 1.00
             7.8682724   -0.11933240861517
             1.8812885   -0.16085421161283
             0.5442493     1.1434564825515
 s    1 1.00
             0.1687144                   1
 p    3 1.00
             7.8682724   0.068999095584993
             1.8812885    0.31642397975315
             0.5442493    0.74430825237435
 p    1 1.00
             0.1687144                   1
 d    1 1.00
                   0.8                   1

16 0
 s    6 1.00
             3047.5249  0.0018347001629433
             457.36951    0.01403730124668
             103.94869   0.068842606114048
             29.210155    0.23218442062076
              9.286663    0.46794134155879
              3.163927    0.36231203217765
 s    3 1.00
             7.8682724   -0.11933240861517
             1.8812885   -0.16085421161283
             0.5442493     1.1434564825515
 s    1 1.00
             0.1687144                   1
 p    3 1.00
             7.8682724   0.068999095584993
             1.8812885    0.31642397975315
             0.5442493    0.74430825237435
 p    1 1.00
             0.1687144                   1
 d    1 1.00
                   0.8                   1

17 0
 s    6 1.00
             3047.5249  0.0018347001629433
             457.36951    0.01403730124668
             103.94869   0.068842606114048
             29.210155    0.23218442062076
              9.286663    0.46794134155879
              3.163927    0.36231203217765
 s    3 1.00
             7.8682724   -0.11933240861517
             1.8812885   -0.16085421161283
             0.5442493     1.1434564825515
 s    1 1.00
             0.1687144                   1
 p    3 1.00
             7.8682724   0.068999095584993
             1.8812885    0.31642397975315
             0.5442493    0.74430825237435
 p    1 1.00
             0.1687144                   1
 d    1 1.00
                   0.8                   1

18 0
 s    6 1.00
             3047.5249  0.0018347001629433
             457.36951    0.01403730124668
             103.94869   0.068842606114048
             29.210155    0.23218442062076
              9.286663    0.46794134155879
              3.163927    0.36231203217765
 s    3 1.00
             7.8682724   -0.11933240861517
             1.8812885   -0.16085421161283
             0.5442493     1.1434564825515
 s    1 1.00
             0.1687144                   1
 p    3 1.00
             7.8682724   0.068999095584993
             1.8812885    0.31642397975315
             0.5442493    0.74430825237435
 p    1 1.00
             0.1687144                   1
 d    1 1.00
                   0.8                   1

19 0
 s    6 1.00
             3047.5249  0.0018347001629433
             457.36951    0.01403730124668
             103.94869   0.068842606114048
             29.210155    0.23218442062076
              9.286663    0.46794134155879
              3.163927    0.36231203217765
 s    3 1.00
             7.8682724   -0.11933240861517
             1.8812885   -0.16085421161283
             0.5442493     1.1434564825515
 s    1 1.00
             0.1687144                   1
 p    3 1.00
             7.8682724   0.068999095584993
             1.8812885    0.31642397975315
             0.5442493    0.74430825237435
 p    1 1.00
             0.1687144                   1
 d    1 1.00
                   0.8                   1

20 0
 s    6 1.00
             3047.5249  0.0018347001629433
             457.36951    0.01403730124668
             103.94869   0.068842606114048
             29.210155    0.23218442062076
              9.286663    0.46794134155879
              3.163927    0.36231203217765
 s    3 1.00
             7.8682724   -0.11933240861517
             1.8812885   -0.16085421161283
             0.5442493     1.1434564825515
 s    1 1.00
             0.1687144                   1
 p    3 1.00
             7.8682724   0.068999095584993
             1.8812885    0.31642397975315
             0.5442493    0.74430825237435
 p    1 1.00
             0.1687144                   1
 d    1 1.00
                   0.8                   1

21 0
 s    6 1.00
             3047.5249  0.0018347001629433
             457.36951    0.01403730124668
             103.94869   0.068842606114048
             29.210155    0.23218442062076
              9.286663    0.46794134155879
              3.163927    0.36231203217765
 s    3 1.00
             7.8682724   -0.11933240861517
             1.8812885   -0.16085421161283
             0.5442493     1.1434564825515
 s    1 1.00
             0.1687144                   1
 p    3 1.00
             7.8682724   0.068999095584993
             1.8812885    0.31642397975315
             0.5442493    0.74430825237435
 p    1 1.00
             0.1687144                   1
 d    1 1.00
                   0.8                   1

22 0
 s    3 1.00
             18.731137    0.03349459952309
             2.8253937    0.23472694665786
             0.6401217    0.81375731841339
 s    1 1.00
             0.1612778                   1

23 0
 s    3 1.00
             18.731137    0.03349459952309
             2.8253937    0.23472694665786
             0.6401217    0.81375731841339
 s    1 1.00
             0.1612778                   1

24 0
 s    3 1.00
             18.731137    0.03349459952309
             2.8253937    0.23472694665786
             0.6401217    0.81375731841339
 s    1 1.00
             0.1612778                   1

25 0
 s    3 1.00
             18.731137    0.03349459952309
             2.8253937    0.23472694665786
             0.6401217    0.81375731841339
 s    1 1.00
             0.1612778                   1

26 0
 s    3 1.00
             18.731137    0.03349459952309
             2.8253937    0.23472694665786
             0.6401217    0.81375731841339
 s    1 1.00
             0.1612778                   1

27 0
 s    3 1.00
             18.731137    0.03349459952309
             2.8253937    0.23472694665786
             0.6401217    0.81375731841339
 s    1 1.00
             0.1612778                   1

28 0
 s    3 1.00
             18.731137    0.03349459952309
             2.8253937    0.23472694665786
             0.6401217    0.81375731841339
 s    1 1.00
             0.1612778                   1

29 0
 s    3 1.00
             18.731137    0.03349459952309
             2.8253937    0.23472694665786
             0.6401217    0.81375731841339
 s    1 1.00
             0.1612778                   1

30 0
 s    3 1.00
             18.731137    0.03349459952309
             2.8253937    0.23472694665786
             0.6401217    0.81375731841339
 s    1 1.00
             0.1612778                   1

31 0
 s    3 1.00
             18.731137    0.03349459952309
             2.8253937    0.23472694665786
             0.6401217    0.81375731841339
 s    1 1.00
             0.1612778                   1

32 0
 s    3 1.00
             18.731137    0.03349459952309
             2.8253937    0.23472694665786
             0.6401217    0.81375731841339
 s    1 1.00
             0.1612778                   1

33 0
 s    6 1.00
             3047.5249  0.0018347001629433
             457.36951    0.01403730124668
             103.94869   0.068842606114048
             29.210155    0.23218442062076
              9.286663    0.46794134155879
              3.163927    0.36231203217765
 s    3 1.00
             7.8682724   -0.11933240861517
             1.8812885   -0.16085421161283
             0.5442493     1.1434564825515
 s    1 1.00
             0.1687144                   1
 p    3 1.00
             7.8682724   0.068999095584993
             1.8812885    0.31642397975315
             0.5442493    0.74430825237435
 p    1 1.00
             0.1687144                   1
 d    1 1.00
                   0.8                   1

34 0
 s    6 1.00
             3047.5249  0.0018347001629433
             457.36951    0.01403730124668
             103.94869   0.068842606114048
             29.210155    0.23218442062076
              9.286663    0.46794134155879
              3.163927    0.36231203217765
 s    3 1.00
             7.8682724   -0.11933240861517
             1.8812885   -0.16085421161283
             0.5442493     1.1434564825515
 s    1 1.00
             0.1687144                   1
 p    3 1.00
             7.8682724   0.068999095584993
             1.8812885    0.31642397975315
             0.5442493    0.74430825237435
 p    1 1.00
             0.1687144                   1
 d    1 1.00
                   0.8                   1

35 0
 s    3 1.00
             18.731137    0.03349459952309
             2.8253937    0.23472694665786
             0.6401217    0.81375731841339
 s    1 1.00
             0.1612778                   1

36 0
 s    6 1.00
             3047.5249  0.0018347001629433
             457.36951    0.01403730124668
             103.94869   0.068842606114048
             29.210155    0.23218442062076
              9.286663    0.46794134155879
              3.163927    0.36231203217765
 s    3 1.00
             7.8682724   -0.11933240861517
             1.8812885   -0.16085421161283
             0.5442493     1.1434564825515
 s    1 1.00
             0.1687144                   1
 p    3 1.00
             7.8682724   0.068999095584993
             1.8812885    0.31642397975315
             0.5442493    0.74430825237435
 p    1 1.00
             0.1687144                   1
 d    1 1.00
                   0.8                   1

37 0
 s    3 1.00
             18.731137    0.03349459952309
             2.8253937    0.23472694665786
             0.6401217    0.81375731841339
 s    1 1.00
             0.1612778                   1

38 0
 s    3 1.00
             18.731137    0.03349459952309
             2.8253937    0.23472694665786
             0.6401217    0.81375731841339
 s    1 1.00
             0.1612778                   1

39 0
 s    6 1.00
             3047.5249  0.0018347001629433
             457.36951    0.01403730124668
             103.94869   0.068842606114048
             29.210155    0.23218442062076
              9.286663    0.46794134155879
              3.163927    0.36231203217765
 s    3 1.00
             7.8682724   -0.11933240861517
             1.8812885   -0.16085421161283
             0.5442493     1.1434564825515
 s    1 1.00
             0.1687144                   1
 p    3 1.00
             7.8682724   0.068999095584993
             1.8812885    0.31642397975315
             0.5442493    0.74430825237435
 p    1 1.00
             0.1687144                   1
 d    1 1.00
                   0.8                   1

40 0
 s    6 1.00
             3047.5249  0.0018347001629433
             457.36951    0.01403730124668
             103.94869   0.068842606114048
             29.210155    0.23218442062076
              9.286663    0.46794134155879
              3.163927    0.36231203217765
 s    3 1.00
             7.8682724   -0.11933240861517
             1.8812885   -0.16085421161283
             0.5442493     1.1434564825515
 s    1 1.00
             0.1687144                   1
 p    3 1.00
             7.8682724   0.068999095584993
             1.8812885    0.31642397975315
             0.5442493    0.74430825237435
 p    1 1.00
             0.1687144                   1
 d    1 1.00
                   0.8                   1

41 0
 s    3 1.00
             18.731137    0.03349459952309
             2.8253937    0.23472694665786
             0.6401217    0.81375731841339
 s    1 1.00
             0.1612778                   1

42 0
 s    6 1.00
             5484.6717   0.001831099805527
             825.23495   0.013950098518422
             188.04696    0.06844509273075
               52.9645    0.23271427528445
              16.89757    0.47019295006289
             5.7996353    0.35852086192309
 s    3 1.00
             15.539616   -0.11077750382508
             3.5999336   -0.14802630511126
             1.0137618     1.1307670390447
 s    1 1.00
             0.2700058                   1
 p    3 1.00
             15.539616   0.070874299543311
             3.5999336    0.33975279781076
             1.0137618    0.72715859531445
 p    1 1.00
             0.2700058                   1
 d    1 1.00
                   0.8                   1

43 0
 s    3 1.00
             18.731137    0.03349459952309
             2.8253937    0.23472694665786
             0.6401217    0.81375731841339
 s    1 1.00
             0.1612778                   1

[5d]
[7f]
[9g]

[MO]
 Sym= A
 Ene=               0
 Spin= Alpha
 Occup=    1.00000
   1    5.9841599687077e-07
   2    -4.0345531733586e-06
   3    0.00014925192170741
   4    -1.9050387034867e-07
   5    2.969795830092e-05
   6    -3.1644940802496e-07
   7    -0.00012554653533594
   8    -0.0001360534785982
   9    0.00013250287435405
  10    -8.0761119522086e-06
  11    -3.0953764801355e-06
  12    2.2782107333152e-06
  13    6.0613063612618e-06
  14    -3.7668087875234e-06
  15    1.0796813906723e-05
  16    3.2139478608329e-05
  17    -2.8642903122545e-06
  18    5.9280849028119e-05
  19    0.0010129168946548
  20    3.0735280217596e-05
  21    -1.3892264137084e-05
  22    -6.5266787392362e-05
  23    0.00023627182299018
  24    4.1223290833825e-05
  25    -0.00069805757771535
  26    3.4275381562395e-05
  27    -2.0221523911981e-05
  28    -1.1965689613164e-05
  29    3.381342619773e-05
  30    -2.8704087091447e-05
  31    -4.7189199815376e-06
  32    -1.9255616928235e-05
  33    5.062574666388e-05
  34    0.00031561174442107
  35    -0.0045203901004298
  36    -5.6042049296549e-05
  37    1.231914887324e-05
  38    0.00013716109773945
  39    0.00071988703356655
  40    0.0016087298249019
  41    0.0010519250150803
  42    -0.0001043909295578
  43    3.9304167739895e-05
  44    -9.0450397066723e-05
  45    2.8946794001323e-05
  46    -2.9820652376369e-05
  47    -2.219492932932e-05
  48    -0.00029040675025089
  49    3.7226508754835e-06
  50    0.00011246504335893
  51    0.0035522215235165
  52    6.509049690741e-06
  53    -0.00017699805230933
  54    -0.00031451691693627
  55    0.0001400562773124
  56    0.0020607921473368
  57    0.0031229403071296
  58    6.1316605908444e-05
  59    9.8064698770321e-05
  60    0.00016371175519508
  61    -2.2160280459854e-05
  62    -0.00010869667051484
  63    0.00028587696011626
  64    8.2423973102196e-05
  65    -1.1629635049052e-07
  66    -8.4892412985667e-07
  67    1.5195016042035e-08
  68    1.5087531362944e-07
  69    2.0692586963463e-06
  70    -1.1588440284652e-07
  71    1.3463521371186e-07
  72    -1.410517138753e-07
  73    -7.1160564072854e-07
  74    7.1270288720129e-07
  75    1.1099152503133e-06
  76    -1.0472577674863e-07
  77    -9.4768830480072e-08
  78    -1.5912011210729e-08
  79    1.8369585280685e-08
  80    -7.5040161589101e-08
  81    -3.1284118733209e-08
  82    -1.6830172691376e-07
  83    -6.8106093994714e-08
  84    -5.4932524624063e-07
  85    -1.6729102406597e-06
  86    5.0248558412478e-08
  87    1.1654537036759e-07
  88    1.3824977498471e-07
  89    9.2667707218059e-08
  90     9.97208891732e-08
  91    6.9489723260788e-07
  92    1.1112250650308e-07
  93    2.6332172051582e-08
  94    -1.5162159085979e-07
  95    9.4526144609435e-08
  96    -6.0061836788759e-08
  97    -1.4660219706563e-07
  98    3.4754297773131e-07
  99    -5.9240446894316e-09
 100    -1.5917110099479e-07
 101    9.9574982241834e-08
 102    -1.8862877096264e-07
 103    -1.3948738404896e-05
 104    2.1851081012796e-07
 105    -4.8117829803757e-07
 106    6.2693601482582e-07
 107    1.5114383264052e-06
 108    -3.4253309436006e-06
 109    1.0777749259533e-05
 110    -4.8107190756117e-07
 111    -5.8563194679707e-07
 112    2.6800513696886e-07
 113    6.0372882396367e-07
 114    3.0972976651239e-07
 115    -3.7354609845992e-07
 116    -3.8590510340602e-06
 117    1.9915477914963e-05
 118    -1.6391850812759e-07
 119    1.7487737492481e-07
 120    8.1958286768597e-07
 121    -3.7292009830232e-06
 122    1.7249738996575e-06
 123    -6.4415249957396e-06
 124    -1.6134629685014e-07
 125    2.3945481769318e-07
 126    3.8021727405239e-08
 127    -6.7781787863355e-08
 128    -2.6274902205069e-08
 129    -5.3995052646213e-07
 130    -5.4659487094228e-06
 131    -1.5360054074387e-07
 132    -1.723524646176e-06
 133    -1.3316101656648e-06
 134    3.2118029704845e-06
 135    2.1863165487005e-05
 136    2.7523891111046e-06
 137    -1.7918639938369e-05
 138    6.8086543382077e-07
 139    1.6162712510447e-07
 140    -6.7764229386665e-07
 141    2.8323017037523e-07
 142    -4.3746010570649e-07
 143    -1.6169743578745e-08
 144    3.4906160831886e-07
 145    1.1857431364092e-05
 146    3.7169885363929e-07
 147    1.0316098325492e-06
 148    -1.5954042875934e-06
 149    5.5367653955874e-06
 150    -1.726159112129e-05
 151    7.6771880803665e-06
 152    -2.4333390400806e-07
 153    -1.2824769030521e-07
 154    6.6021137721695e-07
 155    3.6271979968702e-07
 156    1.7446167195822e-07
 157    -1.9335652285497e-07
 158    -1.4439907265986e-06
 159    1.3233610308879e-05
 160    3.278720418949e-07
 161    -4.9921102379918e-07
 162    4.7878676858016e-07
 163    1.4818828786127e-06
 164    -4.9776216270577e-06
 165    -4.2348185568833e-07
 166    -2.8482803951372e-07
 167    1.9160191851186e-07
 168    -8.8521343966327e-08
 169    -2.2390426294343e-07
 170    -2.283340340309e-07
 171    2.3739086613321e-09
 172    -2.3735275310711e-07
 173    -3.0761741356945e-06
 174    -3.2491333821708e-07
 175    4.8505588891183e-08
 176    -9.1654702040774e-08
 177    -4.3408422137151e-06
 178    -1.2042545169432e-06
 179    -3.3463635257453e-06
 180    2.2364944157188e-07
 181    -3.7878000180134e-07
 182    -9.3113125353749e-08
 183    -4.2770410442195e-07
 184    -2.7463407612421e-07
 185    8.4314628085931e-08
 186    5.3026874693668e-07
 187    -7.3905709581221e-06
 188    2.1201239152176e-07
 189    7.8925128797919e-08
 190    4.6739449887932e-07
 191    1.6675327071848e-06
 192    4.3575377866952e-06
 193    9.5758499073591e-07
 194    7.7164179735124e-08
 195    -2.8449202086136e-07
 196    -5.3190339227144e-07
 197    1.3901210026674e-07
 198    -1.4429687230685e-07
 199    1.3467228024514e-07
 200    -1.4931766578068e-06
 201    2.163018020627e-07
 202    1.0789887165492e-06
 203    -7.0888234724038e-07
 204    3.635280235094e-07
 205    -1.1081025799496e-06
 206    -1.2698702544208e-06
 207    1.6486598761089e-06
 208    -1.6110781400429e-05
 209    -3.9792968917967e-07
 210    -1.9345242130666e-06
 211    -6.1767223962107e-07
 212    1.8001255000774e-07
 213    -2.4043480248385e-07
 214    1.1688419771411e-07
 215    6.2251405075356e-07
 216    -5.7582140372147e-06
 217    -2.0028474966105e-08
 218    5.8150805891351e-07
 219    -2.0091734837732e-07
 220    1.3204626828708e-06
 221    7.4572535947856e-07
 222    2.5613875133888e-06
 223    -7.2349961141775e-05
 224    -2.6926534404506e-06
 225    7.5876392310926e-07
 226    1.0836507317591e-06
 227    2.2057720970461e-06
 228    -5.964782569949e-06
 229    5.3967882060081e-05
 230    -2.4461469792421e-06
 231    1.4717747146055e-06
 232    8.2461314006076e-07
 233    -3.4209748668043e-07
 234    8.2775994999433e-07
 235    -3.4414823754667e-06
 236    -2.2807272331448e-05
 237    0.00027652583702951
 238    4.9952010746055e-07
 239    3.9303540067368e-06
 240    -4.081763186171e-06
 241    -8.530182853775e-05
 242    -2.8871056243652e-05
 243    -0.00010136968491172
 244    9.0641247061888e-06
 245    2.5764147004812e-06
 246    3.7144434933293e-07
 247    1.5857657158963e-06
 248    3.3831929758329e-06
 249    2.8126577700141e-06
 250    1.4067798531072e-05
 251    1.4606770821986e-06
 252    5.4577030217177e-06
 253    -0.00031797091446068
 254    7.5947859586069e-06
 255    -1.4836833307065e-05
 256    1.5701133350938e-05
 257    -0.00013709176630685
 258    5.5186604875746e-05
 259    -0.0001299013050653
 260    -7.7171300691214e-06
 261    -3.0971804335388e-06
 262    -2.7182831182979e-06
 263    -5.6833910866975e-07
 264    5.7941250514889e-06
 265    -7.6921887358399e-07
 266    1.6715705452465e-05
 267    -1.3483627399595e-05
 268    -1.9498787951967e-06
 269    -5.0159265594364e-05
 270    -0.00011817647804417
 271    0.0029736387673371
 272    -7.8403489114877e-05
 273    -0.00015591055237072
 274    -6.1847458427836e-05
 275    0.0017595350532746
 276    0.00066357771373344
 277    -0.0034577613832831
 278    0.0003288018492393
 279    -0.00012576901422597
 280    5.6025349905618e-05