[Molden Format]
made by pyscf v[2.0.1]
[Atoms] (AU)
C   1   6     0.69100024066471     0.64692934207205    -3.48223131169301
H   2   1     2.68052439830868     1.13355088658700    -3.25784032593313
C   3   6    -0.36286361513219     0.85440132524594    -5.97030179418974
H   4   1    -2.35448549047279     0.36322488579172    -6.17995817793143
C   5   6     0.93697958957450     1.61209284601821    -8.05828437677121
H   6   1     1.79023114573091     3.48620134168797    -8.08322278856913
C   7   6     1.25568723688000     0.06665493916240   -10.26426053014808
H   8   1     0.39118722523993    -1.80671768770582   -10.21099750517578
H   9   1     1.55630230933075    -1.92953025305990    12.99630010416247
C   10   6     0.75233899775814    -2.21270439606481    11.10705728102219
H   11   1    -0.43433408177274    -3.90944857546550    11.22216085340412
C   12   6     2.86362581178706    -2.63237380607947     9.17926416456045
H   13   1     4.39038949912609    -1.24955421540245     9.49899813497433
H   14   1     3.74629220191363    -4.48798724300892     9.47414880959024
C   15   6     2.02478325613682    -2.42177285709634     6.44560829588644
C   16   6     3.88048732735477    -3.58795445234514     4.61402886975252
C   17   6    -0.18412382258602    -1.30464291234259     5.76021113872346
C   18   6    -2.10044360464350    -0.26837831858460     7.71610340967100
C   19   6    -3.08956938670431     2.35282328359417     6.88693925039594
C   20   6    -4.37372924086464    -2.09766595989678     7.93610724222001
C   21   6    -0.83850430601230     0.06372213486173    10.33002307638377
H   22   1     0.38411922151109     1.74281358582432    10.27380136542181
H   23   1    -2.30980003007874     0.45460143924521    11.73986301809809
H   24   1     4.58527064644668    -5.38706904487420     5.36778158031719
H   25   1     5.54944938085014    -2.37631462192748     4.35398898413318
H   26   1     3.06633019150423    -3.94118377050688     2.75255466040884
H   27   1    -4.17727778763735     2.26573369139522     5.12914900961283
H   28   1    -1.52662344944051     3.68001877445626     6.59540397144508
H   29   1    -4.32916174397830     3.13643051467482     8.35225460090378
H   30   1    -5.32329548508442    -2.36691813602939     6.11583672749896
H   31   1    -5.77989366602257    -1.33896741843465     9.25748940450990
H   32   1    -3.79310905208926    -3.96389819310853     8.61386170102686
C   33   6    -1.01100794811226    -1.06331657314144     3.11929490449947
C   34   6     0.37686231036534    -0.33275864505552     1.09165013605873
H   35   1    -3.01671213906703    -1.40297922279997     2.77827895090944
C   36   6    -0.64382707979370    -0.11591880174385    -1.42063131251064
H   37   1     2.35569259782137     0.17174499283897     1.33641070251401
H   38   1    -2.63317482980319    -0.60229203511219    -1.66119700387645
C   39   6     2.53016326718275     0.74184279311179   -12.38477126217512
C   40   6     2.74761784180424    -0.97075180884473   -14.53576076061004
H   41   1     3.43489191747297     2.57981441042514   -12.56110828288274
O   42   8     3.86136937293188    -0.48701494751058   -16.49697984673750
H   43   1     1.79359090776017    -2.83108880557309   -14.27278208139205
[GTO]
1 0
 s    6 1.00
             3047.5249  0.0018347001629433
             457.36951    0.01403730124668
             103.94869   0.068842606114048
             29.210155    0.23218442062076
              9.286663    0.46794134155879
              3.163927    0.36231203217765
 s    3 1.00
             7.8682724   -0.11933240861517
             1.8812885   -0.16085421161283
             0.5442493     1.1434564825515
 s    1 1.00
             0.1687144                   1
 p    3 1.00
             7.8682724   0.068999095584993
             1.8812885    0.31642397975315
             0.5442493    0.74430825237435
 p    1 1.00
             0.1687144                   1
 d    1 1.00
                   0.8                   1

2 0
 s    3 1.00
             18.731137    0.03349459952309
             2.8253937    0.23472694665786
             0.6401217    0.81375731841339
 s    1 1.00
             0.1612778                   1

3 0
 s    6 1.00
             3047.5249  0.0018347001629433
             457.36951    0.01403730124668
             103.94869   0.068842606114048
             29.210155    0.23218442062076
              9.286663    0.46794134155879
              3.163927    0.36231203217765
 s    3 1.00
             7.8682724   -0.11933240861517
             1.8812885   -0.16085421161283
             0.5442493     1.1434564825515
 s    1 1.00
             0.1687144                   1
 p    3 1.00
             7.8682724   0.068999095584993
             1.8812885    0.31642397975315
             0.5442493    0.74430825237435
 p    1 1.00
             0.1687144                   1
 d    1 1.00
                   0.8                   1

4 0
 s    3 1.00
             18.731137    0.03349459952309
             2.8253937    0.23472694665786
             0.6401217    0.81375731841339
 s    1 1.00
             0.1612778                   1

5 0
 s    6 1.00
             3047.5249  0.0018347001629433
             457.36951    0.01403730124668
             103.94869   0.068842606114048
             29.210155    0.23218442062076
              9.286663    0.46794134155879
              3.163927    0.36231203217765
 s    3 1.00
             7.8682724   -0.11933240861517
             1.8812885   -0.16085421161283
             0.5442493     1.1434564825515
 s    1 1.00
             0.1687144                   1
 p    3 1.00
             7.8682724   0.068999095584993
             1.8812885    0.31642397975315
             0.5442493    0.74430825237435
 p    1 1.00
             0.1687144                   1
 d    1 1.00
                   0.8                   1

6 0
 s    3 1.00
             18.731137    0.03349459952309
             2.8253937    0.23472694665786
             0.6401217    0.81375731841339
 s    1 1.00
             0.1612778                   1

7 0
 s    6 1.00
             3047.5249  0.0018347001629433
             457.36951    0.01403730124668
             103.94869   0.068842606114048
             29.210155    0.23218442062076
              9.286663    0.46794134155879
              3.163927    0.36231203217765
 s    3 1.00
             7.8682724   -0.11933240861517
             1.8812885   -0.16085421161283
             0.5442493     1.1434564825515
 s    1 1.00
             0.1687144                   1
 p    3 1.00
             7.8682724   0.068999095584993
             1.8812885    0.31642397975315
             0.5442493    0.74430825237435
 p    1 1.00
             0.1687144                   1
 d    1 1.00
                   0.8                   1

8 0
 s    3 1.00
             18.731137    0.03349459952309
             2.8253937    0.23472694665786
             0.6401217    0.81375731841339
 s    1 1.00
             0.1612778                   1

9 0
 s    3 1.00
             18.731137    0.03349459952309
             2.8253937    0.23472694665786
             0.6401217    0.81375731841339
 s    1 1.00
             0.1612778                   1

10 0
 s    6 1.00
             3047.5249  0.0018347001629433
             457.36951    0.01403730124668
             103.94869   0.068842606114048
             29.210155    0.23218442062076
              9.286663    0.46794134155879
              3.163927    0.36231203217765
 s    3 1.00
             7.8682724   -0.11933240861517
             1.8812885   -0.16085421161283
             0.5442493     1.1434564825515
 s    1 1.00
             0.1687144                   1
 p    3 1.00
             7.8682724   0.068999095584993
             1.8812885    0.31642397975315
             0.5442493    0.74430825237435
 p    1 1.00
             0.1687144                   1
 d    1 1.00
                   0.8                   1

11 0
 s    3 1.00
             18.731137    0.03349459952309
             2.8253937    0.23472694665786
             0.6401217    0.81375731841339
 s    1 1.00
             0.1612778                   1

12 0
 s    6 1.00
             3047.5249  0.0018347001629433
             457.36951    0.01403730124668
             103.94869   0.068842606114048
             29.210155    0.23218442062076
              9.286663    0.46794134155879
              3.163927    0.36231203217765
 s    3 1.00
             7.8682724   -0.11933240861517
             1.8812885   -0.16085421161283
             0.5442493     1.1434564825515
 s    1 1.00
             0.1687144                   1
 p    3 1.00
             7.8682724   0.068999095584993
             1.8812885    0.31642397975315
             0.5442493    0.74430825237435
 p    1 1.00
             0.1687144                   1
 d    1 1.00
                   0.8                   1

13 0
 s    3 1.00
             18.731137    0.03349459952309
             2.8253937    0.23472694665786
             0.6401217    0.81375731841339
 s    1 1.00
             0.1612778                   1

14 0
 s    3 1.00
             18.731137    0.03349459952309
             2.8253937    0.23472694665786
             0.6401217    0.81375731841339
 s    1 1.00
             0.1612778                   1

15 0
 s    6 1.00
             3047.5249  0.0018347001629433
             457.36951    0.01403730124668
             103.94869   0.068842606114048
             29.210155    0.23218442062076
              9.286663    0.46794134155879
              3.163927    0.36231203217765
 s    3 1.00
             7.8682724   -0.11933240861517
             1.8812885   -0.16085421161283
             0.5442493     1.1434564825515
 s    1 1.00
             0.1687144                   1
 p    3 1.00
             7.8682724   0.068999095584993
             1.8812885    0.31642397975315
             0.5442493    0.74430825237435
 p    1 1.00
             0.1687144                   1
 d    1 1.00
                   0.8                   1

16 0
 s    6 1.00
             3047.5249  0.0018347001629433
             457.36951    0.01403730124668
             103.94869   0.068842606114048
             29.210155    0.23218442062076
              9.286663    0.46794134155879
              3.163927    0.36231203217765
 s    3 1.00
             7.8682724   -0.11933240861517
             1.8812885   -0.16085421161283
             0.5442493     1.1434564825515
 s    1 1.00
             0.1687144                   1
 p    3 1.00
             7.8682724   0.068999095584993
             1.8812885    0.31642397975315
             0.5442493    0.74430825237435
 p    1 1.00
             0.1687144                   1
 d    1 1.00
                   0.8                   1

17 0
 s    6 1.00
             3047.5249  0.0018347001629433
             457.36951    0.01403730124668
             103.94869   0.068842606114048
             29.210155    0.23218442062076
              9.286663    0.46794134155879
              3.163927    0.36231203217765
 s    3 1.00
             7.8682724   -0.11933240861517
             1.8812885   -0.16085421161283
             0.5442493     1.1434564825515
 s    1 1.00
             0.1687144                   1
 p    3 1.00
             7.8682724   0.068999095584993
             1.8812885    0.31642397975315
             0.5442493    0.74430825237435
 p    1 1.00
             0.1687144                   1
 d    1 1.00
                   0.8                   1

18 0
 s    6 1.00
             3047.5249  0.0018347001629433
             457.36951    0.01403730124668
             103.94869   0.068842606114048
             29.210155    0.23218442062076
              9.286663    0.46794134155879
              3.163927    0.36231203217765
 s    3 1.00
             7.8682724   -0.11933240861517
             1.8812885   -0.16085421161283
             0.5442493     1.1434564825515
 s    1 1.00
             0.1687144                   1
 p    3 1.00
             7.8682724   0.068999095584993
             1.8812885    0.31642397975315
             0.5442493    0.74430825237435
 p    1 1.00
             0.1687144                   1
 d    1 1.00
                   0.8                   1

19 0
 s    6 1.00
             3047.5249  0.0018347001629433
             457.36951    0.01403730124668
             103.94869   0.068842606114048
             29.210155    0.23218442062076
              9.286663    0.46794134155879
              3.163927    0.36231203217765
 s    3 1.00
             7.8682724   -0.11933240861517
             1.8812885   -0.16085421161283
             0.5442493     1.1434564825515
 s    1 1.00
             0.1687144                   1
 p    3 1.00
             7.8682724   0.068999095584993
             1.8812885    0.31642397975315
             0.5442493    0.74430825237435
 p    1 1.00
             0.1687144                   1
 d    1 1.00
                   0.8                   1

20 0
 s    6 1.00
             3047.5249  0.0018347001629433
             457.36951    0.01403730124668
             103.94869   0.068842606114048
             29.210155    0.23218442062076
              9.286663    0.46794134155879
              3.163927    0.36231203217765
 s    3 1.00
             7.8682724   -0.11933240861517
             1.8812885   -0.16085421161283
             0.5442493     1.1434564825515
 s    1 1.00
             0.1687144                   1
 p    3 1.00
             7.8682724   0.068999095584993
             1.8812885    0.31642397975315
             0.5442493    0.74430825237435
 p    1 1.00
             0.1687144                   1
 d    1 1.00
                   0.8                   1

21 0
 s    6 1.00
             3047.5249  0.0018347001629433
             457.36951    0.01403730124668
             103.94869   0.068842606114048
             29.210155    0.23218442062076
              9.286663    0.46794134155879
              3.163927    0.36231203217765
 s    3 1.00
             7.8682724   -0.11933240861517
             1.8812885   -0.16085421161283
             0.5442493     1.1434564825515
 s    1 1.00
             0.1687144                   1
 p    3 1.00
             7.8682724   0.068999095584993
             1.8812885    0.31642397975315
             0.5442493    0.74430825237435
 p    1 1.00
             0.1687144                   1
 d    1 1.00
                   0.8                   1

22 0
 s    3 1.00
             18.731137    0.03349459952309
             2.8253937    0.23472694665786
             0.6401217    0.81375731841339
 s    1 1.00
             0.1612778                   1

23 0
 s    3 1.00
             18.731137    0.03349459952309
             2.8253937    0.23472694665786
             0.6401217    0.81375731841339
 s    1 1.00
             0.1612778                   1

24 0
 s    3 1.00
             18.731137    0.03349459952309
             2.8253937    0.23472694665786
             0.6401217    0.81375731841339
 s    1 1.00
             0.1612778                   1

25 0
 s    3 1.00
             18.731137    0.03349459952309
             2.8253937    0.23472694665786
             0.6401217    0.81375731841339
 s    1 1.00
             0.1612778                   1

26 0
 s    3 1.00
             18.731137    0.03349459952309
             2.8253937    0.23472694665786
             0.6401217    0.81375731841339
 s    1 1.00
             0.1612778                   1

27 0
 s    3 1.00
             18.731137    0.03349459952309
             2.8253937    0.23472694665786
             0.6401217    0.81375731841339
 s    1 1.00
             0.1612778                   1

28 0
 s    3 1.00
             18.731137    0.03349459952309
             2.8253937    0.23472694665786
             0.6401217    0.81375731841339
 s    1 1.00
             0.1612778                   1

29 0
 s    3 1.00
             18.731137    0.03349459952309
             2.8253937    0.23472694665786
             0.6401217    0.81375731841339
 s    1 1.00
             0.1612778                   1

30 0
 s    3 1.00
             18.731137    0.03349459952309
             2.8253937    0.23472694665786
             0.6401217    0.81375731841339
 s    1 1.00
             0.1612778                   1

31 0
 s    3 1.00
             18.731137    0.03349459952309
             2.8253937    0.23472694665786
             0.6401217    0.81375731841339
 s    1 1.00
             0.1612778                   1

32 0
 s    3 1.00
             18.731137    0.03349459952309
             2.8253937    0.23472694665786
             0.6401217    0.81375731841339
 s    1 1.00
             0.1612778                   1

33 0
 s    6 1.00
             3047.5249  0.0018347001629433
             457.36951    0.01403730124668
             103.94869   0.068842606114048
             29.210155    0.23218442062076
              9.286663    0.46794134155879
              3.163927    0.36231203217765
 s    3 1.00
             7.8682724   -0.11933240861517
             1.8812885   -0.16085421161283
             0.5442493     1.1434564825515
 s    1 1.00
             0.1687144                   1
 p    3 1.00
             7.8682724   0.068999095584993
             1.8812885    0.31642397975315
             0.5442493    0.74430825237435
 p    1 1.00
             0.1687144                   1
 d    1 1.00
                   0.8                   1

34 0
 s    6 1.00
             3047.5249  0.0018347001629433
             457.36951    0.01403730124668
             103.94869   0.068842606114048
             29.210155    0.23218442062076
              9.286663    0.46794134155879
              3.163927    0.36231203217765
 s    3 1.00
             7.8682724   -0.11933240861517
             1.8812885   -0.16085421161283
             0.5442493     1.1434564825515
 s    1 1.00
             0.1687144                   1
 p    3 1.00
             7.8682724   0.068999095584993
             1.8812885    0.31642397975315
             0.5442493    0.74430825237435
 p    1 1.00
             0.1687144                   1
 d    1 1.00
                   0.8                   1

35 0
 s    3 1.00
             18.731137    0.03349459952309
             2.8253937    0.23472694665786
             0.6401217    0.81375731841339
 s    1 1.00
             0.1612778                   1

36 0
 s    6 1.00
             3047.5249  0.0018347001629433
             457.36951    0.01403730124668
             103.94869   0.068842606114048
             29.210155    0.23218442062076
              9.286663    0.46794134155879
              3.163927    0.36231203217765
 s    3 1.00
             7.8682724   -0.11933240861517
             1.8812885   -0.16085421161283
             0.5442493     1.1434564825515
 s    1 1.00
             0.1687144                   1
 p    3 1.00
             7.8682724   0.068999095584993
             1.8812885    0.31642397975315
             0.5442493    0.74430825237435
 p    1 1.00
             0.1687144                   1
 d    1 1.00
                   0.8                   1

37 0
 s    3 1.00
             18.731137    0.03349459952309
             2.8253937    0.23472694665786
             0.6401217    0.81375731841339
 s    1 1.00
             0.1612778                   1

38 0
 s    3 1.00
             18.731137    0.03349459952309
             2.8253937    0.23472694665786
             0.6401217    0.81375731841339
 s    1 1.00
             0.1612778                   1

39 0
 s    6 1.00
             3047.5249  0.0018347001629433
             457.36951    0.01403730124668
             103.94869   0.068842606114048
             29.210155    0.23218442062076
              9.286663    0.46794134155879
              3.163927    0.36231203217765
 s    3 1.00
             7.8682724   -0.11933240861517
             1.8812885   -0.16085421161283
             0.5442493     1.1434564825515
 s    1 1.00
             0.1687144                   1
 p    3 1.00
             7.8682724   0.068999095584993
             1.8812885    0.31642397975315
             0.5442493    0.74430825237435
 p    1 1.00
             0.1687144                   1
 d    1 1.00
                   0.8                   1

40 0
 s    6 1.00
             3047.5249  0.0018347001629433
             457.36951    0.01403730124668
             103.94869   0.068842606114048
             29.210155    0.23218442062076
              9.286663    0.46794134155879
              3.163927    0.36231203217765
 s    3 1.00
             7.8682724   -0.11933240861517
             1.8812885   -0.16085421161283
             0.5442493     1.1434564825515
 s    1 1.00
             0.1687144                   1
 p    3 1.00
             7.8682724   0.068999095584993
             1.8812885    0.31642397975315
             0.5442493    0.74430825237435
 p    1 1.00
             0.1687144                   1
 d    1 1.00
                   0.8                   1

41 0
 s    3 1.00
             18.731137    0.03349459952309
             2.8253937    0.23472694665786
             0.6401217    0.81375731841339
 s    1 1.00
             0.1612778                   1

42 0
 s    6 1.00
             5484.6717   0.001831099805527
             825.23495   0.013950098518422
             188.04696    0.06844509273075
               52.9645    0.23271427528445
              16.89757    0.47019295006289
             5.7996353    0.35852086192309
 s    3 1.00
             15.539616   -0.11077750382508
             3.5999336   -0.14802630511126
             1.0137618     1.1307670390447
 s    1 1.00
             0.2700058                   1
 p    3 1.00
             15.539616   0.070874299543311
             3.5999336    0.33975279781076
             1.0137618    0.72715859531445
 p    1 1.00
             0.2700058                   1
 d    1 1.00
                   0.8                   1

43 0
 s    3 1.00
             18.731137    0.03349459952309
             2.8253937    0.23472694665786
             0.6401217    0.81375731841339
 s    1 1.00
             0.1612778                   1

[5d]
[7f]
[9g]

[MO]
 Sym= A
 Ene=               0
 Spin= Alpha
 Occup=    1.00000
   1    -6.4718760500147e-07
   2    -1.4413740151316e-05
   3    0.00013975246691098
   4    -3.427320748222e-06
   5    2.386370339083e-05
   6    6.7744315166798e-06
   7    -8.2104654710494e-05
   8    -7.3180503598823e-05
   9    -6.9058903690874e-05
  10    -4.8302243709422e-06
  11    3.6996153735787e-06
  12    3.2315708878692e-06
  13    9.0722721783824e-06
  14    -5.1068051301796e-06
  15    4.9909355991468e-07
  16    3.0653122283618e-05
  17    1.227465201952e-06
  18    9.8633453932001e-05
  19    0.00075931878951019
  20    3.7153638967835e-05
  21    -1.4341805014612e-05
  22    -6.719998467599e-05
  23    0.00018759933145879
  24    1.9009601543146e-06
  25    -0.00068862058525505
  26    2.9091618556748e-05
  27    -2.0850677814842e-05
  28    -6.5152946751496e-06
  29    3.8071142831578e-05
  30    -2.4317885131082e-05
  31    -5.9058607254829e-06
  32    -2.2350392275252e-06
  33    4.993985280033e-05
  34    0.00031822159439135
  35    -0.0043935579556379
  36    -6.3315981180957e-05
  37    1.6512605149137e-05
  38    0.00014276410517499
  39    0.0004001927408245
  40     0.001728344556328
  41    0.00092527076132948
  42    -8.2489418855496e-05
  43    6.2275794046086e-05
  44    -9.3161582940917e-05
  45    3.8217920381502e-05
  46    -1.1636747264968e-05
  47    -1.7976587896061e-05
  48    -0.00028045997760565
  49    4.6212031513752e-06
  50    0.00011698949171822
  51    0.0034766809079704
  52    4.7800225083854e-05
  53    -0.0001990644748987
  54    -0.00029908264452415
  55    -0.00031873056839306
  56    0.0022830469647215
  57    0.0029060422446843
  58    4.1194292257412e-05
  59    8.0226658895707e-05
  60    0.00017525214386015
  61    -9.8268500037191e-06
  62    -0.00011345918298689
  63    0.00028575134869909
  64    7.8726448575054e-05
  65    -1.7080368787151e-07
  66    -6.2445998127051e-07
  67    -9.2560243095477e-09
  68    -1.4233126200714e-07
  69    2.485278371324e-06
  70    3.9346025143955e-08
  71    -5.6200828319429e-08
  72    -5.845724230618e-08
  73    -3.4327685828552e-07
  74    1.0781184446709e-06
  75    7.3543238820169e-07
  76    -7.7716824494654e-08
  77    -1.0323978159051e-07
  78    1.4577767299022e-08
  79    4.7201427548643e-08
  80    -7.9636277613076e-08
  81    4.7456053338509e-09
  82    -2.8793806624062e-08
  83    -2.3771933615141e-08
  84    -3.0390812381266e-07
  85    -5.3986939613446e-06
  86    2.2018381225414e-07
  87     1.38960315012e-07
  88    3.9792147739447e-07
  89    1.426756461232e-06
  90    -1.9485799784108e-06
  91    1.2821164933013e-06
  92    1.2396312060719e-07
  93    -9.2981561258264e-08
  94    4.2540278289816e-08
  95    5.3834093602589e-08
  96    -8.6288322914427e-08
  97    1.6701741210634e-07
  98    5.9002381185569e-07
  99    -5.8946195339896e-08
 100    -5.8553419152836e-07
 101    -4.1208722008214e-09
 102    -7.0521915126232e-07
 103    4.2368987020644e-07
 104    9.8603325160943e-08
 105    -6.2339572148563e-07
 106    1.7861909970204e-07
 107    -6.7997082714493e-06
 108    4.5848190064182e-06
 109    1.5201496476647e-05
 110    -4.8086737331083e-07
 111    -5.0279406038921e-07
 112    2.3235373595293e-07
 113    5.8134974675548e-07
 114    -1.6366860446844e-08
 115    -4.0203078162926e-07
 116    -4.0042894478718e-06
 117    2.494259901095e-05
 118    -3.3672710787435e-07
 119    5.6794199069215e-07
 120    7.5868779274819e-07
 121    -4.6173354124897e-06
 122    4.1627733495491e-07
 123    -3.53938073555e-06
 124    -9.3836252624759e-08
 125    1.095025839818e-07
 126    -7.5614002890397e-08
 127    -6.5123064378136e-08
 128    -1.1230908181553e-07
 129    -6.49181506284e-07
 130    -6.4536632843294e-06
 131    1.5094554858758e-05
 132    -8.8579301124578e-07
 133    -1.1599455235761e-06
 134    3.235463762081e-06
 135    1.3900761121179e-06
 136    4.3584392405304e-06
 137    -3.6375921826843e-05
 138    1.2492173160305e-06
 139    5.6126938891664e-07
 140    -2.6621346710358e-07
 141    2.9814392010991e-07
 142    -1.7009080025474e-07
 143    -8.732571347479e-08
 144    -6.1821392718112e-07
 145    1.0023910972634e-05
 146    3.5772792225723e-07
 147    9.3395642691291e-07
 148    -7.8633218023466e-07
 149    5.8380125754937e-06
 150    -1.3169598641987e-05
 151    4.6398696420002e-06
 152    -5.5346168399079e-07
 153    -1.6793987134065e-07
 154    3.4980971252802e-07
 155    4.6490544922754e-07
 156    -9.6762644449548e-08
 157    -8.3655602537584e-08
 158    -5.7227855069604e-07
 159    8.8850455587259e-06
 160    5.0047312370978e-07
 161    -3.9117822104257e-07
 162    3.2643612162341e-07
 163    -1.0308937435478e-06
 164    -3.2371294378082e-06
 165    -7.5409457193534e-10
 166    -5.363440262299e-08
 167    1.1825386868124e-07
 168    -5.7305298378007e-08
 169    -1.773710874803e-07
 170    -6.5139167382539e-08
 171    1.6047842285575e-08
 172    -2.5791217157441e-07
 173    -2.8819123390718e-06
 174    -4.5847834209223e-07
 175    -1.2675398232703e-08
 176    2.4569867244677e-07
 177    -2.6922450221165e-06
 178    -3.5396337046995e-07
 179    -2.8466730970376e-06
 180    1.9949731154281e-07
 181    -1.4137801220191e-07
 182    -8.280243459795e-08
 183    -3.8824129920076e-07
 184    -9.59830407234e-08
 185    -6.7078907057452e-08
 186    -8.2897622820602e-07
 187    -2.9457234162687e-06
 188    1.0799620577452e-08
 189    9.0314919611385e-08
 190    6.3617581778921e-07
 191    1.9632121429899e-06
 192    3.0948334915394e-06
 193    -1.9243899609701e-06
 194    2.1417515104568e-07
 195    -1.7582933975242e-07
 196    -2.8556462588861e-07
 197    8.6887797413011e-08
 198    -1.0974197550374e-07
 199    -2.4260121831827e-07
 200    -1.4848093352259e-06
 201    1.6262304083761e-07
 202    1.8521164253106e-06
 203    -1.1151428110732e-06
 204    -8.4878607328353e-07
 205    -7.4886268297665e-07
 206    -1.5857037419503e-06
 207    1.7696603152004e-06
 208    -1.558140709363e-05
 209    1.0910480150705e-07
 210    -2.5912793235637e-06
 211    -2.6369114332352e-07
 212    1.1254848096696e-06
 213    -2.00478411525e-07
 214    -7.1348230939679e-07
 215    1.5045124896354e-07
 216    -3.153248809654e-06
 217    1.3618296815107e-07
 218    7.3815133738359e-07
 219    -4.3714187648361e-08
 220    1.1886568426039e-06
 221    1.1060882223519e-07
 222    -1.9583825534657e-06
 223    -3.7947130883402e-05
 224    -1.734864436019e-06
 225    7.0373960222262e-07
 226    1.779632884327e-06
 227    1.0190987256924e-05
 228    5.9867432057172e-06
 229    -8.9324648152581e-07
 230    -1.7969491720079e-06
 231    -5.1332087952527e-07
 232    -3.9050546894908e-07
 233    4.3746104543386e-07
 234    1.6129153919334e-06
 235    -2.5635342851044e-06
 236    -1.8618026743646e-05
 237    0.00017544923704241
 238    -2.6006031978398e-07
 239    3.3647307309209e-06
 240    -7.1052794506547e-07
 241    -5.6062361692147e-05
 242    -2.1560312169526e-05
 243    -0.00010130333024894
 244    6.4787466742086e-06
 245    4.1916256700586e-06
 246    1.5007484213057e-06
 247    1.8363150148674e-06
 248    3.0693056609227e-06
 249    5.8673544445994e-07
 250    1.292014137231e-05
 251    -3.9553364804073e-07
 252    -7.3332981235478e-06
 253    -0.00012223350143651
 254    6.072522729785e-06
 255    -1.4673006088658e-05
 256    1.2213621536923e-05
 257    -4.9932833011169e-05
 258    8.0140322567229e-05
 259    -0.00015595822507917
 260    -4.5530180523005e-06
 261    -5.9787389734665e-06
 262    -4.4998524267192e-06
 263    1.7060967856543e-06
 264    6.9190533498388e-06
 265    -2.6994718783873e-06
 266    2.0240114865136e-05
 267    -1.1080179375751e-05
 268    1.4543248206743e-05
 269    -5.048266860553e-05
 270    -0.00012023807986478
 271     0.002988969960522
 272    -5.1982600717857e-05
 273    -0.00017124340069465
 274    -5.0780389475784e-05
 275    0.0018358153548349
 276    0.00062633788904251
 277    -0.0034012722781413
 278    0.00030623317965131
 279    -0.00014597765234123