[Molden Format]
made by pyscf v[2.0.1]
[Atoms] (AU)
C   1   6     0.69100024066471     0.64692934207205    -3.48223131169301
H   2   1     2.68052439830868     1.13355088658700    -3.25784032593313
C   3   6    -0.36286361513219     0.85440132524594    -5.97030179418974
H   4   1    -2.35448549047279     0.36322488579172    -6.17995817793143
C   5   6     0.93697958957450     1.61209284601821    -8.05828437677121
H   6   1     1.25179717896080     3.62344259528190    -8.36861463213972
C   7   6     1.93299030663405    -0.10622024085708    -9.90534865945394
H   8   1     1.60367989661651    -2.11561190296467    -9.56827000221191
H   9   1     1.55630230933075    -1.92953025305990    12.99630010416247
C   10   6     0.75233899775814    -2.21270439606481    11.10705728102219
H   11   1    -0.43433408177274    -3.90944857546550    11.22216085340412
C   12   6     2.86362581178706    -2.63237380607947     9.17926416456045
H   13   1     4.39038949912609    -1.24955421540245     9.49899813497433
H   14   1     3.74629220191363    -4.48798724300892     9.47414880959024
C   15   6     2.02478325613682    -2.42177285709634     6.44560829588644
C   16   6     3.88048732735477    -3.58795445234514     4.61402886975252
C   17   6    -0.18412382258602    -1.30464291234259     5.76021113872346
C   18   6    -2.10044360464350    -0.26837831858460     7.71610340967100
C   19   6    -3.08956938670431     2.35282328359417     6.88693925039594
C   20   6    -4.37372924086464    -2.09766595989678     7.93610724222001
C   21   6    -0.83850430601230     0.06372213486173    10.33002307638377
H   22   1     0.38411922151109     1.74281358582432    10.27380136542181
H   23   1    -2.30980003007874     0.45460143924521    11.73986301809809
H   24   1     4.58527064644668    -5.38706904487420     5.36778158031719
H   25   1     5.54944938085014    -2.37631462192748     4.35398898413318
H   26   1     3.06633019150423    -3.94118377050688     2.75255466040884
H   27   1    -4.17727778763735     2.26573369139522     5.12914900961283
H   28   1    -1.52662344944051     3.68001877445626     6.59540397144508
H   29   1    -4.32916174397830     3.13643051467482     8.35225460090378
H   30   1    -5.32329548508442    -2.36691813602939     6.11583672749896
H   31   1    -5.77989366602257    -1.33896741843465     9.25748940450990
H   32   1    -3.79310905208926    -3.96389819310853     8.61386170102686
C   33   6    -1.01100794811226    -1.06331657314144     3.11929490449947
C   34   6     0.37686231036534    -0.33275864505552     1.09165013605873
H   35   1    -3.01671213906703    -1.40297922279997     2.77827895090944
C   36   6    -0.64382707979370    -0.11591880174385    -1.42063131251064
H   37   1     2.35569259782137     0.17174499283897     1.33641070251401
H   38   1    -2.63317482980319    -0.60229203511219    -1.66119700387645
C   39   6     3.23483881481583     0.56109494848388   -12.01167590238676
C   40   6     4.17213386166354    -1.33546547775814   -13.78129708499957
H   41   1     3.62751071831436     2.52907164005278   -12.45960989181140
O   42   8     5.35190984410731    -0.86987395658954   -15.70799822813352
H   43   1     3.72751838268070    -3.32497850208065   -13.24806737881206
[GTO]
1 0
 s    6 1.00
             3047.5249  0.0018347001629433
             457.36951    0.01403730124668
             103.94869   0.068842606114048
             29.210155    0.23218442062076
              9.286663    0.46794134155879
              3.163927    0.36231203217765
 s    3 1.00
             7.8682724   -0.11933240861517
             1.8812885   -0.16085421161283
             0.5442493     1.1434564825515
 s    1 1.00
             0.1687144                   1
 p    3 1.00
             7.8682724   0.068999095584993
             1.8812885    0.31642397975315
             0.5442493    0.74430825237435
 p    1 1.00
             0.1687144                   1
 d    1 1.00
                   0.8                   1

2 0
 s    3 1.00
             18.731137    0.03349459952309
             2.8253937    0.23472694665786
             0.6401217    0.81375731841339
 s    1 1.00
             0.1612778                   1

3 0
 s    6 1.00
             3047.5249  0.0018347001629433
             457.36951    0.01403730124668
             103.94869   0.068842606114048
             29.210155    0.23218442062076
              9.286663    0.46794134155879
              3.163927    0.36231203217765
 s    3 1.00
             7.8682724   -0.11933240861517
             1.8812885   -0.16085421161283
             0.5442493     1.1434564825515
 s    1 1.00
             0.1687144                   1
 p    3 1.00
             7.8682724   0.068999095584993
             1.8812885    0.31642397975315
             0.5442493    0.74430825237435
 p    1 1.00
             0.1687144                   1
 d    1 1.00
                   0.8                   1

4 0
 s    3 1.00
             18.731137    0.03349459952309
             2.8253937    0.23472694665786
             0.6401217    0.81375731841339
 s    1 1.00
             0.1612778                   1

5 0
 s    6 1.00
             3047.5249  0.0018347001629433
             457.36951    0.01403730124668
             103.94869   0.068842606114048
             29.210155    0.23218442062076
              9.286663    0.46794134155879
              3.163927    0.36231203217765
 s    3 1.00
             7.8682724   -0.11933240861517
             1.8812885   -0.16085421161283
             0.5442493     1.1434564825515
 s    1 1.00
             0.1687144                   1
 p    3 1.00
             7.8682724   0.068999095584993
             1.8812885    0.31642397975315
             0.5442493    0.74430825237435
 p    1 1.00
             0.1687144                   1
 d    1 1.00
                   0.8                   1

6 0
 s    3 1.00
             18.731137    0.03349459952309
             2.8253937    0.23472694665786
             0.6401217    0.81375731841339
 s    1 1.00
             0.1612778                   1

7 0
 s    6 1.00
             3047.5249  0.0018347001629433
             457.36951    0.01403730124668
             103.94869   0.068842606114048
             29.210155    0.23218442062076
              9.286663    0.46794134155879
              3.163927    0.36231203217765
 s    3 1.00
             7.8682724   -0.11933240861517
             1.8812885   -0.16085421161283
             0.5442493     1.1434564825515
 s    1 1.00
             0.1687144                   1
 p    3 1.00
             7.8682724   0.068999095584993
             1.8812885    0.31642397975315
             0.5442493    0.74430825237435
 p    1 1.00
             0.1687144                   1
 d    1 1.00
                   0.8                   1

8 0
 s    3 1.00
             18.731137    0.03349459952309
             2.8253937    0.23472694665786
             0.6401217    0.81375731841339
 s    1 1.00
             0.1612778                   1

9 0
 s    3 1.00
             18.731137    0.03349459952309
             2.8253937    0.23472694665786
             0.6401217    0.81375731841339
 s    1 1.00
             0.1612778                   1

10 0
 s    6 1.00
             3047.5249  0.0018347001629433
             457.36951    0.01403730124668
             103.94869   0.068842606114048
             29.210155    0.23218442062076
              9.286663    0.46794134155879
              3.163927    0.36231203217765
 s    3 1.00
             7.8682724   -0.11933240861517
             1.8812885   -0.16085421161283
             0.5442493     1.1434564825515
 s    1 1.00
             0.1687144                   1
 p    3 1.00
             7.8682724   0.068999095584993
             1.8812885    0.31642397975315
             0.5442493    0.74430825237435
 p    1 1.00
             0.1687144                   1
 d    1 1.00
                   0.8                   1

11 0
 s    3 1.00
             18.731137    0.03349459952309
             2.8253937    0.23472694665786
             0.6401217    0.81375731841339
 s    1 1.00
             0.1612778                   1

12 0
 s    6 1.00
             3047.5249  0.0018347001629433
             457.36951    0.01403730124668
             103.94869   0.068842606114048
             29.210155    0.23218442062076
              9.286663    0.46794134155879
              3.163927    0.36231203217765
 s    3 1.00
             7.8682724   -0.11933240861517
             1.8812885   -0.16085421161283
             0.5442493     1.1434564825515
 s    1 1.00
             0.1687144                   1
 p    3 1.00
             7.8682724   0.068999095584993
             1.8812885    0.31642397975315
             0.5442493    0.74430825237435
 p    1 1.00
             0.1687144                   1
 d    1 1.00
                   0.8                   1

13 0
 s    3 1.00
             18.731137    0.03349459952309
             2.8253937    0.23472694665786
             0.6401217    0.81375731841339
 s    1 1.00
             0.1612778                   1

14 0
 s    3 1.00
             18.731137    0.03349459952309
             2.8253937    0.23472694665786
             0.6401217    0.81375731841339
 s    1 1.00
             0.1612778                   1

15 0
 s    6 1.00
             3047.5249  0.0018347001629433
             457.36951    0.01403730124668
             103.94869   0.068842606114048
             29.210155    0.23218442062076
              9.286663    0.46794134155879
              3.163927    0.36231203217765
 s    3 1.00
             7.8682724   -0.11933240861517
             1.8812885   -0.16085421161283
             0.5442493     1.1434564825515
 s    1 1.00
             0.1687144                   1
 p    3 1.00
             7.8682724   0.068999095584993
             1.8812885    0.31642397975315
             0.5442493    0.74430825237435
 p    1 1.00
             0.1687144                   1
 d    1 1.00
                   0.8                   1

16 0
 s    6 1.00
             3047.5249  0.0018347001629433
             457.36951    0.01403730124668
             103.94869   0.068842606114048
             29.210155    0.23218442062076
              9.286663    0.46794134155879
              3.163927    0.36231203217765
 s    3 1.00
             7.8682724   -0.11933240861517
             1.8812885   -0.16085421161283
             0.5442493     1.1434564825515
 s    1 1.00
             0.1687144                   1
 p    3 1.00
             7.8682724   0.068999095584993
             1.8812885    0.31642397975315
             0.5442493    0.74430825237435
 p    1 1.00
             0.1687144                   1
 d    1 1.00
                   0.8                   1

17 0
 s    6 1.00
             3047.5249  0.0018347001629433
             457.36951    0.01403730124668
             103.94869   0.068842606114048
             29.210155    0.23218442062076
              9.286663    0.46794134155879
              3.163927    0.36231203217765
 s    3 1.00
             7.8682724   -0.11933240861517
             1.8812885   -0.16085421161283
             0.5442493     1.1434564825515
 s    1 1.00
             0.1687144                   1
 p    3 1.00
             7.8682724   0.068999095584993
             1.8812885    0.31642397975315
             0.5442493    0.74430825237435
 p    1 1.00
             0.1687144                   1
 d    1 1.00
                   0.8                   1

18 0
 s    6 1.00
             3047.5249  0.0018347001629433
             457.36951    0.01403730124668
             103.94869   0.068842606114048
             29.210155    0.23218442062076
              9.286663    0.46794134155879
              3.163927    0.36231203217765
 s    3 1.00
             7.8682724   -0.11933240861517
             1.8812885   -0.16085421161283
             0.5442493     1.1434564825515
 s    1 1.00
             0.1687144                   1
 p    3 1.00
             7.8682724   0.068999095584993
             1.8812885    0.31642397975315
             0.5442493    0.74430825237435
 p    1 1.00
             0.1687144                   1
 d    1 1.00
                   0.8                   1

19 0
 s    6 1.00
             3047.5249  0.0018347001629433
             457.36951    0.01403730124668
             103.94869   0.068842606114048
             29.210155    0.23218442062076
              9.286663    0.46794134155879
              3.163927    0.36231203217765
 s    3 1.00
             7.8682724   -0.11933240861517
             1.8812885   -0.16085421161283
             0.5442493     1.1434564825515
 s    1 1.00
             0.1687144                   1
 p    3 1.00
             7.8682724   0.068999095584993
             1.8812885    0.31642397975315
             0.5442493    0.74430825237435
 p    1 1.00
             0.1687144                   1
 d    1 1.00
                   0.8                   1

20 0
 s    6 1.00
             3047.5249  0.0018347001629433
             457.36951    0.01403730124668
             103.94869   0.068842606114048
             29.210155    0.23218442062076
              9.286663    0.46794134155879
              3.163927    0.36231203217765
 s    3 1.00
             7.8682724   -0.11933240861517
             1.8812885   -0.16085421161283
             0.5442493     1.1434564825515
 s    1 1.00
             0.1687144                   1
 p    3 1.00
             7.8682724   0.068999095584993
             1.8812885    0.31642397975315
             0.5442493    0.74430825237435
 p    1 1.00
             0.1687144                   1
 d    1 1.00
                   0.8                   1

21 0
 s    6 1.00
             3047.5249  0.0018347001629433
             457.36951    0.01403730124668
             103.94869   0.068842606114048
             29.210155    0.23218442062076
              9.286663    0.46794134155879
              3.163927    0.36231203217765
 s    3 1.00
             7.8682724   -0.11933240861517
             1.8812885   -0.16085421161283
             0.5442493     1.1434564825515
 s    1 1.00
             0.1687144                   1
 p    3 1.00
             7.8682724   0.068999095584993
             1.8812885    0.31642397975315
             0.5442493    0.74430825237435
 p    1 1.00
             0.1687144                   1
 d    1 1.00
                   0.8                   1

22 0
 s    3 1.00
             18.731137    0.03349459952309
             2.8253937    0.23472694665786
             0.6401217    0.81375731841339
 s    1 1.00
             0.1612778                   1

23 0
 s    3 1.00
             18.731137    0.03349459952309
             2.8253937    0.23472694665786
             0.6401217    0.81375731841339
 s    1 1.00
             0.1612778                   1

24 0
 s    3 1.00
             18.731137    0.03349459952309
             2.8253937    0.23472694665786
             0.6401217    0.81375731841339
 s    1 1.00
             0.1612778                   1

25 0
 s    3 1.00
             18.731137    0.03349459952309
             2.8253937    0.23472694665786
             0.6401217    0.81375731841339
 s    1 1.00
             0.1612778                   1

26 0
 s    3 1.00
             18.731137    0.03349459952309
             2.8253937    0.23472694665786
             0.6401217    0.81375731841339
 s    1 1.00
             0.1612778                   1

27 0
 s    3 1.00
             18.731137    0.03349459952309
             2.8253937    0.23472694665786
             0.6401217    0.81375731841339
 s    1 1.00
             0.1612778                   1

28 0
 s    3 1.00
             18.731137    0.03349459952309
             2.8253937    0.23472694665786
             0.6401217    0.81375731841339
 s    1 1.00
             0.1612778                   1

29 0
 s    3 1.00
             18.731137    0.03349459952309
             2.8253937    0.23472694665786
             0.6401217    0.81375731841339
 s    1 1.00
             0.1612778                   1

30 0
 s    3 1.00
             18.731137    0.03349459952309
             2.8253937    0.23472694665786
             0.6401217    0.81375731841339
 s    1 1.00
             0.1612778                   1

31 0
 s    3 1.00
             18.731137    0.03349459952309
             2.8253937    0.23472694665786
             0.6401217    0.81375731841339
 s    1 1.00
             0.1612778                   1

32 0
 s    3 1.00
             18.731137    0.03349459952309
             2.8253937    0.23472694665786
             0.6401217    0.81375731841339
 s    1 1.00
             0.1612778                   1

33 0
 s    6 1.00
             3047.5249  0.0018347001629433
             457.36951    0.01403730124668
             103.94869   0.068842606114048
             29.210155    0.23218442062076
              9.286663    0.46794134155879
              3.163927    0.36231203217765
 s    3 1.00
             7.8682724   -0.11933240861517
             1.8812885   -0.16085421161283
             0.5442493     1.1434564825515
 s    1 1.00
             0.1687144                   1
 p    3 1.00
             7.8682724   0.068999095584993
             1.8812885    0.31642397975315
             0.5442493    0.74430825237435
 p    1 1.00
             0.1687144                   1
 d    1 1.00
                   0.8                   1

34 0
 s    6 1.00
             3047.5249  0.0018347001629433
             457.36951    0.01403730124668
             103.94869   0.068842606114048
             29.210155    0.23218442062076
              9.286663    0.46794134155879
              3.163927    0.36231203217765
 s    3 1.00
             7.8682724   -0.11933240861517
             1.8812885   -0.16085421161283
             0.5442493     1.1434564825515
 s    1 1.00
             0.1687144                   1
 p    3 1.00
             7.8682724   0.068999095584993
             1.8812885    0.31642397975315
             0.5442493    0.74430825237435
 p    1 1.00
             0.1687144                   1
 d    1 1.00
                   0.8                   1

35 0
 s    3 1.00
             18.731137    0.03349459952309
             2.8253937    0.23472694665786
             0.6401217    0.81375731841339
 s    1 1.00
             0.1612778                   1

36 0
 s    6 1.00
             3047.5249  0.0018347001629433
             457.36951    0.01403730124668
             103.94869   0.068842606114048
             29.210155    0.23218442062076
              9.286663    0.46794134155879
              3.163927    0.36231203217765
 s    3 1.00
             7.8682724   -0.11933240861517
             1.8812885   -0.16085421161283
             0.5442493     1.1434564825515
 s    1 1.00
             0.1687144                   1
 p    3 1.00
             7.8682724   0.068999095584993
             1.8812885    0.31642397975315
             0.5442493    0.74430825237435
 p    1 1.00
             0.1687144                   1
 d    1 1.00
                   0.8                   1

37 0
 s    3 1.00
             18.731137    0.03349459952309
             2.8253937    0.23472694665786
             0.6401217    0.81375731841339
 s    1 1.00
             0.1612778                   1

38 0
 s    3 1.00
             18.731137    0.03349459952309
             2.8253937    0.23472694665786
             0.6401217    0.81375731841339
 s    1 1.00
             0.1612778                   1

39 0
 s    6 1.00
             3047.5249  0.0018347001629433
             457.36951    0.01403730124668
             103.94869   0.068842606114048
             29.210155    0.23218442062076
              9.286663    0.46794134155879
              3.163927    0.36231203217765
 s    3 1.00
             7.8682724   -0.11933240861517
             1.8812885   -0.16085421161283
             0.5442493     1.1434564825515
 s    1 1.00
             0.1687144                   1
 p    3 1.00
             7.8682724   0.068999095584993
             1.8812885    0.31642397975315
             0.5442493    0.74430825237435
 p    1 1.00
             0.1687144                   1
 d    1 1.00
                   0.8                   1

40 0
 s    6 1.00
             3047.5249  0.0018347001629433
             457.36951    0.01403730124668
             103.94869   0.068842606114048
             29.210155    0.23218442062076
              9.286663    0.46794134155879
              3.163927    0.36231203217765
 s    3 1.00
             7.8682724   -0.11933240861517
             1.8812885   -0.16085421161283
             0.5442493     1.1434564825515
 s    1 1.00
             0.1687144                   1
 p    3 1.00
             7.8682724   0.068999095584993
             1.8812885    0.31642397975315
             0.5442493    0.74430825237435
 p    1 1.00
             0.1687144                   1
 d    1 1.00
                   0.8                   1

41 0
 s    3 1.00
             18.731137    0.03349459952309
             2.8253937    0.23472694665786
             0.6401217    0.81375731841339
 s    1 1.00
             0.1612778                   1

42 0
 s    6 1.00
             5484.6717   0.001831099805527
             825.23495   0.013950098518422
             188.04696    0.06844509273075
               52.9645    0.23271427528445
              16.89757    0.47019295006289
             5.7996353    0.35852086192309
 s    3 1.00
             15.539616   -0.11077750382508
             3.5999336   -0.14802630511126
             1.0137618     1.1307670390447
 s    1 1.00
             0.2700058                   1
 p    3 1.00
             15.539616   0.070874299543311
             3.5999336    0.33975279781076
             1.0137618    0.72715859531445
 p    1 1.00
             0.2700058                   1
 d    1 1.00
                   0.8                   1

43 0
 s    3 1.00
             18.731137    0.03349459952309
             2.8253937    0.23472694665786
             0.6401217    0.81375731841339
 s    1 1.00
             0.1612778                   1

[5d]
[7f]
[9g]

[MO]
 Sym= A
 Ene=               0
 Spin= Alpha
 Occup=    1.00000
   1    -1.8899325671186e-06
   2    -2.163353049511e-05
   3    6.6291740148271e-05
   4    -5.8511558047905e-06
   5    6.6320086189223e-06
   6    1.3467782391387e-05
   7    -1.7080791160851e-06
   8    5.3782886997666e-05
   9    -0.00033622741973093
  10    -3.6361711363513e-07
  11    1.0967924666675e-05
  12    3.1216308844843e-06
  13    1.3186197599716e-05
  14    -7.1859840854946e-06
  15    -1.2619738631759e-05
  16    2.2672249686494e-05
  17    6.6079197128433e-06
  18    0.00015339615634543
  19    0.00044380567038403
  20    5.0164299823962e-05
  21    -1.1161673595192e-05
  22    -6.9765288833732e-05
  23    0.00014546956106746
  24    -7.1793137627839e-05
  25    -0.00064107932802343
  26    2.2438120791373e-05
  27    -2.2321872561273e-05
  28    5.9296544572727e-06
  29    4.197711528127e-05
  30    -9.5378228297463e-06
  31    -9.7553454751962e-06
  32    2.0965348906359e-05
  33    5.0578726443199e-05
  34    0.0003370287424612
  35    -0.0043001759537073
  36    -8.1305971005654e-05
  37    1.9473778461027e-05
  38    0.0001464152024125
  39    -0.00023290766690794
  40    0.0018684088203921
  41    0.00063873205650709
  42    -3.9474067975101e-05
  43    9.7937126471862e-05
  44    -7.8480806875774e-05
  45    3.7120627538276e-05
  46    3.5058752246399e-05
  47    -1.6154761063843e-05
  48    -0.00027045406388927
  49    4.8981061041579e-06
  50    0.00011738150236463
  51    0.0034312947140265
  52    0.00013729703672315
  53    -0.00022140252694076
  54    -0.00025538100458757
  55    -0.0012914961515552
  56    0.0025123403843899
  57    0.0024293705338939
  58    -3.8100174463128e-06
  59    4.7724020988632e-05
  60    0.00018781147686669
  61    1.6130076887089e-05
  62    -0.00011800951370702
  63    0.00028363572212316
  64    7.6622551996334e-05
  65    -2.2519502564393e-07
  66    -3.4081649427594e-07
  67    -3.874105701643e-08
  68    -5.1666896595293e-07
  69    2.8654515297893e-06
  70    2.2140895579234e-07
  71    -3.0421906502709e-07
  72    8.1070696991303e-08
  73    1.8047065062732e-07
  74    1.5885503884627e-06
  75    1.9186934465011e-07
  76    -5.1259792549077e-08
  77    -1.1649255035835e-07
  78    4.8057998693493e-08
  79    7.4935665967434e-08
  80    -9.4454609325386e-08
  81    7.1980900881787e-08
  82    1.748621429582e-07
  83    2.2737062117514e-08
  84    -1.20726179586e-07
  85    -1.1581479095533e-05
  86    5.2804423930063e-07
  87    1.0862913446453e-07
  88    7.9342206474678e-07
  89    3.1264769893775e-06
  90    -4.5146066911593e-06
  91    2.6363383376789e-06
  92    1.5717714076395e-07
  93    -2.5279575757559e-07
  94    3.0724981789321e-07
  95    2.647782495106e-08
  96    -1.3888150767299e-07
  97    5.919818171613e-07
  98    8.5490783849256e-07
  99    -6.8834527917083e-08
 100    -1.0808481874314e-06
 101    -8.7970522231676e-08
 102    -1.0616230511755e-06
 103    1.4850221893385e-05
 104    1.0208076639168e-07
 105    -8.6516170682996e-07
 106    -4.7533112230354e-07
 107    -1.7718467424661e-05
 108    1.5722209735052e-05
 109    2.564983567543e-05
 110    -5.4101942106522e-07
 111    -4.7644017670178e-07
 112    2.1296195175479e-07
 113    4.3907400360998e-07
 114    -4.4691557134146e-07
 115    -4.5990371525356e-07
 116    -4.3212823699437e-06
 117    3.3517787905343e-05
 118    -5.9546515554244e-07
 119    9.9127655143984e-07
 120    7.8451586196498e-07
 121    -7.0744146697739e-06
 122    1.4353045336867e-07
 123    1.2782607732883e-06
 124    -4.9364292709091e-08
 125    -1.4099415661384e-07
 126    -1.6121199546948e-07
 127    2.9135055124944e-08
 128    -2.887304145255e-07
 129    -8.6250225080794e-07
 130    -8.1226598996795e-06
 131    4.190985084648e-05
 132    1.1165115215125e-07
 133    -5.8543204814743e-07
 134    3.3578406474902e-06
 135    -2.2803534671232e-05
 136    3.2180527830411e-06
 137    -6.94625764005e-05
 138    2.1782878954673e-06
 139    1.2978915817771e-06
 140    2.1620670937932e-07
 141    3.6925497733268e-07
 142    1.0060247088556e-07
 143    -2.9973367675207e-07
 144    -2.8587123697119e-06
 145    1.4196378895223e-05
 146    2.9150585084955e-07
 147    6.5255132193336e-07
 148    2.6266509160853e-07
 149    9.1517589701124e-06
 150    -7.4618618460182e-06
 151    -1.1039945820212e-06
 152    -9.4691036453182e-07
 153    -3.0392755457006e-07
 154    -5.8296109433276e-08
 155    6.4901758933111e-07
 156    -5.7918222823579e-07
 157    7.2604915039141e-08
 158    6.3835192659764e-07
 159    2.1655226901811e-06
 160    6.9702231101113e-07
 161    -1.7577265042774e-07
 162    2.3146083397781e-08
 163    -5.0988408226331e-06
 164    -4.8253129642938e-07
 165    6.7657002811759e-07
 166    3.3520984852624e-07
 167    -7.3961267389538e-08
 168    -3.856888988801e-09
 169    -1.1516875029132e-07
 170    2.0699234065524e-07
 171    2.7739905207928e-08
 172    -3.5178099264936e-07
 173    -2.093536083669e-06
 174    -6.2622745972399e-07
 175    -1.2219968635049e-07
 176    6.9437587350818e-07
 177    -5.6865384424427e-07
 178    1.1345279183724e-06
 179    -1.9902043047407e-06
 180    1.5577489684734e-07
 181    1.7158313773034e-07
 182    -1.633859237818e-08
 183    -3.6132219216346e-07
 184    1.4305728676133e-07
 185    -2.655550120224e-07
 186    -2.6821490909611e-06
 187    2.0842738802277e-06
 188    -2.1743615327476e-07
 189    1.1746796337809e-07
 190    9.9135784891851e-07
 191    2.2273239402007e-06
 192    1.2236038638738e-06
 193    -5.3382929044734e-06
 194    3.3729358839914e-07
 195    -4.4814979874373e-08
 196    9.0505316151132e-08
 197    5.9014662711348e-08
 198    -8.0749451635637e-08
 199    -6.9745515117999e-07
 200    -1.3291510016302e-06
 201    7.7718549949095e-08
 202    3.0014566593614e-06
 203    -1.6056672076114e-06
 204    -1.9514930952638e-06
 205    -3.3907352990912e-07
 206    -2.1650610619471e-06
 207    1.5101594771367e-06
 208    -1.314939781162e-05
 209    8.9675077337057e-07
 210    -3.7873645867235e-06
 211    3.1936990020669e-07
 212    2.5072509982608e-06
 213    -1.9059457703657e-07
 214    -1.8997972734965e-06
 215    -4.3751926927991e-07
 216    2.5110838524254e-07
 217    2.9550456482883e-07
 218    8.6584234205975e-07
 219    2.0365779868993e-07
 220    1.0691191993111e-06
 221    -6.7828697021975e-07
 222    -7.5929386887493e-06
 223    -2.780891374126e-06
 224    -1.0473730896365e-07
 225    -1.1577391407729e-07
 226    3.0953680052848e-06
 227    1.5408017231366e-05
 228    2.3322813640913e-05
 229    -7.9237692894758e-05
 230    -1.0763659676749e-06
 231    -3.4404997321129e-06
 232    -1.8467636132346e-06
 233      1.5846172591e-06
 234    2.6382655523741e-06
 235    -1.3188857155864e-06
 236    -1.2484018602623e-05
 237    4.1677640486633e-05
 238    -1.0111541412551e-06
 239    2.7660610196011e-06
 240    3.7360807447501e-06
 241    -2.1911889745903e-05
 242    -1.0156361691066e-05
 243    -9.5044001279418e-05
 244    2.5269117694271e-06
 245    6.4014011284426e-06
 246    2.300297027414e-06
 247    2.3851114041076e-06
 248    2.034956108858e-06
 249    -3.0410335037376e-06
 250    1.1102223062306e-05
 251    -3.1949708984256e-06
 252    -2.6987218176338e-05
 253    0.00017753034714555
 254    3.3032596779976e-06
 255    -1.1954979234189e-05
 256    8.0595534696348e-06
 257    8.0139337590449e-05
 258    0.00010275933966795
 259    -0.00021346176064312
 260    6.1501108514081e-07
 261    -1.0689669220393e-05
 262    -5.8550875424078e-06
 263    6.0658706731686e-06
 264    6.7842007574798e-06
 265    -4.62992057682e-06
 266    2.5883255168923e-05
 267    -8.4144133788127e-06
 268    3.594872721226e-05
 269    -5.1104306076921e-05
 270    -0.00012485281298229
 271    0.0030334307605966
 272    2.6409900905451e-06
 273    -0.0001851349389726
 274    -2.1403726198709e-05
 275    0.0019910733006909
 276    0.00057525656011418
 277    -0.0032806855544467
 278    0.00024237949934445
 279    -0.00018962124324007
 280    0.00013808352378179