[Molden Format]
made by pyscf v[2.0.1]
[Atoms] (AU)
C   1   6     0.69100024066471     0.64692934207205    -3.48223131169301
H   2   1     2.68052439830868     1.13355088658700    -3.25784032593313
C   3   6    -0.36286361513219     0.85440132524594    -5.97030179418974
H   4   1    -2.35448549047279     0.36322488579172    -6.17995817793143
C   5   6     0.93697958957450     1.61209284601821    -8.05828437677121
H   6   1     2.68174994182533     2.67994959464420    -7.82079505522331
C   7   6     0.13444904340515     1.08121190669811   -10.59410649762000
H   8   1    -1.61655526267424     0.00863003830430   -10.80213119601662
H   9   1     1.55630230933075    -1.92953025305990    12.99630010416247
C   10   6     0.75233899775814    -2.21270439606481    11.10705728102219
H   11   1    -0.43433408177274    -3.90944857546550    11.22216085340412
C   12   6     2.86362581178706    -2.63237380607947     9.17926416456045
H   13   1     4.39038949912609    -1.24955421540245     9.49899813497433
H   14   1     3.74629220191363    -4.48798724300892     9.47414880959024
C   15   6     2.02478325613682    -2.42177285709634     6.44560829588644
C   16   6     3.88048732735477    -3.58795445234514     4.61402886975252
C   17   6    -0.18412382258602    -1.30464291234259     5.76021113872346
C   18   6    -2.10044360464350    -0.26837831858460     7.71610340967100
C   19   6    -3.08956938670431     2.35282328359417     6.88693925039594
C   20   6    -4.37372924086464    -2.09766595989678     7.93610724222001
C   21   6    -0.83850430601230     0.06372213486173    10.33002307638377
H   22   1     0.38411922151109     1.74281358582432    10.27380136542181
H   23   1    -2.30980003007874     0.45460143924521    11.73986301809809
H   24   1     4.58527064644668    -5.38706904487420     5.36778158031719
H   25   1     5.54944938085014    -2.37631462192748     4.35398898413318
H   26   1     3.06633019150423    -3.94118377050688     2.75255466040884
H   27   1    -4.17727778763735     2.26573369139522     5.12914900961283
H   28   1    -1.52662344944051     3.68001877445626     6.59540397144508
H   29   1    -4.32916174397830     3.13643051467482     8.35225460090378
H   30   1    -5.32329548508442    -2.36691813602939     6.11583672749896
H   31   1    -5.77989366602257    -1.33896741843465     9.25748940450990
H   32   1    -3.79310905208926    -3.96389819310853     8.61386170102686
C   33   6    -1.01100794811226    -1.06331657314144     3.11929490449947
C   34   6     0.37686231036534    -0.33275864505552     1.09165013605873
H   35   1    -3.01671213906703    -1.40297922279997     2.77827895090944
C   36   6    -0.64382707979370    -0.11591880174385    -1.42063131251064
H   37   1     2.35569259782137     0.17174499283897     1.33641070251401
H   38   1    -2.63317482980319    -0.60229203511219    -1.66119700387645
C   39   6     1.36441264344082     1.79875350819652   -12.72695837882209
C   40   6     0.39042169983249     1.16479015456541   -15.22824898409742
H   41   1     3.11744943935123     2.87075295695162   -12.65315109008398
O   42   8     1.39604269582139     1.74939992973347   -17.22017818748739
H   43   1    -1.40767336523230     0.06622817248511   -15.21429812709214
[GTO]
1 0
 s    6 1.00
             3047.5249  0.0018347001629433
             457.36951    0.01403730124668
             103.94869   0.068842606114048
             29.210155    0.23218442062076
              9.286663    0.46794134155879
              3.163927    0.36231203217765
 s    3 1.00
             7.8682724   -0.11933240861517
             1.8812885   -0.16085421161283
             0.5442493     1.1434564825515
 s    1 1.00
             0.1687144                   1
 p    3 1.00
             7.8682724   0.068999095584993
             1.8812885    0.31642397975315
             0.5442493    0.74430825237435
 p    1 1.00
             0.1687144                   1
 d    1 1.00
                   0.8                   1

2 0
 s    3 1.00
             18.731137    0.03349459952309
             2.8253937    0.23472694665786
             0.6401217    0.81375731841339
 s    1 1.00
             0.1612778                   1

3 0
 s    6 1.00
             3047.5249  0.0018347001629433
             457.36951    0.01403730124668
             103.94869   0.068842606114048
             29.210155    0.23218442062076
              9.286663    0.46794134155879
              3.163927    0.36231203217765
 s    3 1.00
             7.8682724   -0.11933240861517
             1.8812885   -0.16085421161283
             0.5442493     1.1434564825515
 s    1 1.00
             0.1687144                   1
 p    3 1.00
             7.8682724   0.068999095584993
             1.8812885    0.31642397975315
             0.5442493    0.74430825237435
 p    1 1.00
             0.1687144                   1
 d    1 1.00
                   0.8                   1

4 0
 s    3 1.00
             18.731137    0.03349459952309
             2.8253937    0.23472694665786
             0.6401217    0.81375731841339
 s    1 1.00
             0.1612778                   1

5 0
 s    6 1.00
             3047.5249  0.0018347001629433
             457.36951    0.01403730124668
             103.94869   0.068842606114048
             29.210155    0.23218442062076
              9.286663    0.46794134155879
              3.163927    0.36231203217765
 s    3 1.00
             7.8682724   -0.11933240861517
             1.8812885   -0.16085421161283
             0.5442493     1.1434564825515
 s    1 1.00
             0.1687144                   1
 p    3 1.00
             7.8682724   0.068999095584993
             1.8812885    0.31642397975315
             0.5442493    0.74430825237435
 p    1 1.00
             0.1687144                   1
 d    1 1.00
                   0.8                   1

6 0
 s    3 1.00
             18.731137    0.03349459952309
             2.8253937    0.23472694665786
             0.6401217    0.81375731841339
 s    1 1.00
             0.1612778                   1

7 0
 s    6 1.00
             3047.5249  0.0018347001629433
             457.36951    0.01403730124668
             103.94869   0.068842606114048
             29.210155    0.23218442062076
              9.286663    0.46794134155879
              3.163927    0.36231203217765
 s    3 1.00
             7.8682724   -0.11933240861517
             1.8812885   -0.16085421161283
             0.5442493     1.1434564825515
 s    1 1.00
             0.1687144                   1
 p    3 1.00
             7.8682724   0.068999095584993
             1.8812885    0.31642397975315
             0.5442493    0.74430825237435
 p    1 1.00
             0.1687144                   1
 d    1 1.00
                   0.8                   1

8 0
 s    3 1.00
             18.731137    0.03349459952309
             2.8253937    0.23472694665786
             0.6401217    0.81375731841339
 s    1 1.00
             0.1612778                   1

9 0
 s    3 1.00
             18.731137    0.03349459952309
             2.8253937    0.23472694665786
             0.6401217    0.81375731841339
 s    1 1.00
             0.1612778                   1

10 0
 s    6 1.00
             3047.5249  0.0018347001629433
             457.36951    0.01403730124668
             103.94869   0.068842606114048
             29.210155    0.23218442062076
              9.286663    0.46794134155879
              3.163927    0.36231203217765
 s    3 1.00
             7.8682724   -0.11933240861517
             1.8812885   -0.16085421161283
             0.5442493     1.1434564825515
 s    1 1.00
             0.1687144                   1
 p    3 1.00
             7.8682724   0.068999095584993
             1.8812885    0.31642397975315
             0.5442493    0.74430825237435
 p    1 1.00
             0.1687144                   1
 d    1 1.00
                   0.8                   1

11 0
 s    3 1.00
             18.731137    0.03349459952309
             2.8253937    0.23472694665786
             0.6401217    0.81375731841339
 s    1 1.00
             0.1612778                   1

12 0
 s    6 1.00
             3047.5249  0.0018347001629433
             457.36951    0.01403730124668
             103.94869   0.068842606114048
             29.210155    0.23218442062076
              9.286663    0.46794134155879
              3.163927    0.36231203217765
 s    3 1.00
             7.8682724   -0.11933240861517
             1.8812885   -0.16085421161283
             0.5442493     1.1434564825515
 s    1 1.00
             0.1687144                   1
 p    3 1.00
             7.8682724   0.068999095584993
             1.8812885    0.31642397975315
             0.5442493    0.74430825237435
 p    1 1.00
             0.1687144                   1
 d    1 1.00
                   0.8                   1

13 0
 s    3 1.00
             18.731137    0.03349459952309
             2.8253937    0.23472694665786
             0.6401217    0.81375731841339
 s    1 1.00
             0.1612778                   1

14 0
 s    3 1.00
             18.731137    0.03349459952309
             2.8253937    0.23472694665786
             0.6401217    0.81375731841339
 s    1 1.00
             0.1612778                   1

15 0
 s    6 1.00
             3047.5249  0.0018347001629433
             457.36951    0.01403730124668
             103.94869   0.068842606114048
             29.210155    0.23218442062076
              9.286663    0.46794134155879
              3.163927    0.36231203217765
 s    3 1.00
             7.8682724   -0.11933240861517
             1.8812885   -0.16085421161283
             0.5442493     1.1434564825515
 s    1 1.00
             0.1687144                   1
 p    3 1.00
             7.8682724   0.068999095584993
             1.8812885    0.31642397975315
             0.5442493    0.74430825237435
 p    1 1.00
             0.1687144                   1
 d    1 1.00
                   0.8                   1

16 0
 s    6 1.00
             3047.5249  0.0018347001629433
             457.36951    0.01403730124668
             103.94869   0.068842606114048
             29.210155    0.23218442062076
              9.286663    0.46794134155879
              3.163927    0.36231203217765
 s    3 1.00
             7.8682724   -0.11933240861517
             1.8812885   -0.16085421161283
             0.5442493     1.1434564825515
 s    1 1.00
             0.1687144                   1
 p    3 1.00
             7.8682724   0.068999095584993
             1.8812885    0.31642397975315
             0.5442493    0.74430825237435
 p    1 1.00
             0.1687144                   1
 d    1 1.00
                   0.8                   1

17 0
 s    6 1.00
             3047.5249  0.0018347001629433
             457.36951    0.01403730124668
             103.94869   0.068842606114048
             29.210155    0.23218442062076
              9.286663    0.46794134155879
              3.163927    0.36231203217765
 s    3 1.00
             7.8682724   -0.11933240861517
             1.8812885   -0.16085421161283
             0.5442493     1.1434564825515
 s    1 1.00
             0.1687144                   1
 p    3 1.00
             7.8682724   0.068999095584993
             1.8812885    0.31642397975315
             0.5442493    0.74430825237435
 p    1 1.00
             0.1687144                   1
 d    1 1.00
                   0.8                   1

18 0
 s    6 1.00
             3047.5249  0.0018347001629433
             457.36951    0.01403730124668
             103.94869   0.068842606114048
             29.210155    0.23218442062076
              9.286663    0.46794134155879
              3.163927    0.36231203217765
 s    3 1.00
             7.8682724   -0.11933240861517
             1.8812885   -0.16085421161283
             0.5442493     1.1434564825515
 s    1 1.00
             0.1687144                   1
 p    3 1.00
             7.8682724   0.068999095584993
             1.8812885    0.31642397975315
             0.5442493    0.74430825237435
 p    1 1.00
             0.1687144                   1
 d    1 1.00
                   0.8                   1

19 0
 s    6 1.00
             3047.5249  0.0018347001629433
             457.36951    0.01403730124668
             103.94869   0.068842606114048
             29.210155    0.23218442062076
              9.286663    0.46794134155879
              3.163927    0.36231203217765
 s    3 1.00
             7.8682724   -0.11933240861517
             1.8812885   -0.16085421161283
             0.5442493     1.1434564825515
 s    1 1.00
             0.1687144                   1
 p    3 1.00
             7.8682724   0.068999095584993
             1.8812885    0.31642397975315
             0.5442493    0.74430825237435
 p    1 1.00
             0.1687144                   1
 d    1 1.00
                   0.8                   1

20 0
 s    6 1.00
             3047.5249  0.0018347001629433
             457.36951    0.01403730124668
             103.94869   0.068842606114048
             29.210155    0.23218442062076
              9.286663    0.46794134155879
              3.163927    0.36231203217765
 s    3 1.00
             7.8682724   -0.11933240861517
             1.8812885   -0.16085421161283
             0.5442493     1.1434564825515
 s    1 1.00
             0.1687144                   1
 p    3 1.00
             7.8682724   0.068999095584993
             1.8812885    0.31642397975315
             0.5442493    0.74430825237435
 p    1 1.00
             0.1687144                   1
 d    1 1.00
                   0.8                   1

21 0
 s    6 1.00
             3047.5249  0.0018347001629433
             457.36951    0.01403730124668
             103.94869   0.068842606114048
             29.210155    0.23218442062076
              9.286663    0.46794134155879
              3.163927    0.36231203217765
 s    3 1.00
             7.8682724   -0.11933240861517
             1.8812885   -0.16085421161283
             0.5442493     1.1434564825515
 s    1 1.00
             0.1687144                   1
 p    3 1.00
             7.8682724   0.068999095584993
             1.8812885    0.31642397975315
             0.5442493    0.74430825237435
 p    1 1.00
             0.1687144                   1
 d    1 1.00
                   0.8                   1

22 0
 s    3 1.00
             18.731137    0.03349459952309
             2.8253937    0.23472694665786
             0.6401217    0.81375731841339
 s    1 1.00
             0.1612778                   1

23 0
 s    3 1.00
             18.731137    0.03349459952309
             2.8253937    0.23472694665786
             0.6401217    0.81375731841339
 s    1 1.00
             0.1612778                   1

24 0
 s    3 1.00
             18.731137    0.03349459952309
             2.8253937    0.23472694665786
             0.6401217    0.81375731841339
 s    1 1.00
             0.1612778                   1

25 0
 s    3 1.00
             18.731137    0.03349459952309
             2.8253937    0.23472694665786
             0.6401217    0.81375731841339
 s    1 1.00
             0.1612778                   1

26 0
 s    3 1.00
             18.731137    0.03349459952309
             2.8253937    0.23472694665786
             0.6401217    0.81375731841339
 s    1 1.00
             0.1612778                   1

27 0
 s    3 1.00
             18.731137    0.03349459952309
             2.8253937    0.23472694665786
             0.6401217    0.81375731841339
 s    1 1.00
             0.1612778                   1

28 0
 s    3 1.00
             18.731137    0.03349459952309
             2.8253937    0.23472694665786
             0.6401217    0.81375731841339
 s    1 1.00
             0.1612778                   1

29 0
 s    3 1.00
             18.731137    0.03349459952309
             2.8253937    0.23472694665786
             0.6401217    0.81375731841339
 s    1 1.00
             0.1612778                   1

30 0
 s    3 1.00
             18.731137    0.03349459952309
             2.8253937    0.23472694665786
             0.6401217    0.81375731841339
 s    1 1.00
             0.1612778                   1

31 0
 s    3 1.00
             18.731137    0.03349459952309
             2.8253937    0.23472694665786
             0.6401217    0.81375731841339
 s    1 1.00
             0.1612778                   1

32 0
 s    3 1.00
             18.731137    0.03349459952309
             2.8253937    0.23472694665786
             0.6401217    0.81375731841339
 s    1 1.00
             0.1612778                   1

33 0
 s    6 1.00
             3047.5249  0.0018347001629433
             457.36951    0.01403730124668
             103.94869   0.068842606114048
             29.210155    0.23218442062076
              9.286663    0.46794134155879
              3.163927    0.36231203217765
 s    3 1.00
             7.8682724   -0.11933240861517
             1.8812885   -0.16085421161283
             0.5442493     1.1434564825515
 s    1 1.00
             0.1687144                   1
 p    3 1.00
             7.8682724   0.068999095584993
             1.8812885    0.31642397975315
             0.5442493    0.74430825237435
 p    1 1.00
             0.1687144                   1
 d    1 1.00
                   0.8                   1

34 0
 s    6 1.00
             3047.5249  0.0018347001629433
             457.36951    0.01403730124668
             103.94869   0.068842606114048
             29.210155    0.23218442062076
              9.286663    0.46794134155879
              3.163927    0.36231203217765
 s    3 1.00
             7.8682724   -0.11933240861517
             1.8812885   -0.16085421161283
             0.5442493     1.1434564825515
 s    1 1.00
             0.1687144                   1
 p    3 1.00
             7.8682724   0.068999095584993
             1.8812885    0.31642397975315
             0.5442493    0.74430825237435
 p    1 1.00
             0.1687144                   1
 d    1 1.00
                   0.8                   1

35 0
 s    3 1.00
             18.731137    0.03349459952309
             2.8253937    0.23472694665786
             0.6401217    0.81375731841339
 s    1 1.00
             0.1612778                   1

36 0
 s    6 1.00
             3047.5249  0.0018347001629433
             457.36951    0.01403730124668
             103.94869   0.068842606114048
             29.210155    0.23218442062076
              9.286663    0.46794134155879
              3.163927    0.36231203217765
 s    3 1.00
             7.8682724   -0.11933240861517
             1.8812885   -0.16085421161283
             0.5442493     1.1434564825515
 s    1 1.00
             0.1687144                   1
 p    3 1.00
             7.8682724   0.068999095584993
             1.8812885    0.31642397975315
             0.5442493    0.74430825237435
 p    1 1.00
             0.1687144                   1
 d    1 1.00
                   0.8                   1

37 0
 s    3 1.00
             18.731137    0.03349459952309
             2.8253937    0.23472694665786
             0.6401217    0.81375731841339
 s    1 1.00
             0.1612778                   1

38 0
 s    3 1.00
             18.731137    0.03349459952309
             2.8253937    0.23472694665786
             0.6401217    0.81375731841339
 s    1 1.00
             0.1612778                   1

39 0
 s    6 1.00
             3047.5249  0.0018347001629433
             457.36951    0.01403730124668
             103.94869   0.068842606114048
             29.210155    0.23218442062076
              9.286663    0.46794134155879
              3.163927    0.36231203217765
 s    3 1.00
             7.8682724   -0.11933240861517
             1.8812885   -0.16085421161283
             0.5442493     1.1434564825515
 s    1 1.00
             0.1687144                   1
 p    3 1.00
             7.8682724   0.068999095584993
             1.8812885    0.31642397975315
             0.5442493    0.74430825237435
 p    1 1.00
             0.1687144                   1
 d    1 1.00
                   0.8                   1

40 0
 s    6 1.00
             3047.5249  0.0018347001629433
             457.36951    0.01403730124668
             103.94869   0.068842606114048
             29.210155    0.23218442062076
              9.286663    0.46794134155879
              3.163927    0.36231203217765
 s    3 1.00
             7.8682724   -0.11933240861517
             1.8812885   -0.16085421161283
             0.5442493     1.1434564825515
 s    1 1.00
             0.1687144                   1
 p    3 1.00
             7.8682724   0.068999095584993
             1.8812885    0.31642397975315
             0.5442493    0.74430825237435
 p    1 1.00
             0.1687144                   1
 d    1 1.00
                   0.8                   1

41 0
 s    3 1.00
             18.731137    0.03349459952309
             2.8253937    0.23472694665786
             0.6401217    0.81375731841339
 s    1 1.00
             0.1612778                   1

42 0
 s    6 1.00
             5484.6717   0.001831099805527
             825.23495   0.013950098518422
             188.04696    0.06844509273075
               52.9645    0.23271427528445
              16.89757    0.47019295006289
             5.7996353    0.35852086192309
 s    3 1.00
             15.539616   -0.11077750382508
             3.5999336   -0.14802630511126
             1.0137618     1.1307670390447
 s    1 1.00
             0.2700058                   1
 p    3 1.00
             15.539616   0.070874299543311
             3.5999336    0.33975279781076
             1.0137618    0.72715859531445
 p    1 1.00
             0.2700058                   1
 d    1 1.00
                   0.8                   1

43 0
 s    3 1.00
             18.731137    0.03349459952309
             2.8253937    0.23472694665786
             0.6401217    0.81375731841339
 s    1 1.00
             0.1612778                   1

[5d]
[7f]
[9g]

[MO]
 Sym= A
 Ene=               0
 Spin= Alpha
 Occup=    1.00000
   1    -5.8634629223233e-06
   2    -4.4450079707107e-05
   3    -8.9806391016391e-05
   4    -1.484889855839e-05
   5    -3.1349667911562e-05
   6    3.0476121341882e-05
   7    0.00024055426163649
   8    0.00028340386056498
   9    -0.00082696491228051
  10    1.9600801231497e-05
  11    3.0027694422907e-05
  12    7.9883908042279e-07
  13    4.3900633217053e-06
  14    -7.6624640854641e-07
  15    -4.5832987716888e-05
  16    -3.1715902229285e-05
  17    1.6943017763609e-05
  18    6.6153855635426e-05
  19    -0.0019578423302431
  20    -1.6496267439851e-05
  21    2.7251844911507e-06
  22    6.2861221169227e-05
  23    -0.00040393588026642
  24    -0.00017185965509468
  25    0.00070441445523538
  26    -5.5480630694777e-05
  27    1.5466086392929e-05
  28    2.3092393530994e-05
  29    -1.2788033127129e-05
  30    2.2880310455754e-05
  31    4.109087486233e-06
  32    9.9994326391969e-05
  33    -5.8937845729675e-05
  34    -0.00036414842986622
  35    0.0052912004426861
  36    4.2843612274086e-05
  37    9.2667351252482e-06
  38    -0.0001145052566657
  39    -0.0016907527363648
  40    -0.0010026534420641
  41    -0.0013875382570295
  42    0.00015945836595993
  43    3.7108203768207e-05
  44    3.2665851221472e-05
  45    2.0424228255719e-05
  46    4.6401981233575e-05
  47      4.3564362183e-05
  48    0.00031906072072142
  49    2.5746504546761e-06
  50    -7.3249811283016e-05
  51    -0.0039885635132352
  52    9.6568484408639e-05
  53    7.2889362332978e-05
  54    0.0003404643336221
  55    -0.0013711113111087
  56    -0.00093790063644105
  57    -0.0037622886126342
  58    -0.00010774400606991
  59    -0.00016334876452195
  60    -0.00010425510478971
  61    4.9536485504389e-05
  62    8.6397377200549e-05
  63    -0.00027677669496313
  64    -0.00011772688540994
  65    -9.3331025141936e-08
  66    1.7085770416134e-06
  67    -1.1161003526477e-07
  68    -1.2259216059648e-06
  69    -3.1959217971893e-07
  70    7.1806369581189e-07
  71    -8.1541850635272e-07
  72    3.8063548970241e-07
  73    1.8714841958347e-06
  74    4.9137858850877e-07
  75    -2.4526948916653e-06
  76    2.2066656053345e-07
  77    7.0570032488709e-08
  78    1.2936210053425e-07
  79    9.9624075472939e-08
  80     7.52817953933e-08
  81    1.0583966076127e-07
  82    6.0865419736085e-07
  83    2.4812856337866e-07
  84    1.7215528537371e-06
  85    -9.0162945152742e-06
  86    3.6501726231862e-07
  87    6.0646836768106e-08
  88    6.4752574744678e-07
  89    4.5755715969734e-06
  90    -7.4936505674669e-06
  91    3.4728111275527e-07
  92    -1.1112566202856e-07
  93    -4.2893168608339e-07
  94    8.199160338275e-07
  95    -2.849905786775e-07
  96    -1.8134352895199e-10
  97    1.208333593648e-06
  98    5.5583415374209e-07
  99    -2.855830605101e-07
 100    -1.3582812164818e-06
 101    -5.5881303762471e-07
 102    -2.2594282813379e-06
 103    7.3017662826889e-05
 104    -8.87550829702e-07
 105    1.8207533978621e-07
 106    -2.0841452703471e-06
 107    -2.9827193865613e-05
 108    3.0465271088367e-05
 109    -4.5381630938349e-06
 110    6.4043145087198e-07
 111    1.0210501314368e-06
 112    -4.5195266910764e-07
 113    -4.9250895468523e-07
 114    -1.4504112393578e-06
 115    3.3107792112124e-07
 116    3.752194775018e-06
 117    -6.6906811364223e-06
 118    -3.9747167618528e-07
 119    1.4999121186054e-06
 120    -1.3017668351304e-06
 121    3.2821556343201e-06
 122    -9.9010856994477e-06
 123    1.4722704460814e-05
 124    4.7885878194853e-07
 125    -5.2799238857292e-07
 126    -5.9289612438957e-07
 127    -1.1674597572513e-07
 128    -1.6454604969757e-07
 129    2.9677264440122e-07
 130    2.7602823660712e-06
 131    4.1292690984189e-05
 132    4.8910449703021e-06
 133    1.3429313303056e-06
 134    -3.3475371077529e-06
 135    -9.9182577948585e-05
 136    8.2183349698448e-06
 137    -2.91427772343e-05
 138    9.2932997037228e-07
 139    8.4988277489624e-07
 140    2.2977574677983e-06
 141    -3.0982135261034e-07
 142    1.5403814968105e-06
 143    -1.4632499592118e-08
 144    -1.8573028807855e-06
 145    -3.0914227188521e-05
 146    -3.4537400164411e-07
 147    -1.1463600401588e-06
 148    4.4149938322664e-06
 149    -9.8896020967361e-06
 150    3.2082067792212e-05
 151    -1.5040503158827e-05
 152    -8.4016174672424e-07
 153    1.6830900411727e-07
 154    -1.7842686672388e-06
 155    -1.1603061250349e-07
 156    -8.925911605382e-07
 157    5.6419723256275e-07
 158    4.5242039700412e-06
 159    -2.7262719994339e-05
 160    3.4875202741688e-07
 161    7.2849530446823e-07
 162    -8.7610904813578e-07
 163    -9.2090194500746e-06
 164    1.0508951581462e-05
 165    1.6158547541494e-06
 166    9.382143486023e-07
 167    -2.8193053317956e-07
 168    1.9335903797196e-07
 169    3.9313318944089e-07
 170    7.0978668350746e-07
 171    4.9444357790151e-08
 172    2.3312213154912e-07
 173    3.3543340800012e-06
 174    -1.2583742433669e-07
 175    -2.0294678536129e-07
 176    1.2725655546586e-06
 177    1.0428684956737e-05
 178    3.5836913725958e-06
 179    4.7148064803551e-06
 180    -2.8597857858951e-07
 181    1.2142144966107e-06
 182    1.751571082904e-08
 183    6.3655453870827e-07
 184    9.1413490765893e-07
 185    -6.1114109360251e-07
 186    -5.1658225223819e-06
 187    2.4348184601501e-05
 188    -9.8979361704525e-07
 189    -6.7549014565283e-08
 190    -1.0883082380893e-07
 191    -3.9581216781846e-07
 192    -8.5239109981352e-06
 193    -1.1646226400793e-05
 194    4.9533549704495e-07
 195    6.8911268736677e-07
 196    1.3225656044554e-06
 197    -4.0322125862932e-07
 198    3.0790112757941e-07
 199    -1.5364434922115e-06
 200    1.3069249199559e-06
 201    -3.6597474005472e-07
 202    1.3832344280869e-06
 203    -8.3318187135567e-07
 204    -5.8932975694846e-06
 205    2.5721807256641e-06
 206    6.3661298221638e-07
 207    -3.2617976068602e-07
 208    1.4435213997288e-05
 209    2.0319876935303e-06
 210    3.3549069988797e-08
 211    1.6563711551227e-06
 212    3.033903593478e-06
 213    4.5630590792251e-07
 214    -2.9539058948939e-06
 215    -2.3785815104669e-06
 216    1.4968030930806e-05
 217    6.4555487793061e-07
 218    9.6228532140878e-08
 219    6.7312378055051e-07
 220    -1.969781129484e-06
 221    -3.1067023415441e-06
 222    -1.9294797027772e-05
 223    0.00021568367710386
 224    5.4716291556829e-06
 225    6.9388063939171e-08
 226    4.3986793889544e-07
 227    3.6305085335341e-05
 228    4.6098520327387e-05
 229    -0.00023615604770891
 230    5.0537914045347e-06
 231    -7.8726017500194e-06
 232    -5.4609474027316e-06
 233    2.8000308493089e-06
 234    2.0302389234631e-06
 235    6.4866661577078e-06
 236    3.7199474686605e-05
 237    -0.0006385441150521
 238    -3.8060713765322e-06
 239    -5.6886907086916e-06
 240    1.611383946049e-05
 241    0.00019957754103862
 242    4.9929424262147e-05
 243    9.1704252648153e-05
 244    -1.7416912787673e-05
 245    2.8495290661162e-06
 246    4.9792200020133e-06
 247    -1.2386875115257e-06
 248    -3.3366113668418e-06
 249    -9.4825133454771e-06
 250    -1.7373814156389e-05
 251    -7.3332165210197e-06
 252    -4.5472441130315e-05
 253    0.00093438631121775
 254    -1.1589309650132e-05
 255    1.0808803624342e-05
 256    -2.9179829506498e-05
 257    0.00041358579705082
 258    5.1263222784638e-05
 259    8.6164226963412e-05
 260    1.7136537123461e-05
 261    -4.8525368200975e-06
 262    -5.321911839945e-06
 263    5.8779498647922e-06
 264    7.2781909256974e-07
 265    -7.3304289319091e-06
 266    -6.2290559412609e-06
 267    2.3296300134076e-05
 268    5.7333402651377e-05
 269    5.0117102073713e-05
 270    0.00012006165719974
 271    -0.0030348414922314
 272    0.00013905312943842
 273    8.4927511722772e-05
 274    7.2687753707222e-05
 275    -0.0014722577540772
 276    -0.00082949581884719
 277    0.0035986338228634
 278    -0.0003575086835554
 279    7.0183806732726e-05
 280    3.7624870338684e-05