[Molden Format]
made by pyscf v[2.0.1]
[Atoms] (AU)
C   1   6     0.69100024066471     0.64692934207205    -3.48223131169301
H   2   1     2.68052439830868     1.13355088658700    -3.25784032593313
C   3   6    -0.36286361513219     0.85440132524594    -5.97030179418974
H   4   1    -2.35448549047279     0.36322488579172    -6.17995817793143
C   5   6     0.93697958957450     1.61209284601821    -8.05828437677121
H   6   1    -0.09693119212527     2.00604603919817    -9.79517014534402
C   7   6     3.63030097622708     1.92762357571405    -8.11066704391556
H   8   1     4.64038155806228     1.52704759336691    -6.35595956986227
H   9   1     1.55630230933075    -1.92953025305990    12.99630010416247
C   10   6     0.75233899775814    -2.21270439606481    11.10705728102219
H   11   1    -0.43433408177274    -3.90944857546550    11.22216085340412
C   12   6     2.86362581178706    -2.63237380607947     9.17926416456045
H   13   1     4.39038949912609    -1.24955421540245     9.49899813497433
H   14   1     3.74629220191363    -4.48798724300892     9.47414880959024
C   15   6     2.02478325613682    -2.42177285709634     6.44560829588644
C   16   6     3.88048732735477    -3.58795445234514     4.61402886975252
C   17   6    -0.18412382258602    -1.30464291234259     5.76021113872346
C   18   6    -2.10044360464350    -0.26837831858460     7.71610340967100
C   19   6    -3.08956938670431     2.35282328359417     6.88693925039594
C   20   6    -4.37372924086464    -2.09766595989678     7.93610724222001
C   21   6    -0.83850430601230     0.06372213486173    10.33002307638377
H   22   1     0.38411922151109     1.74281358582432    10.27380136542181
H   23   1    -2.30980003007874     0.45460143924521    11.73986301809809
H   24   1     4.58527064644668    -5.38706904487420     5.36778158031719
H   25   1     5.54944938085014    -2.37631462192748     4.35398898413318
H   26   1     3.06633019150423    -3.94118377050688     2.75255466040884
H   27   1    -4.17727778763735     2.26573369139522     5.12914900961283
H   28   1    -1.52662344944051     3.68001877445626     6.59540397144508
H   29   1    -4.32916174397830     3.13643051467482     8.35225460090378
H   30   1    -5.32329548508442    -2.36691813602939     6.11583672749896
H   31   1    -5.77989366602257    -1.33896741843465     9.25748940450990
H   32   1    -3.79310905208926    -3.96389819310853     8.61386170102686
C   33   6    -1.01100794811226    -1.06331657314144     3.11929490449947
C   34   6     0.37686231036534    -0.33275864505552     1.09165013605873
H   35   1    -3.01671213906703    -1.40297922279997     2.77827895090944
C   36   6    -0.64382707979370    -0.11591880174385    -1.42063131251064
H   37   1     2.35569259782137     0.17174499283897     1.33641070251401
H   38   1    -2.63317482980319    -0.60229203511219    -1.66119700387645
C   39   6     5.00345825531076     2.67452304879010   -10.14372233560053
C   40   6     7.74537676211387     2.93885238802377   -10.00575318331397
H   41   1     4.11504514624535     3.10282594680410   -11.94789724846226
O   42   8     9.09456961333047     3.59889471504076   -11.75642359916462
H   43   1     8.57474602054619     2.48152315519597    -8.12342071425648
[GTO]
1 0
 s    6 1.00
             3047.5249  0.0018347001629433
             457.36951    0.01403730124668
             103.94869   0.068842606114048
             29.210155    0.23218442062076
              9.286663    0.46794134155879
              3.163927    0.36231203217765
 s    3 1.00
             7.8682724   -0.11933240861517
             1.8812885   -0.16085421161283
             0.5442493     1.1434564825515
 s    1 1.00
             0.1687144                   1
 p    3 1.00
             7.8682724   0.068999095584993
             1.8812885    0.31642397975315
             0.5442493    0.74430825237435
 p    1 1.00
             0.1687144                   1
 d    1 1.00
                   0.8                   1

2 0
 s    3 1.00
             18.731137    0.03349459952309
             2.8253937    0.23472694665786
             0.6401217    0.81375731841339
 s    1 1.00
             0.1612778                   1

3 0
 s    6 1.00
             3047.5249  0.0018347001629433
             457.36951    0.01403730124668
             103.94869   0.068842606114048
             29.210155    0.23218442062076
              9.286663    0.46794134155879
              3.163927    0.36231203217765
 s    3 1.00
             7.8682724   -0.11933240861517
             1.8812885   -0.16085421161283
             0.5442493     1.1434564825515
 s    1 1.00
             0.1687144                   1
 p    3 1.00
             7.8682724   0.068999095584993
             1.8812885    0.31642397975315
             0.5442493    0.74430825237435
 p    1 1.00
             0.1687144                   1
 d    1 1.00
                   0.8                   1

4 0
 s    3 1.00
             18.731137    0.03349459952309
             2.8253937    0.23472694665786
             0.6401217    0.81375731841339
 s    1 1.00
             0.1612778                   1

5 0
 s    6 1.00
             3047.5249  0.0018347001629433
             457.36951    0.01403730124668
             103.94869   0.068842606114048
             29.210155    0.23218442062076
              9.286663    0.46794134155879
              3.163927    0.36231203217765
 s    3 1.00
             7.8682724   -0.11933240861517
             1.8812885   -0.16085421161283
             0.5442493     1.1434564825515
 s    1 1.00
             0.1687144                   1
 p    3 1.00
             7.8682724   0.068999095584993
             1.8812885    0.31642397975315
             0.5442493    0.74430825237435
 p    1 1.00
             0.1687144                   1
 d    1 1.00
                   0.8                   1

6 0
 s    3 1.00
             18.731137    0.03349459952309
             2.8253937    0.23472694665786
             0.6401217    0.81375731841339
 s    1 1.00
             0.1612778                   1

7 0
 s    6 1.00
             3047.5249  0.0018347001629433
             457.36951    0.01403730124668
             103.94869   0.068842606114048
             29.210155    0.23218442062076
              9.286663    0.46794134155879
              3.163927    0.36231203217765
 s    3 1.00
             7.8682724   -0.11933240861517
             1.8812885   -0.16085421161283
             0.5442493     1.1434564825515
 s    1 1.00
             0.1687144                   1
 p    3 1.00
             7.8682724   0.068999095584993
             1.8812885    0.31642397975315
             0.5442493    0.74430825237435
 p    1 1.00
             0.1687144                   1
 d    1 1.00
                   0.8                   1

8 0
 s    3 1.00
             18.731137    0.03349459952309
             2.8253937    0.23472694665786
             0.6401217    0.81375731841339
 s    1 1.00
             0.1612778                   1

9 0
 s    3 1.00
             18.731137    0.03349459952309
             2.8253937    0.23472694665786
             0.6401217    0.81375731841339
 s    1 1.00
             0.1612778                   1

10 0
 s    6 1.00
             3047.5249  0.0018347001629433
             457.36951    0.01403730124668
             103.94869   0.068842606114048
             29.210155    0.23218442062076
              9.286663    0.46794134155879
              3.163927    0.36231203217765
 s    3 1.00
             7.8682724   -0.11933240861517
             1.8812885   -0.16085421161283
             0.5442493     1.1434564825515
 s    1 1.00
             0.1687144                   1
 p    3 1.00
             7.8682724   0.068999095584993
             1.8812885    0.31642397975315
             0.5442493    0.74430825237435
 p    1 1.00
             0.1687144                   1
 d    1 1.00
                   0.8                   1

11 0
 s    3 1.00
             18.731137    0.03349459952309
             2.8253937    0.23472694665786
             0.6401217    0.81375731841339
 s    1 1.00
             0.1612778                   1

12 0
 s    6 1.00
             3047.5249  0.0018347001629433
             457.36951    0.01403730124668
             103.94869   0.068842606114048
             29.210155    0.23218442062076
              9.286663    0.46794134155879
              3.163927    0.36231203217765
 s    3 1.00
             7.8682724   -0.11933240861517
             1.8812885   -0.16085421161283
             0.5442493     1.1434564825515
 s    1 1.00
             0.1687144                   1
 p    3 1.00
             7.8682724   0.068999095584993
             1.8812885    0.31642397975315
             0.5442493    0.74430825237435
 p    1 1.00
             0.1687144                   1
 d    1 1.00
                   0.8                   1

13 0
 s    3 1.00
             18.731137    0.03349459952309
             2.8253937    0.23472694665786
             0.6401217    0.81375731841339
 s    1 1.00
             0.1612778                   1

14 0
 s    3 1.00
             18.731137    0.03349459952309
             2.8253937    0.23472694665786
             0.6401217    0.81375731841339
 s    1 1.00
             0.1612778                   1

15 0
 s    6 1.00
             3047.5249  0.0018347001629433
             457.36951    0.01403730124668
             103.94869   0.068842606114048
             29.210155    0.23218442062076
              9.286663    0.46794134155879
              3.163927    0.36231203217765
 s    3 1.00
             7.8682724   -0.11933240861517
             1.8812885   -0.16085421161283
             0.5442493     1.1434564825515
 s    1 1.00
             0.1687144                   1
 p    3 1.00
             7.8682724   0.068999095584993
             1.8812885    0.31642397975315
             0.5442493    0.74430825237435
 p    1 1.00
             0.1687144                   1
 d    1 1.00
                   0.8                   1

16 0
 s    6 1.00
             3047.5249  0.0018347001629433
             457.36951    0.01403730124668
             103.94869   0.068842606114048
             29.210155    0.23218442062076
              9.286663    0.46794134155879
              3.163927    0.36231203217765
 s    3 1.00
             7.8682724   -0.11933240861517
             1.8812885   -0.16085421161283
             0.5442493     1.1434564825515
 s    1 1.00
             0.1687144                   1
 p    3 1.00
             7.8682724   0.068999095584993
             1.8812885    0.31642397975315
             0.5442493    0.74430825237435
 p    1 1.00
             0.1687144                   1
 d    1 1.00
                   0.8                   1

17 0
 s    6 1.00
             3047.5249  0.0018347001629433
             457.36951    0.01403730124668
             103.94869   0.068842606114048
             29.210155    0.23218442062076
              9.286663    0.46794134155879
              3.163927    0.36231203217765
 s    3 1.00
             7.8682724   -0.11933240861517
             1.8812885   -0.16085421161283
             0.5442493     1.1434564825515
 s    1 1.00
             0.1687144                   1
 p    3 1.00
             7.8682724   0.068999095584993
             1.8812885    0.31642397975315
             0.5442493    0.74430825237435
 p    1 1.00
             0.1687144                   1
 d    1 1.00
                   0.8                   1

18 0
 s    6 1.00
             3047.5249  0.0018347001629433
             457.36951    0.01403730124668
             103.94869   0.068842606114048
             29.210155    0.23218442062076
              9.286663    0.46794134155879
              3.163927    0.36231203217765
 s    3 1.00
             7.8682724   -0.11933240861517
             1.8812885   -0.16085421161283
             0.5442493     1.1434564825515
 s    1 1.00
             0.1687144                   1
 p    3 1.00
             7.8682724   0.068999095584993
             1.8812885    0.31642397975315
             0.5442493    0.74430825237435
 p    1 1.00
             0.1687144                   1
 d    1 1.00
                   0.8                   1

19 0
 s    6 1.00
             3047.5249  0.0018347001629433
             457.36951    0.01403730124668
             103.94869   0.068842606114048
             29.210155    0.23218442062076
              9.286663    0.46794134155879
              3.163927    0.36231203217765
 s    3 1.00
             7.8682724   -0.11933240861517
             1.8812885   -0.16085421161283
             0.5442493     1.1434564825515
 s    1 1.00
             0.1687144                   1
 p    3 1.00
             7.8682724   0.068999095584993
             1.8812885    0.31642397975315
             0.5442493    0.74430825237435
 p    1 1.00
             0.1687144                   1
 d    1 1.00
                   0.8                   1

20 0
 s    6 1.00
             3047.5249  0.0018347001629433
             457.36951    0.01403730124668
             103.94869   0.068842606114048
             29.210155    0.23218442062076
              9.286663    0.46794134155879
              3.163927    0.36231203217765
 s    3 1.00
             7.8682724   -0.11933240861517
             1.8812885   -0.16085421161283
             0.5442493     1.1434564825515
 s    1 1.00
             0.1687144                   1
 p    3 1.00
             7.8682724   0.068999095584993
             1.8812885    0.31642397975315
             0.5442493    0.74430825237435
 p    1 1.00
             0.1687144                   1
 d    1 1.00
                   0.8                   1

21 0
 s    6 1.00
             3047.5249  0.0018347001629433
             457.36951    0.01403730124668
             103.94869   0.068842606114048
             29.210155    0.23218442062076
              9.286663    0.46794134155879
              3.163927    0.36231203217765
 s    3 1.00
             7.8682724   -0.11933240861517
             1.8812885   -0.16085421161283
             0.5442493     1.1434564825515
 s    1 1.00
             0.1687144                   1
 p    3 1.00
             7.8682724   0.068999095584993
             1.8812885    0.31642397975315
             0.5442493    0.74430825237435
 p    1 1.00
             0.1687144                   1
 d    1 1.00
                   0.8                   1

22 0
 s    3 1.00
             18.731137    0.03349459952309
             2.8253937    0.23472694665786
             0.6401217    0.81375731841339
 s    1 1.00
             0.1612778                   1

23 0
 s    3 1.00
             18.731137    0.03349459952309
             2.8253937    0.23472694665786
             0.6401217    0.81375731841339
 s    1 1.00
             0.1612778                   1

24 0
 s    3 1.00
             18.731137    0.03349459952309
             2.8253937    0.23472694665786
             0.6401217    0.81375731841339
 s    1 1.00
             0.1612778                   1

25 0
 s    3 1.00
             18.731137    0.03349459952309
             2.8253937    0.23472694665786
             0.6401217    0.81375731841339
 s    1 1.00
             0.1612778                   1

26 0
 s    3 1.00
             18.731137    0.03349459952309
             2.8253937    0.23472694665786
             0.6401217    0.81375731841339
 s    1 1.00
             0.1612778                   1

27 0
 s    3 1.00
             18.731137    0.03349459952309
             2.8253937    0.23472694665786
             0.6401217    0.81375731841339
 s    1 1.00
             0.1612778                   1

28 0
 s    3 1.00
             18.731137    0.03349459952309
             2.8253937    0.23472694665786
             0.6401217    0.81375731841339
 s    1 1.00
             0.1612778                   1

29 0
 s    3 1.00
             18.731137    0.03349459952309
             2.8253937    0.23472694665786
             0.6401217    0.81375731841339
 s    1 1.00
             0.1612778                   1

30 0
 s    3 1.00
             18.731137    0.03349459952309
             2.8253937    0.23472694665786
             0.6401217    0.81375731841339
 s    1 1.00
             0.1612778                   1

31 0
 s    3 1.00
             18.731137    0.03349459952309
             2.8253937    0.23472694665786
             0.6401217    0.81375731841339
 s    1 1.00
             0.1612778                   1

32 0
 s    3 1.00
             18.731137    0.03349459952309
             2.8253937    0.23472694665786
             0.6401217    0.81375731841339
 s    1 1.00
             0.1612778                   1

33 0
 s    6 1.00
             3047.5249  0.0018347001629433
             457.36951    0.01403730124668
             103.94869   0.068842606114048
             29.210155    0.23218442062076
              9.286663    0.46794134155879
              3.163927    0.36231203217765
 s    3 1.00
             7.8682724   -0.11933240861517
             1.8812885   -0.16085421161283
             0.5442493     1.1434564825515
 s    1 1.00
             0.1687144                   1
 p    3 1.00
             7.8682724   0.068999095584993
             1.8812885    0.31642397975315
             0.5442493    0.74430825237435
 p    1 1.00
             0.1687144                   1
 d    1 1.00
                   0.8                   1

34 0
 s    6 1.00
             3047.5249  0.0018347001629433
             457.36951    0.01403730124668
             103.94869   0.068842606114048
             29.210155    0.23218442062076
              9.286663    0.46794134155879
              3.163927    0.36231203217765
 s    3 1.00
             7.8682724   -0.11933240861517
             1.8812885   -0.16085421161283
             0.5442493     1.1434564825515
 s    1 1.00
             0.1687144                   1
 p    3 1.00
             7.8682724   0.068999095584993
             1.8812885    0.31642397975315
             0.5442493    0.74430825237435
 p    1 1.00
             0.1687144                   1
 d    1 1.00
                   0.8                   1

35 0
 s    3 1.00
             18.731137    0.03349459952309
             2.8253937    0.23472694665786
             0.6401217    0.81375731841339
 s    1 1.00
             0.1612778                   1

36 0
 s    6 1.00
             3047.5249  0.0018347001629433
             457.36951    0.01403730124668
             103.94869   0.068842606114048
             29.210155    0.23218442062076
              9.286663    0.46794134155879
              3.163927    0.36231203217765
 s    3 1.00
             7.8682724   -0.11933240861517
             1.8812885   -0.16085421161283
             0.5442493     1.1434564825515
 s    1 1.00
             0.1687144                   1
 p    3 1.00
             7.8682724   0.068999095584993
             1.8812885    0.31642397975315
             0.5442493    0.74430825237435
 p    1 1.00
             0.1687144                   1
 d    1 1.00
                   0.8                   1

37 0
 s    3 1.00
             18.731137    0.03349459952309
             2.8253937    0.23472694665786
             0.6401217    0.81375731841339
 s    1 1.00
             0.1612778                   1

38 0
 s    3 1.00
             18.731137    0.03349459952309
             2.8253937    0.23472694665786
             0.6401217    0.81375731841339
 s    1 1.00
             0.1612778                   1

39 0
 s    6 1.00
             3047.5249  0.0018347001629433
             457.36951    0.01403730124668
             103.94869   0.068842606114048
             29.210155    0.23218442062076
              9.286663    0.46794134155879
              3.163927    0.36231203217765
 s    3 1.00
             7.8682724   -0.11933240861517
             1.8812885   -0.16085421161283
             0.5442493     1.1434564825515
 s    1 1.00
             0.1687144                   1
 p    3 1.00
             7.8682724   0.068999095584993
             1.8812885    0.31642397975315
             0.5442493    0.74430825237435
 p    1 1.00
             0.1687144                   1
 d    1 1.00
                   0.8                   1

40 0
 s    6 1.00
             3047.5249  0.0018347001629433
             457.36951    0.01403730124668
             103.94869   0.068842606114048
             29.210155    0.23218442062076
              9.286663    0.46794134155879
              3.163927    0.36231203217765
 s    3 1.00
             7.8682724   -0.11933240861517
             1.8812885   -0.16085421161283
             0.5442493     1.1434564825515
 s    1 1.00
             0.1687144                   1
 p    3 1.00
             7.8682724   0.068999095584993
             1.8812885    0.31642397975315
             0.5442493    0.74430825237435
 p    1 1.00
             0.1687144                   1
 d    1 1.00
                   0.8                   1

41 0
 s    3 1.00
             18.731137    0.03349459952309
             2.8253937    0.23472694665786
             0.6401217    0.81375731841339
 s    1 1.00
             0.1612778                   1

42 0
 s    6 1.00
             5484.6717   0.001831099805527
             825.23495   0.013950098518422
             188.04696    0.06844509273075
               52.9645    0.23271427528445
              16.89757    0.47019295006289
             5.7996353    0.35852086192309
 s    3 1.00
             15.539616   -0.11077750382508
             3.5999336   -0.14802630511126
             1.0137618     1.1307670390447
 s    1 1.00
             0.2700058                   1
 p    3 1.00
             15.539616   0.070874299543311
             3.5999336    0.33975279781076
             1.0137618    0.72715859531445
 p    1 1.00
             0.2700058                   1
 d    1 1.00
                   0.8                   1

43 0
 s    3 1.00
             18.731137    0.03349459952309
             2.8253937    0.23472694665786
             0.6401217    0.81375731841339
 s    1 1.00
             0.1612778                   1

[5d]
[7f]
[9g]

[MO]
 Sym= A
 Ene=               0
 Spin= Alpha
 Occup=    1.00000
   1    -1.4403531345614e-05
   2    -0.00010513460025957
   3    0.0014384806999718
   4    -4.0000135887242e-05
   5    3.817850465243e-06
   6    1.1566320057132e-05
   7    -7.9721059842896e-05
   8    0.00021168927141372
   9    -0.0015972323357277
  10    4.4673500501216e-05
  11    4.8173113002534e-05
  12    1.9139597280167e-06
  13    6.0727069258884e-06
  14    -4.661058299089e-06
  15    -5.2592531208942e-05
  16    5.5680567554543e-05
  17    3.3840183406152e-05
  18    0.00019623938558754
  19    -0.0031067217524107
  20    -1.2677982819195e-05
  21    -1.562364282376e-05
  22    7.7717484651563e-05
  23    -0.0019825937764213
  24    -0.00029414828278667
  25    -0.00062199017931386
  26    -4.7787472360086e-05
  27    2.5561719246111e-05
  28    1.6456324118233e-05
  29    -2.9820056400198e-05
  30    -2.6234468801967e-05
  31    -8.3365807739305e-05
  32    -0.00046045863532208
  33    -6.9271018202994e-05
  34    -0.00043839293429832
  35    0.0059635518253467
  36    9.2054121251922e-05
  37    3.4348764081905e-05
  38    -7.7098133645528e-05
  39    0.0027881348250987
  40    -0.00015084280982071
  41    0.0017823172820863
  42    -1.6797081329555e-05
  43    -3.445399706257e-05
  44    -4.2319214138207e-05
  45    0.00015883925961655
  46    4.172358954217e-05
  47    7.2566208717818e-05
  48    0.00061484714480308
  49    2.1790394358735e-06
  50    -7.8501190417299e-05
  51    -0.0042464162415892
  52    -0.0003661409435987
  53    -3.8837721097694e-05
  54    2.5319740244639e-05
  55    0.0047391600184601
  56    0.00050557011539439
  57    -7.485068556232e-05
  58    0.00021774836111598
  59    -3.9751276112055e-05
  60    -8.9064075159424e-05
  61    -0.00011265379915446
  62    -7.7963635147851e-06
  63    -0.00024214391931707
  64    -0.00030774566610363
  65    -3.8914048912486e-07
  66    1.724415345582e-06
  67    -1.2966774715228e-07
  68    -1.2270026801681e-06
  69    -7.4646039772607e-07
  70    8.291431291674e-07
  71    -1.1706599124448e-06
  72    1.2447369584618e-07
  73    2.9711335500689e-06
  74    2.7044411915335e-06
  75    -1.5361917192623e-06
  76    3.6868968460202e-07
  77    2.0117349880731e-07
  78    9.9375405279489e-08
  79    1.8241426481766e-07
  80    1.9466615067987e-07
  81    3.317800627518e-07
  82    1.8896329374745e-06
  83    3.2050484561905e-07
  84    2.765651078393e-06
  85    -4.6731214303819e-07
  86    -1.2657378122764e-07
  87    8.5891516813904e-07
  88    2.1813379362734e-07
  89    3.6046819689518e-06
  90    -1.2586319500983e-05
  91    -3.7607068389913e-06
  92    -1.4048036393916e-07
  93    -3.1972181128763e-07
  94    9.1831016449081e-07
  95    -4.9207246374399e-07
  96    5.860975431729e-08
  97    1.5756509707179e-06
  98    2.2760547434226e-06
  99    -1.1045906250951e-06
 100    -3.0723619920816e-06
 101    -7.4758118254123e-07
 102    -3.7716831881222e-06
 103    9.2827907106286e-05
 104    -2.1616616732083e-06
 105    -1.7808315176461e-07
 106    -1.3792809047697e-06
 107    -2.574114268781e-05
 108    3.162754617468e-05
 109    -3.3544720045904e-05
 110    6.1553209951546e-07
 111    1.644863687222e-06
 112    -7.0570243930805e-07
 113    -1.9372128344908e-07
 114    -1.4159771356605e-06
 115    3.0146176464477e-07
 116    2.6699461974504e-06
 117    -1.2715074819653e-05
 118    6.8193366738649e-08
 119    1.7801563031914e-06
 120    -1.4524441672069e-06
 121    8.6645282139674e-06
 122    -1.7919564925618e-05
 123    6.7749602193083e-06
 124    7.8048770305061e-07
 125    -2.5949894643389e-07
 126    -1.2400900311777e-06
 127    -4.6992771363901e-07
 128    8.4253091460009e-08
 129    9.4249444028829e-07
 130    4.459216846258e-06
 131    -1.2775541934305e-05
 132    5.2962915973184e-06
 133    -7.4858522381622e-07
 134    -2.4740472216054e-06
 135    -0.00011595123314701
 136    1.6049312744014e-05
 137    4.0213108738918e-05
 138    -1.6375782195766e-06
 139    1.5511819301938e-07
 140    3.1160146491149e-06
 141    -1.4138344695498e-07
 142    2.8509024559147e-06
 143    4.5113268164143e-07
 144    1.8952428676322e-06
 145    -6.71907379062e-05
 146    6.8802649229332e-07
 147    -2.3374668803607e-07
 148    5.7996160245666e-06
 149    -3.2778519305372e-05
 150    4.1800694528606e-05
 151    -2.4195679940971e-05
 152    -5.6884656692304e-07
 153    4.8514090179244e-08
 154    -2.2298137573939e-06
 155    -6.0518518636353e-07
 156    -3.4968538229381e-07
 157    8.1261590794901e-07
 158    7.1662091133466e-06
 159    -3.8142754658778e-05
 160    9.8312902193308e-07
 161    5.3549209198431e-07
 162    -1.2207375822997e-06
 163    -9.5310972006737e-06
 164    1.533600000346e-05
 165    4.9347921218156e-06
 166    9.1310633494756e-07
 167    -1.0955845480604e-07
 168    1.2390745502471e-08
 169    9.1422745679155e-07
 170    3.9863772491911e-07
 171    -1.21794768261e-08
 172    -7.6424677150626e-07
 173    4.2023876490004e-07
 174    -1.3136891364489e-06
 175    -1.7031927753411e-07
 176    2.4199535670711e-06
 177    1.8843842910091e-05
 178    4.8971763532507e-07
 179    4.2413992684447e-06
 180    -2.3711664814306e-07
 181    1.7773147330747e-06
 182    -1.7117230885192e-07
 183    1.1671421556027e-06
 184    1.3478559636402e-06
 185    -7.6267039005103e-07
 186    -5.8735304038621e-06
 187    4.0727114813163e-05
 188    -1.4078385699467e-06
 189    -3.7013842714023e-07
 190    -1.2337235906864e-06
 191    -3.8200616745249e-06
 192    -9.8593637246313e-06
 193    -1.827370500161e-05
 194    8.8271408053156e-07
 195    1.1079348551829e-06
 196     1.44931066192e-06
 197    -6.7188153069164e-07
 198    6.1692271696559e-07
 199    -2.0519245508373e-06
 200    1.3283045917734e-06
 201    -6.5314404049806e-07
 202    -2.8217972667713e-07
 203    -1.4263314468328e-06
 204    -7.6600512577046e-06
 205    3.0161019681946e-06
 206    1.8696990469914e-07
 207    2.9768725145653e-06
 208    1.4467883265305e-07
 209    2.9450701432286e-06
 210    3.0637322991148e-06
 211    1.9820444652335e-06
 212    3.9478687920219e-06
 213    7.8107083445917e-07
 214    -5.112165274409e-06
 215    -4.3236508447483e-06
 216    2.2951500413747e-05
 217    1.4516937951618e-06
 218    3.8074214942738e-06
 219    2.5894303130953e-07
 220    -4.5547122245766e-06
 221    -5.5104137649362e-06
 222    -3.6287616244227e-05
 223    0.00046525231075644
 224    4.8947875916348e-06
 225    3.6752995303854e-06
 226    -5.6255105619875e-06
 227    0.00012471549627135
 228    6.5664520961495e-05
 229    -0.0002578403627511
 230    9.0903704623274e-06
 231    -9.2351833609657e-06
 232    -8.63561584048e-06
 233    4.1441211014093e-06
 234    4.061677576663e-06
 235    5.7212851056492e-06
 236    2.7445872175338e-05
 237    -0.00078509088289586
 238    -9.657832464927e-06
 239    -8.9442987182877e-06
 240    2.698402410799e-05
 241    0.00030094328889307
 242    8.5839940469487e-05
 243    -5.5311434477078e-05
 244    -1.5204720248967e-05
 245    8.9367325962006e-06
 246    8.7270833257823e-06
 247    1.0587564724356e-07
 248    -7.2424847845249e-07
 249    -5.2784754006315e-06
 250    -1.926337153566e-05
 251    -5.0400128352984e-06
 252    -3.1837931825087e-05
 253    0.00077698734099704
 254    -1.452326952509e-05
 255    -1.3618034683959e-06
 256    -2.8657660524108e-05
 257    0.00046977390347302
 258    0.00010773162740544
 259    0.00025570631644572
 260    7.2160138352129e-06
 261    -1.7044370946112e-06
 262    -7.2660452922704e-06
 263    4.5802401376266e-06
 264    8.4864680190202e-06
 265    -2.094024662174e-05
 266    -1.0831033461547e-05
 267    2.7740236097494e-05
 268    0.00014649169806542
 269    5.4377282626704e-05
 270    0.00014923088385386
 271    -0.0034552288242578
 272    -0.00011737330599824
 273    2.0243658418981e-05
 274    -0.000118910686769
 275    -0.0027147375994989
 276    -0.0010258684264836
 277    0.0025406322190085
 278    0.00015609215910758
 279    0.00031967505922266
 280    3.8571063978139e-06