[Molden Format]
made by pyscf v[2.0.1]
[Atoms] (AU)
C   1   6     0.69100024066471     0.64692934207205    -3.48223131169301
H   2   1     2.68052439830868     1.13355088658700    -3.25784032593313
C   3   6    -0.36286361513219     0.85440132524594    -5.97030179418974
H   4   1    -2.35448549047279     0.36322488579172    -6.17995817793143
C   5   6     0.93697958957450     1.61209284601821    -8.05828437677121
H   6   1    -0.06960811584452     2.58702669474359    -9.56733307637730
C   7   6     3.59571274713804     1.19684402678434    -8.39738626626495
H   8   1     4.57899779978681     0.21871567749258    -6.86894337963000
H   9   1     1.55630230933075    -1.92953025305990    12.99630010416247
C   10   6     0.75233899775814    -2.21270439606481    11.10705728102219
H   11   1    -0.43433408177274    -3.90944857546550    11.22216085340412
C   12   6     2.86362581178706    -2.63237380607947     9.17926416456045
H   13   1     4.39038949912609    -1.24955421540245     9.49899813497433
H   14   1     3.74629220191363    -4.48798724300892     9.47414880959024
C   15   6     2.02478325613682    -2.42177285709634     6.44560829588644
C   16   6     3.88048732735477    -3.58795445234514     4.61402886975252
C   17   6    -0.18412382258602    -1.30464291234259     5.76021113872346
C   18   6    -2.10044360464350    -0.26837831858460     7.71610340967100
C   19   6    -3.08956938670431     2.35282328359417     6.88693925039594
C   20   6    -4.37372924086464    -2.09766595989678     7.93610724222001
C   21   6    -0.83850430601230     0.06372213486173    10.33002307638377
H   22   1     0.38411922151109     1.74281358582432    10.27380136542181
H   23   1    -2.30980003007874     0.45460143924521    11.73986301809809
H   24   1     4.58527064644668    -5.38706904487420     5.36778158031719
H   25   1     5.54944938085014    -2.37631462192748     4.35398898413318
H   26   1     3.06633019150423    -3.94118377050688     2.75255466040884
H   27   1    -4.17727778763735     2.26573369139522     5.12914900961283
H   28   1    -1.52662344944051     3.68001877445626     6.59540397144508
H   29   1    -4.32916174397830     3.13643051467482     8.35225460090378
H   30   1    -5.32329548508442    -2.36691813602939     6.11583672749896
H   31   1    -5.77989366602257    -1.33896741843465     9.25748940450990
H   32   1    -3.79310905208926    -3.96389819310853     8.61386170102686
C   33   6    -1.01100794811226    -1.06331657314144     3.11929490449947
C   34   6     0.37686231036534    -0.33275864505552     1.09165013605873
H   35   1    -3.01671213906703    -1.40297922279997     2.77827895090944
C   36   6    -0.64382707979370    -0.11591880174385    -1.42063131251064
H   37   1     2.35569259782137     0.17174499283897     1.33641070251401
H   38   1    -2.63317482980319    -0.60229203511219    -1.66119700387645
C   39   6     4.96665860975130     1.91437223239220   -10.44247655051683
C   40   6     7.67160233174465     1.40206885234173   -10.60935163126053
H   41   1     4.10375913642339     2.89528826049847   -12.03023490303406
O   42   8     9.01623610133373     1.99111078946158   -12.38862500825095
H   43   1     8.47573431044455     0.39495244048141    -8.94223819440966
[GTO]
1 0
 s    6 1.00
             3047.5249  0.0018347001629433
             457.36951    0.01403730124668
             103.94869   0.068842606114048
             29.210155    0.23218442062076
              9.286663    0.46794134155879
              3.163927    0.36231203217765
 s    3 1.00
             7.8682724   -0.11933240861517
             1.8812885   -0.16085421161283
             0.5442493     1.1434564825515
 s    1 1.00
             0.1687144                   1
 p    3 1.00
             7.8682724   0.068999095584993
             1.8812885    0.31642397975315
             0.5442493    0.74430825237435
 p    1 1.00
             0.1687144                   1
 d    1 1.00
                   0.8                   1

2 0
 s    3 1.00
             18.731137    0.03349459952309
             2.8253937    0.23472694665786
             0.6401217    0.81375731841339
 s    1 1.00
             0.1612778                   1

3 0
 s    6 1.00
             3047.5249  0.0018347001629433
             457.36951    0.01403730124668
             103.94869   0.068842606114048
             29.210155    0.23218442062076
              9.286663    0.46794134155879
              3.163927    0.36231203217765
 s    3 1.00
             7.8682724   -0.11933240861517
             1.8812885   -0.16085421161283
             0.5442493     1.1434564825515
 s    1 1.00
             0.1687144                   1
 p    3 1.00
             7.8682724   0.068999095584993
             1.8812885    0.31642397975315
             0.5442493    0.74430825237435
 p    1 1.00
             0.1687144                   1
 d    1 1.00
                   0.8                   1

4 0
 s    3 1.00
             18.731137    0.03349459952309
             2.8253937    0.23472694665786
             0.6401217    0.81375731841339
 s    1 1.00
             0.1612778                   1

5 0
 s    6 1.00
             3047.5249  0.0018347001629433
             457.36951    0.01403730124668
             103.94869   0.068842606114048
             29.210155    0.23218442062076
              9.286663    0.46794134155879
              3.163927    0.36231203217765
 s    3 1.00
             7.8682724   -0.11933240861517
             1.8812885   -0.16085421161283
             0.5442493     1.1434564825515
 s    1 1.00
             0.1687144                   1
 p    3 1.00
             7.8682724   0.068999095584993
             1.8812885    0.31642397975315
             0.5442493    0.74430825237435
 p    1 1.00
             0.1687144                   1
 d    1 1.00
                   0.8                   1

6 0
 s    3 1.00
             18.731137    0.03349459952309
             2.8253937    0.23472694665786
             0.6401217    0.81375731841339
 s    1 1.00
             0.1612778                   1

7 0
 s    6 1.00
             3047.5249  0.0018347001629433
             457.36951    0.01403730124668
             103.94869   0.068842606114048
             29.210155    0.23218442062076
              9.286663    0.46794134155879
              3.163927    0.36231203217765
 s    3 1.00
             7.8682724   -0.11933240861517
             1.8812885   -0.16085421161283
             0.5442493     1.1434564825515
 s    1 1.00
             0.1687144                   1
 p    3 1.00
             7.8682724   0.068999095584993
             1.8812885    0.31642397975315
             0.5442493    0.74430825237435
 p    1 1.00
             0.1687144                   1
 d    1 1.00
                   0.8                   1

8 0
 s    3 1.00
             18.731137    0.03349459952309
             2.8253937    0.23472694665786
             0.6401217    0.81375731841339
 s    1 1.00
             0.1612778                   1

9 0
 s    3 1.00
             18.731137    0.03349459952309
             2.8253937    0.23472694665786
             0.6401217    0.81375731841339
 s    1 1.00
             0.1612778                   1

10 0
 s    6 1.00
             3047.5249  0.0018347001629433
             457.36951    0.01403730124668
             103.94869   0.068842606114048
             29.210155    0.23218442062076
              9.286663    0.46794134155879
              3.163927    0.36231203217765
 s    3 1.00
             7.8682724   -0.11933240861517
             1.8812885   -0.16085421161283
             0.5442493     1.1434564825515
 s    1 1.00
             0.1687144                   1
 p    3 1.00
             7.8682724   0.068999095584993
             1.8812885    0.31642397975315
             0.5442493    0.74430825237435
 p    1 1.00
             0.1687144                   1
 d    1 1.00
                   0.8                   1

11 0
 s    3 1.00
             18.731137    0.03349459952309
             2.8253937    0.23472694665786
             0.6401217    0.81375731841339
 s    1 1.00
             0.1612778                   1

12 0
 s    6 1.00
             3047.5249  0.0018347001629433
             457.36951    0.01403730124668
             103.94869   0.068842606114048
             29.210155    0.23218442062076
              9.286663    0.46794134155879
              3.163927    0.36231203217765
 s    3 1.00
             7.8682724   -0.11933240861517
             1.8812885   -0.16085421161283
             0.5442493     1.1434564825515
 s    1 1.00
             0.1687144                   1
 p    3 1.00
             7.8682724   0.068999095584993
             1.8812885    0.31642397975315
             0.5442493    0.74430825237435
 p    1 1.00
             0.1687144                   1
 d    1 1.00
                   0.8                   1

13 0
 s    3 1.00
             18.731137    0.03349459952309
             2.8253937    0.23472694665786
             0.6401217    0.81375731841339
 s    1 1.00
             0.1612778                   1

14 0
 s    3 1.00
             18.731137    0.03349459952309
             2.8253937    0.23472694665786
             0.6401217    0.81375731841339
 s    1 1.00
             0.1612778                   1

15 0
 s    6 1.00
             3047.5249  0.0018347001629433
             457.36951    0.01403730124668
             103.94869   0.068842606114048
             29.210155    0.23218442062076
              9.286663    0.46794134155879
              3.163927    0.36231203217765
 s    3 1.00
             7.8682724   -0.11933240861517
             1.8812885   -0.16085421161283
             0.5442493     1.1434564825515
 s    1 1.00
             0.1687144                   1
 p    3 1.00
             7.8682724   0.068999095584993
             1.8812885    0.31642397975315
             0.5442493    0.74430825237435
 p    1 1.00
             0.1687144                   1
 d    1 1.00
                   0.8                   1

16 0
 s    6 1.00
             3047.5249  0.0018347001629433
             457.36951    0.01403730124668
             103.94869   0.068842606114048
             29.210155    0.23218442062076
              9.286663    0.46794134155879
              3.163927    0.36231203217765
 s    3 1.00
             7.8682724   -0.11933240861517
             1.8812885   -0.16085421161283
             0.5442493     1.1434564825515
 s    1 1.00
             0.1687144                   1
 p    3 1.00
             7.8682724   0.068999095584993
             1.8812885    0.31642397975315
             0.5442493    0.74430825237435
 p    1 1.00
             0.1687144                   1
 d    1 1.00
                   0.8                   1

17 0
 s    6 1.00
             3047.5249  0.0018347001629433
             457.36951    0.01403730124668
             103.94869   0.068842606114048
             29.210155    0.23218442062076
              9.286663    0.46794134155879
              3.163927    0.36231203217765
 s    3 1.00
             7.8682724   -0.11933240861517
             1.8812885   -0.16085421161283
             0.5442493     1.1434564825515
 s    1 1.00
             0.1687144                   1
 p    3 1.00
             7.8682724   0.068999095584993
             1.8812885    0.31642397975315
             0.5442493    0.74430825237435
 p    1 1.00
             0.1687144                   1
 d    1 1.00
                   0.8                   1

18 0
 s    6 1.00
             3047.5249  0.0018347001629433
             457.36951    0.01403730124668
             103.94869   0.068842606114048
             29.210155    0.23218442062076
              9.286663    0.46794134155879
              3.163927    0.36231203217765
 s    3 1.00
             7.8682724   -0.11933240861517
             1.8812885   -0.16085421161283
             0.5442493     1.1434564825515
 s    1 1.00
             0.1687144                   1
 p    3 1.00
             7.8682724   0.068999095584993
             1.8812885    0.31642397975315
             0.5442493    0.74430825237435
 p    1 1.00
             0.1687144                   1
 d    1 1.00
                   0.8                   1

19 0
 s    6 1.00
             3047.5249  0.0018347001629433
             457.36951    0.01403730124668
             103.94869   0.068842606114048
             29.210155    0.23218442062076
              9.286663    0.46794134155879
              3.163927    0.36231203217765
 s    3 1.00
             7.8682724   -0.11933240861517
             1.8812885   -0.16085421161283
             0.5442493     1.1434564825515
 s    1 1.00
             0.1687144                   1
 p    3 1.00
             7.8682724   0.068999095584993
             1.8812885    0.31642397975315
             0.5442493    0.74430825237435
 p    1 1.00
             0.1687144                   1
 d    1 1.00
                   0.8                   1

20 0
 s    6 1.00
             3047.5249  0.0018347001629433
             457.36951    0.01403730124668
             103.94869   0.068842606114048
             29.210155    0.23218442062076
              9.286663    0.46794134155879
              3.163927    0.36231203217765
 s    3 1.00
             7.8682724   -0.11933240861517
             1.8812885   -0.16085421161283
             0.5442493     1.1434564825515
 s    1 1.00
             0.1687144                   1
 p    3 1.00
             7.8682724   0.068999095584993
             1.8812885    0.31642397975315
             0.5442493    0.74430825237435
 p    1 1.00
             0.1687144                   1
 d    1 1.00
                   0.8                   1

21 0
 s    6 1.00
             3047.5249  0.0018347001629433
             457.36951    0.01403730124668
             103.94869   0.068842606114048
             29.210155    0.23218442062076
              9.286663    0.46794134155879
              3.163927    0.36231203217765
 s    3 1.00
             7.8682724   -0.11933240861517
             1.8812885   -0.16085421161283
             0.5442493     1.1434564825515
 s    1 1.00
             0.1687144                   1
 p    3 1.00
             7.8682724   0.068999095584993
             1.8812885    0.31642397975315
             0.5442493    0.74430825237435
 p    1 1.00
             0.1687144                   1
 d    1 1.00
                   0.8                   1

22 0
 s    3 1.00
             18.731137    0.03349459952309
             2.8253937    0.23472694665786
             0.6401217    0.81375731841339
 s    1 1.00
             0.1612778                   1

23 0
 s    3 1.00
             18.731137    0.03349459952309
             2.8253937    0.23472694665786
             0.6401217    0.81375731841339
 s    1 1.00
             0.1612778                   1

24 0
 s    3 1.00
             18.731137    0.03349459952309
             2.8253937    0.23472694665786
             0.6401217    0.81375731841339
 s    1 1.00
             0.1612778                   1

25 0
 s    3 1.00
             18.731137    0.03349459952309
             2.8253937    0.23472694665786
             0.6401217    0.81375731841339
 s    1 1.00
             0.1612778                   1

26 0
 s    3 1.00
             18.731137    0.03349459952309
             2.8253937    0.23472694665786
             0.6401217    0.81375731841339
 s    1 1.00
             0.1612778                   1

27 0
 s    3 1.00
             18.731137    0.03349459952309
             2.8253937    0.23472694665786
             0.6401217    0.81375731841339
 s    1 1.00
             0.1612778                   1

28 0
 s    3 1.00
             18.731137    0.03349459952309
             2.8253937    0.23472694665786
             0.6401217    0.81375731841339
 s    1 1.00
             0.1612778                   1

29 0
 s    3 1.00
             18.731137    0.03349459952309
             2.8253937    0.23472694665786
             0.6401217    0.81375731841339
 s    1 1.00
             0.1612778                   1

30 0
 s    3 1.00
             18.731137    0.03349459952309
             2.8253937    0.23472694665786
             0.6401217    0.81375731841339
 s    1 1.00
             0.1612778                   1

31 0
 s    3 1.00
             18.731137    0.03349459952309
             2.8253937    0.23472694665786
             0.6401217    0.81375731841339
 s    1 1.00
             0.1612778                   1

32 0
 s    3 1.00
             18.731137    0.03349459952309
             2.8253937    0.23472694665786
             0.6401217    0.81375731841339
 s    1 1.00
             0.1612778                   1

33 0
 s    6 1.00
             3047.5249  0.0018347001629433
             457.36951    0.01403730124668
             103.94869   0.068842606114048
             29.210155    0.23218442062076
              9.286663    0.46794134155879
              3.163927    0.36231203217765
 s    3 1.00
             7.8682724   -0.11933240861517
             1.8812885   -0.16085421161283
             0.5442493     1.1434564825515
 s    1 1.00
             0.1687144                   1
 p    3 1.00
             7.8682724   0.068999095584993
             1.8812885    0.31642397975315
             0.5442493    0.74430825237435
 p    1 1.00
             0.1687144                   1
 d    1 1.00
                   0.8                   1

34 0
 s    6 1.00
             3047.5249  0.0018347001629433
             457.36951    0.01403730124668
             103.94869   0.068842606114048
             29.210155    0.23218442062076
              9.286663    0.46794134155879
              3.163927    0.36231203217765
 s    3 1.00
             7.8682724   -0.11933240861517
             1.8812885   -0.16085421161283
             0.5442493     1.1434564825515
 s    1 1.00
             0.1687144                   1
 p    3 1.00
             7.8682724   0.068999095584993
             1.8812885    0.31642397975315
             0.5442493    0.74430825237435
 p    1 1.00
             0.1687144                   1
 d    1 1.00
                   0.8                   1

35 0
 s    3 1.00
             18.731137    0.03349459952309
             2.8253937    0.23472694665786
             0.6401217    0.81375731841339
 s    1 1.00
             0.1612778                   1

36 0
 s    6 1.00
             3047.5249  0.0018347001629433
             457.36951    0.01403730124668
             103.94869   0.068842606114048
             29.210155    0.23218442062076
              9.286663    0.46794134155879
              3.163927    0.36231203217765
 s    3 1.00
             7.8682724   -0.11933240861517
             1.8812885   -0.16085421161283
             0.5442493     1.1434564825515
 s    1 1.00
             0.1687144                   1
 p    3 1.00
             7.8682724   0.068999095584993
             1.8812885    0.31642397975315
             0.5442493    0.74430825237435
 p    1 1.00
             0.1687144                   1
 d    1 1.00
                   0.8                   1

37 0
 s    3 1.00
             18.731137    0.03349459952309
             2.8253937    0.23472694665786
             0.6401217    0.81375731841339
 s    1 1.00
             0.1612778                   1

38 0
 s    3 1.00
             18.731137    0.03349459952309
             2.8253937    0.23472694665786
             0.6401217    0.81375731841339
 s    1 1.00
             0.1612778                   1

39 0
 s    6 1.00
             3047.5249  0.0018347001629433
             457.36951    0.01403730124668
             103.94869   0.068842606114048
             29.210155    0.23218442062076
              9.286663    0.46794134155879
              3.163927    0.36231203217765
 s    3 1.00
             7.8682724   -0.11933240861517
             1.8812885   -0.16085421161283
             0.5442493     1.1434564825515
 s    1 1.00
             0.1687144                   1
 p    3 1.00
             7.8682724   0.068999095584993
             1.8812885    0.31642397975315
             0.5442493    0.74430825237435
 p    1 1.00
             0.1687144                   1
 d    1 1.00
                   0.8                   1

40 0
 s    6 1.00
             3047.5249  0.0018347001629433
             457.36951    0.01403730124668
             103.94869   0.068842606114048
             29.210155    0.23218442062076
              9.286663    0.46794134155879
              3.163927    0.36231203217765
 s    3 1.00
             7.8682724   -0.11933240861517
             1.8812885   -0.16085421161283
             0.5442493     1.1434564825515
 s    1 1.00
             0.1687144                   1
 p    3 1.00
             7.8682724   0.068999095584993
             1.8812885    0.31642397975315
             0.5442493    0.74430825237435
 p    1 1.00
             0.1687144                   1
 d    1 1.00
                   0.8                   1

41 0
 s    3 1.00
             18.731137    0.03349459952309
             2.8253937    0.23472694665786
             0.6401217    0.81375731841339
 s    1 1.00
             0.1612778                   1

42 0
 s    6 1.00
             5484.6717   0.001831099805527
             825.23495   0.013950098518422
             188.04696    0.06844509273075
               52.9645    0.23271427528445
              16.89757    0.47019295006289
             5.7996353    0.35852086192309
 s    3 1.00
             15.539616   -0.11077750382508
             3.5999336   -0.14802630511126
             1.0137618     1.1307670390447
 s    1 1.00
             0.2700058                   1
 p    3 1.00
             15.539616   0.070874299543311
             3.5999336    0.33975279781076
             1.0137618    0.72715859531445
 p    1 1.00
             0.2700058                   1
 d    1 1.00
                   0.8                   1

43 0
 s    3 1.00
             18.731137    0.03349459952309
             2.8253937    0.23472694665786
             0.6401217    0.81375731841339
 s    1 1.00
             0.1612778                   1

[5d]
[7f]
[9g]

[MO]
 Sym= A
 Ene=               0
 Spin= Alpha
 Occup=    1.00000
   1    1.0239323947868e-05
   2    7.9629030135463e-05
   3    -0.0010563127914343
   4    3.1816544489554e-05
   5    -2.2149551749624e-05
   6    -5.5348307269784e-06
   7    4.730632993082e-05
   8    1.387674230982e-06
   9    0.00085329312699261
  10    -3.0384662232441e-05
  11    -2.584776741012e-05
  12    -6.1828889890249e-06
  13    -1.0746580528935e-06
  14    -1.2103657610124e-06
  15    2.6044541844386e-05
  16    2.7058279638213e-05
  17    -1.968748614388e-05
  18    -8.3454389601214e-05
  19    0.0020646864860943
  20    2.7996023427698e-05
  21    1.2583326667999e-05
  22    -6.7775309637366e-05
  23    0.0013242766188859
  24    5.0544352449755e-05
  25    0.00025031922829557
  26    3.9046435792676e-05
  27    -2.6914388124594e-05
  28    7.2241185961874e-06
  29    2.7014796939006e-05
  30    2.6620642928423e-05
  31    4.7729097830847e-05
  32    0.00028291975227552
  33    5.8413759010606e-05
  34    0.00036509249965795
  35    -0.005069044001265
  36    -0.00010763099009283
  37    -1.9835085563816e-05
  38    8.2883298570333e-05
  39    -0.0022698270995798
  40    0.00090722746181218
  41    -0.0010384335568124
  42    2.3258420403704e-05
  43    6.082712085916e-05
  44    3.5792314753014e-05
  45    -0.000132925033333
  46    4.3185051974059e-05
  47    -4.5571783558876e-05
  48    -0.00044485595265978
  49    9.3890654897968e-07
  50    9.6265840390022e-05
  51    0.0039214494580127
  52    0.00035422639090422
  53    -6.2292228699758e-05
  54    -5.7396819973264e-05
  55    -0.0040964179126608
  56    0.00078519741259987
  57    0.00036192046636927
  58    -0.00017759475092485
  59    1.5588494999111e-05
  60    0.0001213700506252
  61    0.00010424565393647
  62    -4.7847093669991e-05
  63    0.0002669923482725
  64    0.0001936383049657
  65    2.5357981156067e-07
  66    -1.0357156320957e-06
  67    6.1213548224954e-08
  68    4.8885779682315e-07
  69    1.2815802838957e-06
  70    -4.8131153425996e-07
  71    6.6100594123074e-07
  72    7.0007626024848e-08
  73    -1.9275446956421e-06
  74    -1.412401556618e-06
  75    4.4365920881366e-07
  76    -2.5764192942325e-07
  77    -1.7658882614131e-07
  78    -6.2283607135104e-08
  79    -1.154417519945e-07
  80    -1.8447810917889e-07
  81    -1.8747832406033e-07
  82    -1.3140929998946e-06
  83    -2.1108213009209e-07
  84    -2.0789077311093e-06
  85    -7.718862385878e-06
  86    4.6296760533497e-07
  87    -7.0958398291215e-07
  88    2.8638697889459e-07
  89    -1.1793145908617e-06
  90    7.1805670955029e-06
  91    5.131710946493e-06
  92    1.4372852054534e-07
  93    1.2417641080273e-07
  94    -4.4924185015906e-07
  95    3.8805496752563e-07
  96    -1.2612977058218e-07
  97    -7.5720138270197e-07
  98    -1.493342794972e-06
  99    8.6622000188686e-07
 100    1.9603084569374e-06
 101    5.615496811478e-07
 102    2.9037638352542e-06
 103    -6.5073687876596e-05
 104    1.7898461380582e-06
 105    -2.6503926062573e-07
 106    4.1598638350628e-07
 107    1.1628178436228e-05
 108    -1.383975192476e-05
 109    4.2094120135921e-05
 110    -5.9918729275775e-07
 111    -1.4072460369216e-06
 112    5.9258269814521e-07
 113    -6.1205036063698e-08
 114    7.2367443995408e-07
 115    -3.6117454666381e-07
 116    -3.0470738389828e-06
 117    2.2557053634895e-05
 118    -2.8910297525951e-07
 119    -9.411942911418e-07
 120    1.4227201636134e-06
 121    -1.1414389663519e-05
 122    1.4366261222144e-05
 123    -1.6333426635651e-06
 124    -6.3166265165042e-07
 125    -5.8243853155152e-08
 126    9.1236728392164e-07
 127    5.5389513035911e-07
 128    -2.8041392748942e-07
 129    -1.0578077994602e-06
 130    -6.112571414311e-06
 131    4.6806606125088e-05
 132    -3.4069769127431e-06
 133    1.340328967126e-06
 134    2.4367454752744e-06
 135    7.2073549860462e-05
 136    -1.8108292672142e-05
 137    -7.284017393806e-05
 138    2.3166793504015e-06
 139    7.8244204367076e-07
 140    -1.9842999356774e-06
 141    2.7846496919604e-07
 142    -2.0620145050517e-06
 143    -6.6373308137934e-07
 144    -4.469566020212e-06
 145    6.3218897721826e-05
 146    -5.4737899953588e-07
 147    -1.6721273222653e-07
 148    -3.556125142637e-06
 149    3.143965359121e-05
 150    -2.647359259115e-05
 151    1.0805612402769e-05
 152    1.0479453610999e-07
 153    -2.5926228114343e-07
 154    1.3263982262831e-06
 155    6.8785202310798e-07
 156    -3.2711952291521e-07
 157    -4.4186853766795e-07
 158    -4.0401848017047e-06
 159    2.1345140791876e-05
 160    -4.9352202566759e-07
 161    -1.7791856626662e-07
 162    4.9064596596734e-07
 163    2.163177137737e-06
 164    -8.4897366284991e-06
 165    -2.7200573357457e-06
 166    -2.5049498160895e-07
 167    -2.1915555883465e-07
 168    5.1856374264689e-08
 169    -6.155357584916e-07
 170    -3.3239789203956e-09
 171    1.4684865185611e-08
 172    4.3624445191838e-07
 173    1.0561917695285e-08
 174    6.6454655492947e-07
 175    -2.8337450551925e-08
 176    -1.3761517697974e-06
 177    -1.139162530172e-05
 178    1.4927236900714e-06
 179    -2.1379855756729e-06
 180    1.3609083525576e-07
 181    -1.0840709101768e-06
 182     2.09932388856e-07
 183    -8.8633517265464e-07
 184    -7.4343269241602e-07
 185    3.9915764810325e-07
 186    2.6932753332745e-06
 187    -2.7407434017582e-05
 188    8.6232348996648e-07
 189     2.88972841048e-07
 190    1.4221443726849e-06
 191    3.1639773380348e-06
 192    5.9874302479649e-06
 193    1.0988549450085e-05
 194    -6.0638320806489e-07
 195    -7.5145716051025e-07
 196    -7.1004896762058e-07
 197    5.3433015937235e-07
 198    -4.5450501752961e-07
 199    1.1661676075826e-06
 200    -9.7556946747798e-07
 201    4.3544907644378e-07
 202    1.5020614459418e-06
 203    5.5870910991034e-07
 204    5.2649523268862e-06
 205    -2.2673134346311e-06
 206    3.4345096640924e-08
 207    -2.5839461770262e-06
 208    -9.1140246027544e-08
 209    -1.2464718456913e-06
 210    -4.057220979457e-06
 211    -8.5535019659587e-07
 212    -1.0951456913908e-06
 213    -6.4005236720952e-07
 214    2.4137809789042e-06
 215    2.5016697970395e-06
 216    -1.2612734010336e-05
 217    -9.0389745342276e-07
 218    -2.4145789784996e-06
 219    7.0587212500851e-08
 220    3.3680410178311e-06
 221    3.3748789189813e-06
 222    2.1315696267611e-05
 223    -0.00032127352124149
 224    -1.4573068009394e-06
 225    -4.1993174529318e-06
 226    5.6877143643864e-06
 227    -9.8822822597989e-05
 228    -2.9224370854845e-05
 229    0.00011251567116888
 230    -6.2267773963645e-06
 231    3.9426515013553e-06
 232    5.1105948774201e-06
 233    -2.0838219923163e-06
 234    -1.8099757067161e-06
 235    -3.5100881205345e-06
 236    -1.8467846251331e-05
 237    0.00046898474293242
 238    5.494086270605e-06
 239    7.2352141842169e-06
 240    -1.5244346301887e-05
 241    -0.0001902020036117
 242    -5.626553689991e-05
 243    4.8659776923576e-05
 244    8.0695259592602e-06
 245    -4.0215590109362e-06
 246    -6.2814608073079e-06
 247    1.0967511333032e-06
 248    -3.7616734851415e-07
 249    -9.3281977759445e-09
 250    7.3583607329439e-06
 251    7.2964301239979e-07
 252    1.7285009378553e-06
 253    -0.00028966854614396
 254    7.474454917159e-06
 255    2.3221726637267e-06
 256    1.9677628577264e-05
 257    -0.00019178978006893
 258    -5.7347340431378e-05
 259    -0.00025211447094751
 260    -1.1790242428402e-06
 261    -5.3556166818551e-06
 262    4.2445359130458e-06
 263    3.3845850089095e-06
 264    -6.8195834256801e-06
 265    1.4373934167419e-05
 266    6.7944259004166e-06
 267    -1.8934645513816e-05
 268    -6.5370320455453e-05
 269    -5.1495209948098e-05
 270    -0.00012843231701109
 271    0.0031218080185818
 272    0.00012783503214809
 273    -7.5657078135404e-05
 274    9.7786412381162e-05
 275    0.0025811412161219
 276    0.00082312478171573
 277    -0.0028391339629893
 278    -8.9526153093586e-05
 279    -0.00032263079773938
 280    9.1648451441336e-05