[Molden Format]
made by pyscf v[2.0.1]
[Atoms] (AU)
C   1   6     0.69100024066471     0.64692934207205    -3.48223131169301
H   2   1     2.68052439830868     1.13355088658700    -3.25784032593313
C   3   6    -0.36286361513219     0.85440132524594    -5.97030179418974
H   4   1    -2.35448549047279     0.36322488579172    -6.17995817793143
C   5   6     0.93697958957450     1.61209284601821    -8.05828437677121
H   6   1     1.06549067678056     3.62267689696451    -8.48487489511106
C   7   6     2.16736557798100    -0.10534186648568    -9.75912299477448
H   8   1     2.02320928491733    -2.11383137749881    -9.30645195914250
H   9   1     1.55630230933075    -1.92953025305990    12.99630010416247
C   10   6     0.75233899775814    -2.21270439606481    11.10705728102219
H   11   1    -0.43433408177274    -3.90944857546550    11.22216085340412
C   12   6     2.86362581178706    -2.63237380607947     9.17926416456045
H   13   1     4.39038949912609    -1.24955421540245     9.49899813497433
H   14   1     3.74629220191363    -4.48798724300892     9.47414880959024
C   15   6     2.02478325613682    -2.42177285709634     6.44560829588644
C   16   6     3.88048732735477    -3.58795445234514     4.61402886975252
C   17   6    -0.18412382258602    -1.30464291234259     5.76021113872346
C   18   6    -2.10044360464350    -0.26837831858460     7.71610340967100
C   19   6    -3.08956938670431     2.35282328359417     6.88693925039594
C   20   6    -4.37372924086464    -2.09766595989678     7.93610724222001
C   21   6    -0.83850430601230     0.06372213486173    10.33002307638377
H   22   1     0.38411922151109     1.74281358582432    10.27380136542181
H   23   1    -2.30980003007874     0.45460143924521    11.73986301809809
H   24   1     4.58527064644668    -5.38706904487420     5.36778158031719
H   25   1     5.54944938085014    -2.37631462192748     4.35398898413318
H   26   1     3.06633019150423    -3.94118377050688     2.75255466040884
H   27   1    -4.17727778763735     2.26573369139522     5.12914900961283
H   28   1    -1.52662344944051     3.68001877445626     6.59540397144508
H   29   1    -4.32916174397830     3.13643051467482     8.35225460090378
H   30   1    -5.32329548508442    -2.36691813602939     6.11583672749896
H   31   1    -5.77989366602257    -1.33896741843465     9.25748940450990
H   32   1    -3.79310905208926    -3.96389819310853     8.61386170102686
C   33   6    -1.01100794811226    -1.06331657314144     3.11929490449947
C   34   6     0.37686231036534    -0.33275864505552     1.09165013605873
H   35   1    -3.01671213906703    -1.40297922279997     2.77827895090944
C   36   6    -0.64382707979370    -0.11591880174385    -1.42063131251064
H   37   1     2.35569259782137     0.17174499283897     1.33641070251401
H   38   1    -2.63317482980319    -0.60229203511219    -1.66119700387645
C   39   6     3.47875288242203     0.56169257871714   -11.85961387583028
C   40   6     4.66516051155728    -1.33401759756945   -13.47384510134906
H   41   1     3.69428385946791     2.52875803282145   -12.41815504578381
O   42   8     5.86788117255002    -0.86880199432758   -15.38639878207248
H   43   1     4.39675898316744    -3.32256790318547   -12.83056660829343
[GTO]
1 0
 s    6 1.00
             3047.5249  0.0018347001629433
             457.36951    0.01403730124668
             103.94869   0.068842606114048
             29.210155    0.23218442062076
              9.286663    0.46794134155879
              3.163927    0.36231203217765
 s    3 1.00
             7.8682724   -0.11933240861517
             1.8812885   -0.16085421161283
             0.5442493     1.1434564825515
 s    1 1.00
             0.1687144                   1
 p    3 1.00
             7.8682724   0.068999095584993
             1.8812885    0.31642397975315
             0.5442493    0.74430825237435
 p    1 1.00
             0.1687144                   1
 d    1 1.00
                   0.8                   1

2 0
 s    3 1.00
             18.731137    0.03349459952309
             2.8253937    0.23472694665786
             0.6401217    0.81375731841339
 s    1 1.00
             0.1612778                   1

3 0
 s    6 1.00
             3047.5249  0.0018347001629433
             457.36951    0.01403730124668
             103.94869   0.068842606114048
             29.210155    0.23218442062076
              9.286663    0.46794134155879
              3.163927    0.36231203217765
 s    3 1.00
             7.8682724   -0.11933240861517
             1.8812885   -0.16085421161283
             0.5442493     1.1434564825515
 s    1 1.00
             0.1687144                   1
 p    3 1.00
             7.8682724   0.068999095584993
             1.8812885    0.31642397975315
             0.5442493    0.74430825237435
 p    1 1.00
             0.1687144                   1
 d    1 1.00
                   0.8                   1

4 0
 s    3 1.00
             18.731137    0.03349459952309
             2.8253937    0.23472694665786
             0.6401217    0.81375731841339
 s    1 1.00
             0.1612778                   1

5 0
 s    6 1.00
             3047.5249  0.0018347001629433
             457.36951    0.01403730124668
             103.94869   0.068842606114048
             29.210155    0.23218442062076
              9.286663    0.46794134155879
              3.163927    0.36231203217765
 s    3 1.00
             7.8682724   -0.11933240861517
             1.8812885   -0.16085421161283
             0.5442493     1.1434564825515
 s    1 1.00
             0.1687144                   1
 p    3 1.00
             7.8682724   0.068999095584993
             1.8812885    0.31642397975315
             0.5442493    0.74430825237435
 p    1 1.00
             0.1687144                   1
 d    1 1.00
                   0.8                   1

6 0
 s    3 1.00
             18.731137    0.03349459952309
             2.8253937    0.23472694665786
             0.6401217    0.81375731841339
 s    1 1.00
             0.1612778                   1

7 0
 s    6 1.00
             3047.5249  0.0018347001629433
             457.36951    0.01403730124668
             103.94869   0.068842606114048
             29.210155    0.23218442062076
              9.286663    0.46794134155879
              3.163927    0.36231203217765
 s    3 1.00
             7.8682724   -0.11933240861517
             1.8812885   -0.16085421161283
             0.5442493     1.1434564825515
 s    1 1.00
             0.1687144                   1
 p    3 1.00
             7.8682724   0.068999095584993
             1.8812885    0.31642397975315
             0.5442493    0.74430825237435
 p    1 1.00
             0.1687144                   1
 d    1 1.00
                   0.8                   1

8 0
 s    3 1.00
             18.731137    0.03349459952309
             2.8253937    0.23472694665786
             0.6401217    0.81375731841339
 s    1 1.00
             0.1612778                   1

9 0
 s    3 1.00
             18.731137    0.03349459952309
             2.8253937    0.23472694665786
             0.6401217    0.81375731841339
 s    1 1.00
             0.1612778                   1

10 0
 s    6 1.00
             3047.5249  0.0018347001629433
             457.36951    0.01403730124668
             103.94869   0.068842606114048
             29.210155    0.23218442062076
              9.286663    0.46794134155879
              3.163927    0.36231203217765
 s    3 1.00
             7.8682724   -0.11933240861517
             1.8812885   -0.16085421161283
             0.5442493     1.1434564825515
 s    1 1.00
             0.1687144                   1
 p    3 1.00
             7.8682724   0.068999095584993
             1.8812885    0.31642397975315
             0.5442493    0.74430825237435
 p    1 1.00
             0.1687144                   1
 d    1 1.00
                   0.8                   1

11 0
 s    3 1.00
             18.731137    0.03349459952309
             2.8253937    0.23472694665786
             0.6401217    0.81375731841339
 s    1 1.00
             0.1612778                   1

12 0
 s    6 1.00
             3047.5249  0.0018347001629433
             457.36951    0.01403730124668
             103.94869   0.068842606114048
             29.210155    0.23218442062076
              9.286663    0.46794134155879
              3.163927    0.36231203217765
 s    3 1.00
             7.8682724   -0.11933240861517
             1.8812885   -0.16085421161283
             0.5442493     1.1434564825515
 s    1 1.00
             0.1687144                   1
 p    3 1.00
             7.8682724   0.068999095584993
             1.8812885    0.31642397975315
             0.5442493    0.74430825237435
 p    1 1.00
             0.1687144                   1
 d    1 1.00
                   0.8                   1

13 0
 s    3 1.00
             18.731137    0.03349459952309
             2.8253937    0.23472694665786
             0.6401217    0.81375731841339
 s    1 1.00
             0.1612778                   1

14 0
 s    3 1.00
             18.731137    0.03349459952309
             2.8253937    0.23472694665786
             0.6401217    0.81375731841339
 s    1 1.00
             0.1612778                   1

15 0
 s    6 1.00
             3047.5249  0.0018347001629433
             457.36951    0.01403730124668
             103.94869   0.068842606114048
             29.210155    0.23218442062076
              9.286663    0.46794134155879
              3.163927    0.36231203217765
 s    3 1.00
             7.8682724   -0.11933240861517
             1.8812885   -0.16085421161283
             0.5442493     1.1434564825515
 s    1 1.00
             0.1687144                   1
 p    3 1.00
             7.8682724   0.068999095584993
             1.8812885    0.31642397975315
             0.5442493    0.74430825237435
 p    1 1.00
             0.1687144                   1
 d    1 1.00
                   0.8                   1

16 0
 s    6 1.00
             3047.5249  0.0018347001629433
             457.36951    0.01403730124668
             103.94869   0.068842606114048
             29.210155    0.23218442062076
              9.286663    0.46794134155879
              3.163927    0.36231203217765
 s    3 1.00
             7.8682724   -0.11933240861517
             1.8812885   -0.16085421161283
             0.5442493     1.1434564825515
 s    1 1.00
             0.1687144                   1
 p    3 1.00
             7.8682724   0.068999095584993
             1.8812885    0.31642397975315
             0.5442493    0.74430825237435
 p    1 1.00
             0.1687144                   1
 d    1 1.00
                   0.8                   1

17 0
 s    6 1.00
             3047.5249  0.0018347001629433
             457.36951    0.01403730124668
             103.94869   0.068842606114048
             29.210155    0.23218442062076
              9.286663    0.46794134155879
              3.163927    0.36231203217765
 s    3 1.00
             7.8682724   -0.11933240861517
             1.8812885   -0.16085421161283
             0.5442493     1.1434564825515
 s    1 1.00
             0.1687144                   1
 p    3 1.00
             7.8682724   0.068999095584993
             1.8812885    0.31642397975315
             0.5442493    0.74430825237435
 p    1 1.00
             0.1687144                   1
 d    1 1.00
                   0.8                   1

18 0
 s    6 1.00
             3047.5249  0.0018347001629433
             457.36951    0.01403730124668
             103.94869   0.068842606114048
             29.210155    0.23218442062076
              9.286663    0.46794134155879
              3.163927    0.36231203217765
 s    3 1.00
             7.8682724   -0.11933240861517
             1.8812885   -0.16085421161283
             0.5442493     1.1434564825515
 s    1 1.00
             0.1687144                   1
 p    3 1.00
             7.8682724   0.068999095584993
             1.8812885    0.31642397975315
             0.5442493    0.74430825237435
 p    1 1.00
             0.1687144                   1
 d    1 1.00
                   0.8                   1

19 0
 s    6 1.00
             3047.5249  0.0018347001629433
             457.36951    0.01403730124668
             103.94869   0.068842606114048
             29.210155    0.23218442062076
              9.286663    0.46794134155879
              3.163927    0.36231203217765
 s    3 1.00
             7.8682724   -0.11933240861517
             1.8812885   -0.16085421161283
             0.5442493     1.1434564825515
 s    1 1.00
             0.1687144                   1
 p    3 1.00
             7.8682724   0.068999095584993
             1.8812885    0.31642397975315
             0.5442493    0.74430825237435
 p    1 1.00
             0.1687144                   1
 d    1 1.00
                   0.8                   1

20 0
 s    6 1.00
             3047.5249  0.0018347001629433
             457.36951    0.01403730124668
             103.94869   0.068842606114048
             29.210155    0.23218442062076
              9.286663    0.46794134155879
              3.163927    0.36231203217765
 s    3 1.00
             7.8682724   -0.11933240861517
             1.8812885   -0.16085421161283
             0.5442493     1.1434564825515
 s    1 1.00
             0.1687144                   1
 p    3 1.00
             7.8682724   0.068999095584993
             1.8812885    0.31642397975315
             0.5442493    0.74430825237435
 p    1 1.00
             0.1687144                   1
 d    1 1.00
                   0.8                   1

21 0
 s    6 1.00
             3047.5249  0.0018347001629433
             457.36951    0.01403730124668
             103.94869   0.068842606114048
             29.210155    0.23218442062076
              9.286663    0.46794134155879
              3.163927    0.36231203217765
 s    3 1.00
             7.8682724   -0.11933240861517
             1.8812885   -0.16085421161283
             0.5442493     1.1434564825515
 s    1 1.00
             0.1687144                   1
 p    3 1.00
             7.8682724   0.068999095584993
             1.8812885    0.31642397975315
             0.5442493    0.74430825237435
 p    1 1.00
             0.1687144                   1
 d    1 1.00
                   0.8                   1

22 0
 s    3 1.00
             18.731137    0.03349459952309
             2.8253937    0.23472694665786
             0.6401217    0.81375731841339
 s    1 1.00
             0.1612778                   1

23 0
 s    3 1.00
             18.731137    0.03349459952309
             2.8253937    0.23472694665786
             0.6401217    0.81375731841339
 s    1 1.00
             0.1612778                   1

24 0
 s    3 1.00
             18.731137    0.03349459952309
             2.8253937    0.23472694665786
             0.6401217    0.81375731841339
 s    1 1.00
             0.1612778                   1

25 0
 s    3 1.00
             18.731137    0.03349459952309
             2.8253937    0.23472694665786
             0.6401217    0.81375731841339
 s    1 1.00
             0.1612778                   1

26 0
 s    3 1.00
             18.731137    0.03349459952309
             2.8253937    0.23472694665786
             0.6401217    0.81375731841339
 s    1 1.00
             0.1612778                   1

27 0
 s    3 1.00
             18.731137    0.03349459952309
             2.8253937    0.23472694665786
             0.6401217    0.81375731841339
 s    1 1.00
             0.1612778                   1

28 0
 s    3 1.00
             18.731137    0.03349459952309
             2.8253937    0.23472694665786
             0.6401217    0.81375731841339
 s    1 1.00
             0.1612778                   1

29 0
 s    3 1.00
             18.731137    0.03349459952309
             2.8253937    0.23472694665786
             0.6401217    0.81375731841339
 s    1 1.00
             0.1612778                   1

30 0
 s    3 1.00
             18.731137    0.03349459952309
             2.8253937    0.23472694665786
             0.6401217    0.81375731841339
 s    1 1.00
             0.1612778                   1

31 0
 s    3 1.00
             18.731137    0.03349459952309
             2.8253937    0.23472694665786
             0.6401217    0.81375731841339
 s    1 1.00
             0.1612778                   1

32 0
 s    3 1.00
             18.731137    0.03349459952309
             2.8253937    0.23472694665786
             0.6401217    0.81375731841339
 s    1 1.00
             0.1612778                   1

33 0
 s    6 1.00
             3047.5249  0.0018347001629433
             457.36951    0.01403730124668
             103.94869   0.068842606114048
             29.210155    0.23218442062076
              9.286663    0.46794134155879
              3.163927    0.36231203217765
 s    3 1.00
             7.8682724   -0.11933240861517
             1.8812885   -0.16085421161283
             0.5442493     1.1434564825515
 s    1 1.00
             0.1687144                   1
 p    3 1.00
             7.8682724   0.068999095584993
             1.8812885    0.31642397975315
             0.5442493    0.74430825237435
 p    1 1.00
             0.1687144                   1
 d    1 1.00
                   0.8                   1

34 0
 s    6 1.00
             3047.5249  0.0018347001629433
             457.36951    0.01403730124668
             103.94869   0.068842606114048
             29.210155    0.23218442062076
              9.286663    0.46794134155879
              3.163927    0.36231203217765
 s    3 1.00
             7.8682724   -0.11933240861517
             1.8812885   -0.16085421161283
             0.5442493     1.1434564825515
 s    1 1.00
             0.1687144                   1
 p    3 1.00
             7.8682724   0.068999095584993
             1.8812885    0.31642397975315
             0.5442493    0.74430825237435
 p    1 1.00
             0.1687144                   1
 d    1 1.00
                   0.8                   1

35 0
 s    3 1.00
             18.731137    0.03349459952309
             2.8253937    0.23472694665786
             0.6401217    0.81375731841339
 s    1 1.00
             0.1612778                   1

36 0
 s    6 1.00
             3047.5249  0.0018347001629433
             457.36951    0.01403730124668
             103.94869   0.068842606114048
             29.210155    0.23218442062076
              9.286663    0.46794134155879
              3.163927    0.36231203217765
 s    3 1.00
             7.8682724   -0.11933240861517
             1.8812885   -0.16085421161283
             0.5442493     1.1434564825515
 s    1 1.00
             0.1687144                   1
 p    3 1.00
             7.8682724   0.068999095584993
             1.8812885    0.31642397975315
             0.5442493    0.74430825237435
 p    1 1.00
             0.1687144                   1
 d    1 1.00
                   0.8                   1

37 0
 s    3 1.00
             18.731137    0.03349459952309
             2.8253937    0.23472694665786
             0.6401217    0.81375731841339
 s    1 1.00
             0.1612778                   1

38 0
 s    3 1.00
             18.731137    0.03349459952309
             2.8253937    0.23472694665786
             0.6401217    0.81375731841339
 s    1 1.00
             0.1612778                   1

39 0
 s    6 1.00
             3047.5249  0.0018347001629433
             457.36951    0.01403730124668
             103.94869   0.068842606114048
             29.210155    0.23218442062076
              9.286663    0.46794134155879
              3.163927    0.36231203217765
 s    3 1.00
             7.8682724   -0.11933240861517
             1.8812885   -0.16085421161283
             0.5442493     1.1434564825515
 s    1 1.00
             0.1687144                   1
 p    3 1.00
             7.8682724   0.068999095584993
             1.8812885    0.31642397975315
             0.5442493    0.74430825237435
 p    1 1.00
             0.1687144                   1
 d    1 1.00
                   0.8                   1

40 0
 s    6 1.00
             3047.5249  0.0018347001629433
             457.36951    0.01403730124668
             103.94869   0.068842606114048
             29.210155    0.23218442062076
              9.286663    0.46794134155879
              3.163927    0.36231203217765
 s    3 1.00
             7.8682724   -0.11933240861517
             1.8812885   -0.16085421161283
             0.5442493     1.1434564825515
 s    1 1.00
             0.1687144                   1
 p    3 1.00
             7.8682724   0.068999095584993
             1.8812885    0.31642397975315
             0.5442493    0.74430825237435
 p    1 1.00
             0.1687144                   1
 d    1 1.00
                   0.8                   1

41 0
 s    3 1.00
             18.731137    0.03349459952309
             2.8253937    0.23472694665786
             0.6401217    0.81375731841339
 s    1 1.00
             0.1612778                   1

42 0
 s    6 1.00
             5484.6717   0.001831099805527
             825.23495   0.013950098518422
             188.04696    0.06844509273075
               52.9645    0.23271427528445
              16.89757    0.47019295006289
             5.7996353    0.35852086192309
 s    3 1.00
             15.539616   -0.11077750382508
             3.5999336   -0.14802630511126
             1.0137618     1.1307670390447
 s    1 1.00
             0.2700058                   1
 p    3 1.00
             15.539616   0.070874299543311
             3.5999336    0.33975279781076
             1.0137618    0.72715859531445
 p    1 1.00
             0.2700058                   1
 d    1 1.00
                   0.8                   1

43 0
 s    3 1.00
             18.731137    0.03349459952309
             2.8253937    0.23472694665786
             0.6401217    0.81375731841339
 s    1 1.00
             0.1612778                   1

[5d]
[7f]
[9g]

[MO]
 Sym= A
 Ene=               0
 Spin= Alpha
 Occup=    1.00000
   1    1.8102927266518e-06
   2    1.9359786892676e-05
   3    -1.7145118012538e-05
   4    5.2885027990844e-06
   5    3.3284685203055e-07
   6    -1.3372644531569e-05
   7    -2.2979318650416e-05
   8    -9.2785164251426e-05
   9    0.00036706273630312
  10    -1.1115137258332e-07
  11    -1.1179970792409e-05
  12    -2.2293600698169e-06
  13    -1.3704821464907e-05
  14    7.5821573716392e-06
  15    1.4039001969925e-05
  16    -1.7315999968369e-05
  17    -7.1535316955454e-06
  18    -0.00015961084012545
  19    -0.00041277990259591
  20    -5.3495207679306e-05
  21    8.7899390486652e-06
  22    6.9495088154235e-05
  23    -0.00016038626459649
  24    9.3832419585452e-05
  25    0.00060510239594854
  26    -2.1407997750395e-05
  27    2.2990072729734e-05
  28    -1.0132422761297e-05
  29    -4.1709660438689e-05
  30    3.3435659766427e-06
  31    1.0652976093078e-05
  32    -2.832823498337e-05
  33    -5.0843345069305e-05
  34    -0.00034138902341369
  35    0.0042893833390182
  36    8.7930178526592e-05
  37    -1.8844324045316e-05
  38    -0.00014439235302495
  39    0.00045185347867938
  40    -0.0018749625086133
  41    -0.00051959745805535
  42    2.5617384517068e-05
  43    -0.00010542200514334
  44    6.7837507963818e-05
  45    -2.9235670515064e-05
  46    -5.1733692271144e-05
  47    1.6999951653974e-05
  48    0.00027099129190212
  49    -4.7970005699377e-06
  50    -0.00011694021275065
  51    -0.003435589343793
  52    -0.000168831486059
  53    0.00022133973968426
  54    0.00023595772704814
  55    0.0016315353550721
  56    -0.0025138181997183
  57    -0.0022308191850872
  58    2.0992573492455e-05
  59    -3.7706173838841e-05
  60    -0.00018810356037662
  61    -2.6074908693861e-05
  62    0.00011775320666017
  63    -0.00028336302114376
  64    -7.6560113947081e-05
  65    2.2067132958092e-07
  66    3.0245057676429e-07
  67    4.1654093464576e-08
  68    5.619710896241e-07
  69    -2.8279011470708e-06
  70    -2.3531413269933e-07
  71    3.333125121288e-07
  72    -1.1637533563511e-07
  73    -2.5742729895369e-07
  74    -1.6497342621644e-06
  75    -7.869824250963e-08
  76    5.2312677748288e-08
  77    1.1944055886461e-07
  78    -4.901783505849e-08
  79    -7.2980227315898e-08
  80    1.0091804836721e-07
  81    -8.7565064739435e-08
  82    -2.0201311821333e-07
  83    -2.3144260031647e-08
  84    1.6329120626668e-07
  85    1.3020863184457e-05
  86    -6.0854810164372e-07
  87    -7.0155787379737e-08
  88    -8.6958234361445e-07
  89    -3.3131582113499e-06
  90    4.7499484114428e-06
  91    -3.1097466950441e-06
  92    -1.6782418973078e-07
  93    2.7451294356823e-07
  94    -3.4596580619987e-07
  95    -3.6381085583407e-08
  96    1.5436856248397e-07
  97    -6.4934899756667e-07
  98    -8.489487221399e-07
  99    3.6306419628185e-08
 100    1.0939712508956e-06
 101    7.3220071383664e-08
 102    9.4822457942321e-07
 103    -1.4558133960715e-05
 104    -1.892681252396e-07
 105    9.1028034367253e-07
 106    5.9643882893292e-07
 107    1.9081152825678e-05
 108    -1.744934944416e-05
 109    -2.9245759783161e-05
 110    5.7143889716402e-07
 111    5.144985383701e-07
 112    -2.2324580101898e-07
 113    -3.6230323162656e-07
 114    5.0426571691332e-07
 115    4.7378064639498e-07
 116    4.385259249326e-06
 117    -3.544505341241e-05
 118    6.4807138763868e-07
 119    -1.0106856237894e-06
 120    -8.2774479562741e-07
 121    7.9844775270314e-06
 122    -7.5334394674863e-07
 123    -2.4465136380349e-06
 124    6.6004307355361e-08
 125    2.1171316359581e-07
 126    1.4174191776339e-07
 127    -8.3893798141707e-08
 128    3.4358653564047e-07
 129    9.2368886584711e-07
 130    8.4952338228322e-06
 131    -4.886350336444e-05
 132    -1.9732501172931e-07
 133    3.2579458705405e-07
 134    -3.3958713432827e-06
 135    2.4636546713819e-05
 136    -1.4232793529523e-06
 137    7.8111115907336e-05
 138    -2.3924721119841e-06
 139    -1.4957733311269e-06
 140    -2.5307067442258e-07
 141    -4.0186698156956e-07
 142    -9.2411106793178e-08
 143    3.8599057260261e-07
 144    3.6215902609691e-06
 145    -1.7984813663947e-05
 146    -2.5145334571838e-07
 147    -5.3055117011367e-07
 148    -3.8495062743729e-07
 149    -1.1073570354201e-05
 150    6.4847333657751e-06
 151    2.6396049945057e-06
 152    9.8895852620545e-07
 153    3.5804142667339e-07
 154    1.1313579805045e-07
 155    -6.9622656751644e-07
 156    7.0454429519722e-07
 157    -9.8250265071449e-08
 158    -8.2496999268171e-07
 159    -7.9527619328089e-07
 160    -7.0407379034523e-07
 161    1.1152989285869e-07
 162    6.8274412486658e-08
 163    6.0115131326228e-06
 164    -1.036488520455e-07
 165    -7.9894793489521e-07
 166    -4.2647162075929e-07
 167    1.4655839837315e-07
 168    -1.1629377314718e-08
 169    1.0840780060821e-07
 170    -2.7307517065194e-07
 171    -2.6085491565301e-08
 172    3.9263134132732e-07
 173    1.667932871752e-06
 174    6.3349349924306e-07
 175    1.4999248382334e-07
 176    -7.4834207326403e-07
 177    3.3253510991592e-07
 178    -1.5305516890343e-06
 179    1.7710918259916e-06
 180    -1.4332298017888e-07
 181    -2.1052646924336e-07
 182    -1.7646625983056e-08
 183    3.6939434420969e-07
 184    -1.7578237725742e-07
 185    2.8974871164555e-07
 186    2.9477162276116e-06
 187    -2.2631687370167e-06
 188    2.2813931434617e-07
 189    -1.276863580936e-07
 190    -1.1057007380947e-06
 191    -2.2163919404375e-06
 192    -8.6588388866717e-07
 193    5.5526653905598e-06
 194    -3.2239131917575e-07
 195    3.4854420795824e-08
 196    -1.664254047793e-07
 197    -7.5350055144301e-08
 198    8.5193063307053e-08
 199    7.3372649750329e-07
 200    1.2316620904955e-06
 201    -6.1743549270887e-08
 202    -3.2166566504106e-06
 203    1.6461820205825e-06
 204    1.888687125033e-06
 205    3.0376134317236e-07
 206    2.305887616613e-06
 207    -1.264819602397e-06
 208    1.1890409752782e-05
 209    -1.057299344285e-06
 210    4.1245857337636e-06
 211    -4.5151084286437e-07
 212    -2.7560881881997e-06
 213    2.1083684779813e-07
 214    2.092556436505e-06
 215    4.9163706692399e-07
 216    -6.5716276234538e-07
 217    -2.8893453333446e-07
 218    -8.2013906574404e-07
 219    -2.5755312233126e-07
 220    -1.0831393706488e-06
 221    7.5047778180217e-07
 222    8.1105588253251e-06
 223    3.9651669352444e-06
 224    -3.0003377747747e-07
 225    6.241212222584e-07
 226    -3.4762014776581e-06
 227    -1.3103737873723e-05
 228    -2.6309786110648e-05
 229    9.2363856695488e-05
 230    1.0553284181349e-06
 231    3.9643799177558e-06
 232    1.9596639481582e-06
 233    -1.7803690381687e-06
 234    -2.759249837095e-06
 235    1.0885482809601e-06
 236    1.1181505406262e-05
 237    -2.3262308891781e-05
 238    9.6242129000714e-07
 239    -2.80711900523e-06
 240    -4.279793142932e-06
 241    1.9693897397343e-05
 242    8.0808507252585e-06
 243    8.9954059576179e-05
 244    -1.688983781554e-06
 245    -6.6718755398101e-06
 246    -2.0637005019011e-06
 247    -2.5349751492723e-06
 248    -1.5783964139077e-06
 249    3.8831387417398e-06
 250    -1.0688888181655e-05
 251    3.7448788246016e-06
 252    3.0923523546864e-05
 253    -0.00023901570543013
 254    -2.581396588325e-06
 255    1.0289115723262e-05
 256    -7.5890100081109e-06
 257    -0.00010441052802593
 258    -0.00010037626155578
 259    0.00023220795312062
 260    -1.8786250007582e-06
 261    1.172759087903e-05
 262    5.5675576250091e-06
 263    -7.2612245662991e-06
 264    -5.9197207525838e-06
 265    4.5247941356031e-06
 266    -2.7165436964358e-05
 267    8.2513828268473e-06
 268    -3.7920311215826e-05
 269    5.1184906603733e-05
 270    0.00012559222791641
 271    -0.0030399629030889
 272    -2.1179621516786e-05
 273    0.00018491278591802
 274    9.8445458186785e-06
 275    -0.0020500569618533
 276    -0.00057262441718316
 277    0.0032385891101114
 278    -0.00021466322772594
 279    0.00020561218009544