[Molden Format]
made by pyscf v[2.0.1]
[Atoms] (AU)
C   1   6     0.69100024066471     0.64692934207205    -3.48223131169301
H   2   1     2.68052439830868     1.13355088658700    -3.25784032593313
C   3   6    -0.36286361513219     0.85440132524594    -5.97030179418974
H   4   1    -2.35448549047279     0.36322488579172    -6.17995817793143
C   5   6     0.93697958957450     1.61209284601821    -8.05828437677121
H   6   1     2.82520634269342     2.40231158819155    -7.83223822317356
C   7   6    -0.04591716574067     1.43050675384137   -10.57963800872440
H   8   1    -1.93966227025444     0.63380613673234   -10.77641154630544
H   9   1     1.55630230933075    -1.92953025305990    12.99630010416247
C   10   6     0.75233899775814    -2.21270439606481    11.10705728102219
H   11   1    -0.43433408177274    -3.90944857546550    11.22216085340412
C   12   6     2.86362581178706    -2.63237380607947     9.17926416456045
H   13   1     4.39038949912609    -1.24955421540245     9.49899813497433
H   14   1     3.74629220191363    -4.48798724300892     9.47414880959024
C   15   6     2.02478325613682    -2.42177285709634     6.44560829588644
C   16   6     3.88048732735477    -3.58795445234514     4.61402886975252
C   17   6    -0.18412382258602    -1.30464291234259     5.76021113872346
C   18   6    -2.10044360464350    -0.26837831858460     7.71610340967100
C   19   6    -3.08956938670431     2.35282328359417     6.88693925039594
C   20   6    -4.37372924086464    -2.09766595989678     7.93610724222001
C   21   6    -0.83850430601230     0.06372213486173    10.33002307638377
H   22   1     0.38411922151109     1.74281358582432    10.27380136542181
H   23   1    -2.30980003007874     0.45460143924521    11.73986301809809
H   24   1     4.58527064644668    -5.38706904487420     5.36778158031719
H   25   1     5.54944938085014    -2.37631462192748     4.35398898413318
H   26   1     3.06633019150423    -3.94118377050688     2.75255466040884
H   27   1    -4.17727778763735     2.26573369139522     5.12914900961283
H   28   1    -1.52662344944051     3.68001877445626     6.59540397144508
H   29   1    -4.32916174397830     3.13643051467482     8.35225460090378
H   30   1    -5.32329548508442    -2.36691813602939     6.11583672749896
H   31   1    -5.77989366602257    -1.33896741843465     9.25748940450990
H   32   1    -3.79310905208926    -3.96389819310853     8.61386170102686
C   33   6    -1.01100794811226    -1.06331657314144     3.11929490449947
C   34   6     0.37686231036534    -0.33275864505552     1.09165013605873
H   35   1    -3.01671213906703    -1.40297922279997     2.77827895090944
C   36   6    -0.64382707979370    -0.11591880174385    -1.42063131251064
H   37   1     2.35569259782137     0.17174499283897     1.33641070251401
H   38   1    -2.63317482980319    -0.60229203511219    -1.66119700387645
C   39   6     1.17709071185639     2.16235266520763   -12.71162929579923
C   40   6     0.01149368127442     1.89967079998079   -15.19747007607967
H   41   1     3.06674924318564     2.97042403350516   -12.64854490967844
O   42   8     1.00001917973751     2.51860460578581   -17.18758625638360
H   43   1    -1.92257659968242     1.06364005135718   -15.17290072571517
[GTO]
1 0
 s    6 1.00
             3047.5249  0.0018347001629433
             457.36951    0.01403730124668
             103.94869   0.068842606114048
             29.210155    0.23218442062076
              9.286663    0.46794134155879
              3.163927    0.36231203217765
 s    3 1.00
             7.8682724   -0.11933240861517
             1.8812885   -0.16085421161283
             0.5442493     1.1434564825515
 s    1 1.00
             0.1687144                   1
 p    3 1.00
             7.8682724   0.068999095584993
             1.8812885    0.31642397975315
             0.5442493    0.74430825237435
 p    1 1.00
             0.1687144                   1
 d    1 1.00
                   0.8                   1

2 0
 s    3 1.00
             18.731137    0.03349459952309
             2.8253937    0.23472694665786
             0.6401217    0.81375731841339
 s    1 1.00
             0.1612778                   1

3 0
 s    6 1.00
             3047.5249  0.0018347001629433
             457.36951    0.01403730124668
             103.94869   0.068842606114048
             29.210155    0.23218442062076
              9.286663    0.46794134155879
              3.163927    0.36231203217765
 s    3 1.00
             7.8682724   -0.11933240861517
             1.8812885   -0.16085421161283
             0.5442493     1.1434564825515
 s    1 1.00
             0.1687144                   1
 p    3 1.00
             7.8682724   0.068999095584993
             1.8812885    0.31642397975315
             0.5442493    0.74430825237435
 p    1 1.00
             0.1687144                   1
 d    1 1.00
                   0.8                   1

4 0
 s    3 1.00
             18.731137    0.03349459952309
             2.8253937    0.23472694665786
             0.6401217    0.81375731841339
 s    1 1.00
             0.1612778                   1

5 0
 s    6 1.00
             3047.5249  0.0018347001629433
             457.36951    0.01403730124668
             103.94869   0.068842606114048
             29.210155    0.23218442062076
              9.286663    0.46794134155879
              3.163927    0.36231203217765
 s    3 1.00
             7.8682724   -0.11933240861517
             1.8812885   -0.16085421161283
             0.5442493     1.1434564825515
 s    1 1.00
             0.1687144                   1
 p    3 1.00
             7.8682724   0.068999095584993
             1.8812885    0.31642397975315
             0.5442493    0.74430825237435
 p    1 1.00
             0.1687144                   1
 d    1 1.00
                   0.8                   1

6 0
 s    3 1.00
             18.731137    0.03349459952309
             2.8253937    0.23472694665786
             0.6401217    0.81375731841339
 s    1 1.00
             0.1612778                   1

7 0
 s    6 1.00
             3047.5249  0.0018347001629433
             457.36951    0.01403730124668
             103.94869   0.068842606114048
             29.210155    0.23218442062076
              9.286663    0.46794134155879
              3.163927    0.36231203217765
 s    3 1.00
             7.8682724   -0.11933240861517
             1.8812885   -0.16085421161283
             0.5442493     1.1434564825515
 s    1 1.00
             0.1687144                   1
 p    3 1.00
             7.8682724   0.068999095584993
             1.8812885    0.31642397975315
             0.5442493    0.74430825237435
 p    1 1.00
             0.1687144                   1
 d    1 1.00
                   0.8                   1

8 0
 s    3 1.00
             18.731137    0.03349459952309
             2.8253937    0.23472694665786
             0.6401217    0.81375731841339
 s    1 1.00
             0.1612778                   1

9 0
 s    3 1.00
             18.731137    0.03349459952309
             2.8253937    0.23472694665786
             0.6401217    0.81375731841339
 s    1 1.00
             0.1612778                   1

10 0
 s    6 1.00
             3047.5249  0.0018347001629433
             457.36951    0.01403730124668
             103.94869   0.068842606114048
             29.210155    0.23218442062076
              9.286663    0.46794134155879
              3.163927    0.36231203217765
 s    3 1.00
             7.8682724   -0.11933240861517
             1.8812885   -0.16085421161283
             0.5442493     1.1434564825515
 s    1 1.00
             0.1687144                   1
 p    3 1.00
             7.8682724   0.068999095584993
             1.8812885    0.31642397975315
             0.5442493    0.74430825237435
 p    1 1.00
             0.1687144                   1
 d    1 1.00
                   0.8                   1

11 0
 s    3 1.00
             18.731137    0.03349459952309
             2.8253937    0.23472694665786
             0.6401217    0.81375731841339
 s    1 1.00
             0.1612778                   1

12 0
 s    6 1.00
             3047.5249  0.0018347001629433
             457.36951    0.01403730124668
             103.94869   0.068842606114048
             29.210155    0.23218442062076
              9.286663    0.46794134155879
              3.163927    0.36231203217765
 s    3 1.00
             7.8682724   -0.11933240861517
             1.8812885   -0.16085421161283
             0.5442493     1.1434564825515
 s    1 1.00
             0.1687144                   1
 p    3 1.00
             7.8682724   0.068999095584993
             1.8812885    0.31642397975315
             0.5442493    0.74430825237435
 p    1 1.00
             0.1687144                   1
 d    1 1.00
                   0.8                   1

13 0
 s    3 1.00
             18.731137    0.03349459952309
             2.8253937    0.23472694665786
             0.6401217    0.81375731841339
 s    1 1.00
             0.1612778                   1

14 0
 s    3 1.00
             18.731137    0.03349459952309
             2.8253937    0.23472694665786
             0.6401217    0.81375731841339
 s    1 1.00
             0.1612778                   1

15 0
 s    6 1.00
             3047.5249  0.0018347001629433
             457.36951    0.01403730124668
             103.94869   0.068842606114048
             29.210155    0.23218442062076
              9.286663    0.46794134155879
              3.163927    0.36231203217765
 s    3 1.00
             7.8682724   -0.11933240861517
             1.8812885   -0.16085421161283
             0.5442493     1.1434564825515
 s    1 1.00
             0.1687144                   1
 p    3 1.00
             7.8682724   0.068999095584993
             1.8812885    0.31642397975315
             0.5442493    0.74430825237435
 p    1 1.00
             0.1687144                   1
 d    1 1.00
                   0.8                   1

16 0
 s    6 1.00
             3047.5249  0.0018347001629433
             457.36951    0.01403730124668
             103.94869   0.068842606114048
             29.210155    0.23218442062076
              9.286663    0.46794134155879
              3.163927    0.36231203217765
 s    3 1.00
             7.8682724   -0.11933240861517
             1.8812885   -0.16085421161283
             0.5442493     1.1434564825515
 s    1 1.00
             0.1687144                   1
 p    3 1.00
             7.8682724   0.068999095584993
             1.8812885    0.31642397975315
             0.5442493    0.74430825237435
 p    1 1.00
             0.1687144                   1
 d    1 1.00
                   0.8                   1

17 0
 s    6 1.00
             3047.5249  0.0018347001629433
             457.36951    0.01403730124668
             103.94869   0.068842606114048
             29.210155    0.23218442062076
              9.286663    0.46794134155879
              3.163927    0.36231203217765
 s    3 1.00
             7.8682724   -0.11933240861517
             1.8812885   -0.16085421161283
             0.5442493     1.1434564825515
 s    1 1.00
             0.1687144                   1
 p    3 1.00
             7.8682724   0.068999095584993
             1.8812885    0.31642397975315
             0.5442493    0.74430825237435
 p    1 1.00
             0.1687144                   1
 d    1 1.00
                   0.8                   1

18 0
 s    6 1.00
             3047.5249  0.0018347001629433
             457.36951    0.01403730124668
             103.94869   0.068842606114048
             29.210155    0.23218442062076
              9.286663    0.46794134155879
              3.163927    0.36231203217765
 s    3 1.00
             7.8682724   -0.11933240861517
             1.8812885   -0.16085421161283
             0.5442493     1.1434564825515
 s    1 1.00
             0.1687144                   1
 p    3 1.00
             7.8682724   0.068999095584993
             1.8812885    0.31642397975315
             0.5442493    0.74430825237435
 p    1 1.00
             0.1687144                   1
 d    1 1.00
                   0.8                   1

19 0
 s    6 1.00
             3047.5249  0.0018347001629433
             457.36951    0.01403730124668
             103.94869   0.068842606114048
             29.210155    0.23218442062076
              9.286663    0.46794134155879
              3.163927    0.36231203217765
 s    3 1.00
             7.8682724   -0.11933240861517
             1.8812885   -0.16085421161283
             0.5442493     1.1434564825515
 s    1 1.00
             0.1687144                   1
 p    3 1.00
             7.8682724   0.068999095584993
             1.8812885    0.31642397975315
             0.5442493    0.74430825237435
 p    1 1.00
             0.1687144                   1
 d    1 1.00
                   0.8                   1

20 0
 s    6 1.00
             3047.5249  0.0018347001629433
             457.36951    0.01403730124668
             103.94869   0.068842606114048
             29.210155    0.23218442062076
              9.286663    0.46794134155879
              3.163927    0.36231203217765
 s    3 1.00
             7.8682724   -0.11933240861517
             1.8812885   -0.16085421161283
             0.5442493     1.1434564825515
 s    1 1.00
             0.1687144                   1
 p    3 1.00
             7.8682724   0.068999095584993
             1.8812885    0.31642397975315
             0.5442493    0.74430825237435
 p    1 1.00
             0.1687144                   1
 d    1 1.00
                   0.8                   1

21 0
 s    6 1.00
             3047.5249  0.0018347001629433
             457.36951    0.01403730124668
             103.94869   0.068842606114048
             29.210155    0.23218442062076
              9.286663    0.46794134155879
              3.163927    0.36231203217765
 s    3 1.00
             7.8682724   -0.11933240861517
             1.8812885   -0.16085421161283
             0.5442493     1.1434564825515
 s    1 1.00
             0.1687144                   1
 p    3 1.00
             7.8682724   0.068999095584993
             1.8812885    0.31642397975315
             0.5442493    0.74430825237435
 p    1 1.00
             0.1687144                   1
 d    1 1.00
                   0.8                   1

22 0
 s    3 1.00
             18.731137    0.03349459952309
             2.8253937    0.23472694665786
             0.6401217    0.81375731841339
 s    1 1.00
             0.1612778                   1

23 0
 s    3 1.00
             18.731137    0.03349459952309
             2.8253937    0.23472694665786
             0.6401217    0.81375731841339
 s    1 1.00
             0.1612778                   1

24 0
 s    3 1.00
             18.731137    0.03349459952309
             2.8253937    0.23472694665786
             0.6401217    0.81375731841339
 s    1 1.00
             0.1612778                   1

25 0
 s    3 1.00
             18.731137    0.03349459952309
             2.8253937    0.23472694665786
             0.6401217    0.81375731841339
 s    1 1.00
             0.1612778                   1

26 0
 s    3 1.00
             18.731137    0.03349459952309
             2.8253937    0.23472694665786
             0.6401217    0.81375731841339
 s    1 1.00
             0.1612778                   1

27 0
 s    3 1.00
             18.731137    0.03349459952309
             2.8253937    0.23472694665786
             0.6401217    0.81375731841339
 s    1 1.00
             0.1612778                   1

28 0
 s    3 1.00
             18.731137    0.03349459952309
             2.8253937    0.23472694665786
             0.6401217    0.81375731841339
 s    1 1.00
             0.1612778                   1

29 0
 s    3 1.00
             18.731137    0.03349459952309
             2.8253937    0.23472694665786
             0.6401217    0.81375731841339
 s    1 1.00
             0.1612778                   1

30 0
 s    3 1.00
             18.731137    0.03349459952309
             2.8253937    0.23472694665786
             0.6401217    0.81375731841339
 s    1 1.00
             0.1612778                   1

31 0
 s    3 1.00
             18.731137    0.03349459952309
             2.8253937    0.23472694665786
             0.6401217    0.81375731841339
 s    1 1.00
             0.1612778                   1

32 0
 s    3 1.00
             18.731137    0.03349459952309
             2.8253937    0.23472694665786
             0.6401217    0.81375731841339
 s    1 1.00
             0.1612778                   1

33 0
 s    6 1.00
             3047.5249  0.0018347001629433
             457.36951    0.01403730124668
             103.94869   0.068842606114048
             29.210155    0.23218442062076
              9.286663    0.46794134155879
              3.163927    0.36231203217765
 s    3 1.00
             7.8682724   -0.11933240861517
             1.8812885   -0.16085421161283
             0.5442493     1.1434564825515
 s    1 1.00
             0.1687144                   1
 p    3 1.00
             7.8682724   0.068999095584993
             1.8812885    0.31642397975315
             0.5442493    0.74430825237435
 p    1 1.00
             0.1687144                   1
 d    1 1.00
                   0.8                   1

34 0
 s    6 1.00
             3047.5249  0.0018347001629433
             457.36951    0.01403730124668
             103.94869   0.068842606114048
             29.210155    0.23218442062076
              9.286663    0.46794134155879
              3.163927    0.36231203217765
 s    3 1.00
             7.8682724   -0.11933240861517
             1.8812885   -0.16085421161283
             0.5442493     1.1434564825515
 s    1 1.00
             0.1687144                   1
 p    3 1.00
             7.8682724   0.068999095584993
             1.8812885    0.31642397975315
             0.5442493    0.74430825237435
 p    1 1.00
             0.1687144                   1
 d    1 1.00
                   0.8                   1

35 0
 s    3 1.00
             18.731137    0.03349459952309
             2.8253937    0.23472694665786
             0.6401217    0.81375731841339
 s    1 1.00
             0.1612778                   1

36 0
 s    6 1.00
             3047.5249  0.0018347001629433
             457.36951    0.01403730124668
             103.94869   0.068842606114048
             29.210155    0.23218442062076
              9.286663    0.46794134155879
              3.163927    0.36231203217765
 s    3 1.00
             7.8682724   -0.11933240861517
             1.8812885   -0.16085421161283
             0.5442493     1.1434564825515
 s    1 1.00
             0.1687144                   1
 p    3 1.00
             7.8682724   0.068999095584993
             1.8812885    0.31642397975315
             0.5442493    0.74430825237435
 p    1 1.00
             0.1687144                   1
 d    1 1.00
                   0.8                   1

37 0
 s    3 1.00
             18.731137    0.03349459952309
             2.8253937    0.23472694665786
             0.6401217    0.81375731841339
 s    1 1.00
             0.1612778                   1

38 0
 s    3 1.00
             18.731137    0.03349459952309
             2.8253937    0.23472694665786
             0.6401217    0.81375731841339
 s    1 1.00
             0.1612778                   1

39 0
 s    6 1.00
             3047.5249  0.0018347001629433
             457.36951    0.01403730124668
             103.94869   0.068842606114048
             29.210155    0.23218442062076
              9.286663    0.46794134155879
              3.163927    0.36231203217765
 s    3 1.00
             7.8682724   -0.11933240861517
             1.8812885   -0.16085421161283
             0.5442493     1.1434564825515
 s    1 1.00
             0.1687144                   1
 p    3 1.00
             7.8682724   0.068999095584993
             1.8812885    0.31642397975315
             0.5442493    0.74430825237435
 p    1 1.00
             0.1687144                   1
 d    1 1.00
                   0.8                   1

40 0
 s    6 1.00
             3047.5249  0.0018347001629433
             457.36951    0.01403730124668
             103.94869   0.068842606114048
             29.210155    0.23218442062076
              9.286663    0.46794134155879
              3.163927    0.36231203217765
 s    3 1.00
             7.8682724   -0.11933240861517
             1.8812885   -0.16085421161283
             0.5442493     1.1434564825515
 s    1 1.00
             0.1687144                   1
 p    3 1.00
             7.8682724   0.068999095584993
             1.8812885    0.31642397975315
             0.5442493    0.74430825237435
 p    1 1.00
             0.1687144                   1
 d    1 1.00
                   0.8                   1

41 0
 s    3 1.00
             18.731137    0.03349459952309
             2.8253937    0.23472694665786
             0.6401217    0.81375731841339
 s    1 1.00
             0.1612778                   1

42 0
 s    6 1.00
             5484.6717   0.001831099805527
             825.23495   0.013950098518422
             188.04696    0.06844509273075
               52.9645    0.23271427528445
              16.89757    0.47019295006289
             5.7996353    0.35852086192309
 s    3 1.00
             15.539616   -0.11077750382508
             3.5999336   -0.14802630511126
             1.0137618     1.1307670390447
 s    1 1.00
             0.2700058                   1
 p    3 1.00
             15.539616   0.070874299543311
             3.5999336    0.33975279781076
             1.0137618    0.72715859531445
 p    1 1.00
             0.2700058                   1
 d    1 1.00
                   0.8                   1

43 0
 s    3 1.00
             18.731137    0.03349459952309
             2.8253937    0.23472694665786
             0.6401217    0.81375731841339
 s    1 1.00
             0.1612778                   1

[5d]
[7f]
[9g]

[MO]
 Sym= A
 Ene=               0
 Spin= Alpha
 Occup=    1.00000
   1    7.362523093655e-06
   2    5.8318019560939e-05
   3    5.7150517223532e-05
   4    2.001439722005e-05
   5    2.4931743076738e-05
   6    -3.9289056162095e-05
   7    -0.00026348798071519
   8    -0.00029831257878163
   9    0.00099988976783435
  10    -2.2653238853138e-05
  11    -3.706628979766e-05
  12    -1.1242546904104e-06
  13    -7.1796387644173e-06
  14    2.1955898018542e-06
  15    5.4073864185317e-05
  16    2.9705019982805e-05
  17    -2.0432274694372e-05
  18    -9.5663302025166e-05
  19    0.0022039390906206
  20    1.3015198158951e-05
  21    5.196285930234e-06
  22    -6.2559827701326e-05
  23    0.00044101812345908
  24    0.00021621539833626
  25    -0.00069716088568904
  26    6.1513116802944e-05
  27    -1.2481754907148e-05
  28    -2.4416698201118e-05
  29    3.680127960796e-06
  30    -1.2943557509679e-05
  31    -4.0178162082508e-06
  32    -0.0001245682729064
  33    6.1938418987898e-05
  34    0.00038535630128295
  35    -0.0055343655759033
  36    -4.0038713191634e-05
  37    -1.9253152866015e-05
  38    0.00010808763371274
  39    0.0019571853089804
  40    0.0006771781640991
  41     0.001431629989125
  42    -0.00016479317025557
  43    -5.8073923260452e-05
  44    4.6470915779078e-06
  45    -3.6442478872149e-05
  46    -3.4432054649042e-05
  47    -4.9310352271484e-05
  48    -0.00032369485268804
  49    -4.5834720581093e-06
  50    5.9935594764199e-05
  51    0.0041186235894495
  52    -0.00012221468318717
  53    -2.5048943414372e-05
  54    -0.00034051166548519
  55    0.0016964230175306
  56    0.0003823154538112
  57    0.0038728123154215
  58    0.00011147373206553
  59    0.00018510063281953
  60    7.2219114819812e-05
  61    -5.4821385590857e-05
  62    -8.1793492114079e-05
  63    0.00027283188290364
  64    0.00013172489755308
  65    1.4820200085971e-07
  66    -1.9636610630138e-06
  67    1.4158415291153e-07
  68    1.5403852183134e-06
  69    -3.3964382159654e-07
  70    -8.9426910815251e-07
  71    9.8685712660689e-07
  72    -4.3389765752999e-07
  73    -2.0610367046829e-06
  74    -7.3975302031091e-07
  75    2.857520932784e-06
  76    -2.5463058198805e-07
  77    -6.0793650705094e-08
  78    -1.6139070832559e-07
  79    -1.3602454507024e-07
  80    -7.6073473747955e-08
  81    -9.597951172536e-08
  82    -6.6038066195095e-07
  83    -3.032907432179e-07
  84    -2.1163490017091e-06
  85    1.1277913967683e-05
  86    -4.2305455707276e-07
  87    -1.2716878679206e-07
  88    -8.2519574472727e-07
  89    -5.828648466133e-06
  90    9.3964145039539e-06
  91    -3.9416492460647e-07
  92    1.2813214692207e-07
  93    5.2779725696177e-07
  94    -9.884473911672e-07
  95    3.4446959729118e-07
  96    6.6352909290597e-09
  97    -1.4702044300984e-06
  98    -7.9088572990872e-07
  99    3.8465666838649e-07
 100    1.7169568255022e-06
 101    7.1272860461915e-07
 102    3.1147575245289e-06
 103    -9.1140874119803e-05
 104    1.1404869645784e-06
 105    -1.5509000358716e-07
 106    2.4356572757963e-06
 107    3.6931457284819e-05
 108    -3.7095304978215e-05
 109    5.3996715465283e-06
 110    -7.4156816252407e-07
 111    -1.1554680115636e-06
 112    5.0990111184688e-07
 113    3.8491481038002e-07
 114    1.7444466004067e-06
 115    -3.3456128549326e-07
 116    -3.8323749670459e-06
 117    4.2463021932487e-06
 118    5.5002415817461e-07
 119    -2.0865862950381e-06
 120    1.5205334284784e-06
 121    -3.9615102530406e-06
 122    1.337569323429e-05
 123    -1.6201933214814e-05
 124    -5.8002767544633e-07
 125    5.3841545576755e-07
 126    7.8921328840716e-07
 127    2.3464085002211e-07
 128    1.8099012316189e-07
 129    -2.5404379906093e-07
 130    -2.1451756365265e-06
 131    -4.9398553594679e-05
 132    -5.7740873662838e-06
 133    -1.1515300298859e-06
 134    3.4213837763777e-06
 135    0.0001208445109511
 136    -1.2859644651464e-05
 137    3.7220013690121e-05
 138    -1.2936321734019e-06
 139    -9.9420977271271e-07
 140    -2.7624344246639e-06
 141    3.4310302663384e-07
 142    -1.8485617139952e-06
 143    -4.9519328211981e-08
 144    1.6336499406848e-06
 145    3.954654664324e-05
 146    3.3537640985956e-07
 147    1.0962576507257e-06
 148    -5.0924848485793e-06
 149    1.2351308166878e-05
 150    -3.5698435508536e-05
 151    1.5369597112663e-05
 152    1.1341045170888e-06
 153    -2.5030191827737e-07
 154    2.0752438895562e-06
 155    7.4132262715331e-08
 156    1.0083017904845e-06
 157    -6.5072143355513e-07
 158    -5.2762059781419e-06
 159    3.0077934517677e-05
 160    -5.5259214928737e-07
 161    -7.2615947342112e-07
 162    9.1346407215974e-07
 163    1.0872493217575e-05
 164    -1.1568330848161e-05
 165    -1.7383082133779e-06
 166    -1.0478940387301e-06
 167    2.4696817346993e-07
 168    -2.2462733830598e-07
 169    -4.2363705774736e-07
 170    -8.0871318913715e-07
 171    -6.5960358909077e-08
 172    -2.8049632279467e-07
 173    -3.2748315331131e-06
 174    2.2092176429247e-07
 175    2.2179834931251e-07
 176    -1.553929599841e-06
 177    -1.1946576567376e-05
 178    -4.0731186594182e-06
 179    -4.8963521121595e-06
 180    2.9099110141787e-07
 181    -1.41425727747e-06
 182    4.5284998729467e-08
 183    -6.985953111843e-07
 184    -1.0784332840232e-06
 185    7.4398857035223e-07
 186    6.3157292531784e-06
 187    -2.8765574590936e-05
 188    1.2122264767139e-06
 189    6.8637840125748e-08
 190    6.5315674961479e-08
 191    -1.6373208856422e-07
 192    9.394286877115e-06
 193    1.4507742395046e-05
 194    -6.7251116690055e-07
 195    -7.8861673416539e-07
 196    -1.4931482237908e-06
 197    4.944802184856e-07
 198    -3.5789855157416e-07
 199    1.922013090173e-06
 200    -1.1342451398064e-06
 201    3.7930687249847e-07
 202    -2.0048152572474e-06
 203    1.3064817240737e-06
 204    7.8881325340619e-06
 205    -3.0196796493508e-06
 206    -6.9898079229159e-07
 207    -3.498313710312e-07
 208    -1.2463638093484e-05
 209    -2.3925510459601e-06
 210    4.6993799163247e-07
 211    -1.8355065664279e-06
 212    -3.874784430272e-06
 213    -5.3098162597124e-07
 214    3.6375307288618e-06
 215    2.8410902914971e-06
 216    -1.7260679058002e-05
 217    -8.23711336417e-07
 218    -2.5702405906484e-07
 219    -7.7656140524684e-07
 220    2.1242337038522e-06
 221    3.7215812900631e-06
 222    2.3708523336914e-05
 223    -0.00025534586672394
 224    -5.9871928876086e-06
 225    -6.5443592238213e-07
 226    -6.7454934853803e-07
 227    -4.7909082522734e-05
 228    -5.5809825098475e-05
 229    0.00027964175892702
 230    -5.7291993476008e-06
 231    9.2999991203059e-06
 232    6.7613424250636e-06
 233    -3.2995216173494e-06
 234    -2.8223778540561e-06
 235    -7.225099030294e-06
 236    -4.0556840600303e-05
 237    0.00073006643958543
 238    4.839668464474e-06
 239    5.8295652305923e-06
 240    -1.9156563777358e-05
 241    -0.00023097058512058
 242    -5.1851537217969e-05
 243    -8.7446989639946e-05
 244    1.9263939407798e-05
 245    -4.098381513579e-06
 246    -6.8778838406402e-06
 247    1.3114335389191e-06
 248    2.8254777982696e-06
 249    1.0897349684515e-05
 250    1.8088135354037e-05
 251    8.6801993658339e-06
 252    5.4673073726615e-05
 253    -0.0010751485668039
 254    1.2001882584254e-05
 255    -7.5489651804715e-06
 256    3.293872487404e-05
 257    -0.0004754904038574
 258    -8.7837895855186e-05
 259    -8.5722541998033e-05
 260    -1.8976074940203e-05
 261    6.1426148061967e-06
 262    8.0234954004064e-06
 263    -6.3568203475305e-06
 264    -3.2590847171759e-06
 265    9.7015916896504e-06
 266    3.8339700928653e-06
 267    -2.5989647645354e-05
 268    -7.0743784689793e-05
 269    -5.0338969623678e-05
 270    -0.00012237507157985
 271     0.003072510576891
 272    -0.00015113472885379
 273    -5.7611245393539e-05
 274    -6.9604796238664e-05
 275    0.0013741978686808
 276    0.00093259154321705
 277    -0.0036165507492335
 278    0.0003546678970315
 279    -5.247372270858e-05
 280    -6.822439887945e-05