[Molden Format]
made by pyscf v[2.0.1]
[Atoms] (AU)
C   1   6     0.69100024066471     0.64692934207205    -3.48223131169301
H   2   1     2.68052439830868     1.13355088658700    -3.25784032593313
C   3   6    -0.36286361513219     0.85440132524594    -5.97030179418974
H   4   1    -2.35448549047279     0.36322488579172    -6.17995817793143
C   5   6     0.93697958957450     1.61209284601821    -8.05828437677121
H   6   1     0.88481995546627     3.59633991549139    -8.60690604548455
C   7   6     2.39466048338875    -0.07229584893402    -9.60563204708460
H   8   1     2.43004158789144    -2.05446799383120    -9.03164251308345
H   9   1     1.55630230933075    -1.92953025305990    12.99630010416247
C   10   6     0.75233899775814    -2.21270439606481    11.10705728102219
H   11   1    -0.43433408177274    -3.90944857546550    11.22216085340412
C   12   6     2.86362581178706    -2.63237380607947     9.17926416456045
H   13   1     4.39038949912609    -1.24955421540245     9.49899813497433
H   14   1     3.74629220191363    -4.48798724300892     9.47414880959024
C   15   6     2.02478325613682    -2.42177285709634     6.44560829588644
C   16   6     3.88048732735477    -3.58795445234514     4.61402886975252
C   17   6    -0.18412382258602    -1.30464291234259     5.76021113872346
C   18   6    -2.10044360464350    -0.26837831858460     7.71610340967100
C   19   6    -3.08956938670431     2.35282328359417     6.88693925039594
C   20   6    -4.37372924086464    -2.09766595989678     7.93610724222001
C   21   6    -0.83850430601230     0.06372213486173    10.33002307638377
H   22   1     0.38411922151109     1.74281358582432    10.27380136542181
H   23   1    -2.30980003007874     0.45460143924521    11.73986301809809
H   24   1     4.58527064644668    -5.38706904487420     5.36778158031719
H   25   1     5.54944938085014    -2.37631462192748     4.35398898413318
H   26   1     3.06633019150423    -3.94118377050688     2.75255466040884
H   27   1    -4.17727778763735     2.26573369139522     5.12914900961283
H   28   1    -1.52662344944051     3.68001877445626     6.59540397144508
H   29   1    -4.32916174397830     3.13643051467482     8.35225460090378
H   30   1    -5.32329548508442    -2.36691813602939     6.11583672749896
H   31   1    -5.77989366602257    -1.33896741843465     9.25748940450990
H   32   1    -3.79310905208926    -3.96389819310853     8.61386170102686
C   33   6    -1.01100794811226    -1.06331657314144     3.11929490449947
C   34   6     0.37686231036534    -0.33275864505552     1.09165013605873
H   35   1    -3.01671213906703    -1.40297922279997     2.77827895090944
C   36   6    -0.64382707979370    -0.11591880174385    -1.42063131251064
H   37   1     2.35569259782137     0.17174499283897     1.33641070251401
H   38   1    -2.63317482980319    -0.60229203511219    -1.66119700387645
C   39   6     3.71533383510959     0.59576232705089   -11.69997054074953
C   40   6     5.14333780052268    -1.26490852400141   -13.15108433486960
H   41   1     3.75910290759049     2.53760054456126   -12.37459410036833
O   42   8     6.36836167706676    -0.79692659131490   -15.04874962161569
H   43   1     5.04579305514285    -3.22830651971947   -12.39231411193817
[GTO]
1 0
 s    6 1.00
             3047.5249  0.0018347001629433
             457.36951    0.01403730124668
             103.94869   0.068842606114048
             29.210155    0.23218442062076
              9.286663    0.46794134155879
              3.163927    0.36231203217765
 s    3 1.00
             7.8682724   -0.11933240861517
             1.8812885   -0.16085421161283
             0.5442493     1.1434564825515
 s    1 1.00
             0.1687144                   1
 p    3 1.00
             7.8682724   0.068999095584993
             1.8812885    0.31642397975315
             0.5442493    0.74430825237435
 p    1 1.00
             0.1687144                   1
 d    1 1.00
                   0.8                   1

2 0
 s    3 1.00
             18.731137    0.03349459952309
             2.8253937    0.23472694665786
             0.6401217    0.81375731841339
 s    1 1.00
             0.1612778                   1

3 0
 s    6 1.00
             3047.5249  0.0018347001629433
             457.36951    0.01403730124668
             103.94869   0.068842606114048
             29.210155    0.23218442062076
              9.286663    0.46794134155879
              3.163927    0.36231203217765
 s    3 1.00
             7.8682724   -0.11933240861517
             1.8812885   -0.16085421161283
             0.5442493     1.1434564825515
 s    1 1.00
             0.1687144                   1
 p    3 1.00
             7.8682724   0.068999095584993
             1.8812885    0.31642397975315
             0.5442493    0.74430825237435
 p    1 1.00
             0.1687144                   1
 d    1 1.00
                   0.8                   1

4 0
 s    3 1.00
             18.731137    0.03349459952309
             2.8253937    0.23472694665786
             0.6401217    0.81375731841339
 s    1 1.00
             0.1612778                   1

5 0
 s    6 1.00
             3047.5249  0.0018347001629433
             457.36951    0.01403730124668
             103.94869   0.068842606114048
             29.210155    0.23218442062076
              9.286663    0.46794134155879
              3.163927    0.36231203217765
 s    3 1.00
             7.8682724   -0.11933240861517
             1.8812885   -0.16085421161283
             0.5442493     1.1434564825515
 s    1 1.00
             0.1687144                   1
 p    3 1.00
             7.8682724   0.068999095584993
             1.8812885    0.31642397975315
             0.5442493    0.74430825237435
 p    1 1.00
             0.1687144                   1
 d    1 1.00
                   0.8                   1

6 0
 s    3 1.00
             18.731137    0.03349459952309
             2.8253937    0.23472694665786
             0.6401217    0.81375731841339
 s    1 1.00
             0.1612778                   1

7 0
 s    6 1.00
             3047.5249  0.0018347001629433
             457.36951    0.01403730124668
             103.94869   0.068842606114048
             29.210155    0.23218442062076
              9.286663    0.46794134155879
              3.163927    0.36231203217765
 s    3 1.00
             7.8682724   -0.11933240861517
             1.8812885   -0.16085421161283
             0.5442493     1.1434564825515
 s    1 1.00
             0.1687144                   1
 p    3 1.00
             7.8682724   0.068999095584993
             1.8812885    0.31642397975315
             0.5442493    0.74430825237435
 p    1 1.00
             0.1687144                   1
 d    1 1.00
                   0.8                   1

8 0
 s    3 1.00
             18.731137    0.03349459952309
             2.8253937    0.23472694665786
             0.6401217    0.81375731841339
 s    1 1.00
             0.1612778                   1

9 0
 s    3 1.00
             18.731137    0.03349459952309
             2.8253937    0.23472694665786
             0.6401217    0.81375731841339
 s    1 1.00
             0.1612778                   1

10 0
 s    6 1.00
             3047.5249  0.0018347001629433
             457.36951    0.01403730124668
             103.94869   0.068842606114048
             29.210155    0.23218442062076
              9.286663    0.46794134155879
              3.163927    0.36231203217765
 s    3 1.00
             7.8682724   -0.11933240861517
             1.8812885   -0.16085421161283
             0.5442493     1.1434564825515
 s    1 1.00
             0.1687144                   1
 p    3 1.00
             7.8682724   0.068999095584993
             1.8812885    0.31642397975315
             0.5442493    0.74430825237435
 p    1 1.00
             0.1687144                   1
 d    1 1.00
                   0.8                   1

11 0
 s    3 1.00
             18.731137    0.03349459952309
             2.8253937    0.23472694665786
             0.6401217    0.81375731841339
 s    1 1.00
             0.1612778                   1

12 0
 s    6 1.00
             3047.5249  0.0018347001629433
             457.36951    0.01403730124668
             103.94869   0.068842606114048
             29.210155    0.23218442062076
              9.286663    0.46794134155879
              3.163927    0.36231203217765
 s    3 1.00
             7.8682724   -0.11933240861517
             1.8812885   -0.16085421161283
             0.5442493     1.1434564825515
 s    1 1.00
             0.1687144                   1
 p    3 1.00
             7.8682724   0.068999095584993
             1.8812885    0.31642397975315
             0.5442493    0.74430825237435
 p    1 1.00
             0.1687144                   1
 d    1 1.00
                   0.8                   1

13 0
 s    3 1.00
             18.731137    0.03349459952309
             2.8253937    0.23472694665786
             0.6401217    0.81375731841339
 s    1 1.00
             0.1612778                   1

14 0
 s    3 1.00
             18.731137    0.03349459952309
             2.8253937    0.23472694665786
             0.6401217    0.81375731841339
 s    1 1.00
             0.1612778                   1

15 0
 s    6 1.00
             3047.5249  0.0018347001629433
             457.36951    0.01403730124668
             103.94869   0.068842606114048
             29.210155    0.23218442062076
              9.286663    0.46794134155879
              3.163927    0.36231203217765
 s    3 1.00
             7.8682724   -0.11933240861517
             1.8812885   -0.16085421161283
             0.5442493     1.1434564825515
 s    1 1.00
             0.1687144                   1
 p    3 1.00
             7.8682724   0.068999095584993
             1.8812885    0.31642397975315
             0.5442493    0.74430825237435
 p    1 1.00
             0.1687144                   1
 d    1 1.00
                   0.8                   1

16 0
 s    6 1.00
             3047.5249  0.0018347001629433
             457.36951    0.01403730124668
             103.94869   0.068842606114048
             29.210155    0.23218442062076
              9.286663    0.46794134155879
              3.163927    0.36231203217765
 s    3 1.00
             7.8682724   -0.11933240861517
             1.8812885   -0.16085421161283
             0.5442493     1.1434564825515
 s    1 1.00
             0.1687144                   1
 p    3 1.00
             7.8682724   0.068999095584993
             1.8812885    0.31642397975315
             0.5442493    0.74430825237435
 p    1 1.00
             0.1687144                   1
 d    1 1.00
                   0.8                   1

17 0
 s    6 1.00
             3047.5249  0.0018347001629433
             457.36951    0.01403730124668
             103.94869   0.068842606114048
             29.210155    0.23218442062076
              9.286663    0.46794134155879
              3.163927    0.36231203217765
 s    3 1.00
             7.8682724   -0.11933240861517
             1.8812885   -0.16085421161283
             0.5442493     1.1434564825515
 s    1 1.00
             0.1687144                   1
 p    3 1.00
             7.8682724   0.068999095584993
             1.8812885    0.31642397975315
             0.5442493    0.74430825237435
 p    1 1.00
             0.1687144                   1
 d    1 1.00
                   0.8                   1

18 0
 s    6 1.00
             3047.5249  0.0018347001629433
             457.36951    0.01403730124668
             103.94869   0.068842606114048
             29.210155    0.23218442062076
              9.286663    0.46794134155879
              3.163927    0.36231203217765
 s    3 1.00
             7.8682724   -0.11933240861517
             1.8812885   -0.16085421161283
             0.5442493     1.1434564825515
 s    1 1.00
             0.1687144                   1
 p    3 1.00
             7.8682724   0.068999095584993
             1.8812885    0.31642397975315
             0.5442493    0.74430825237435
 p    1 1.00
             0.1687144                   1
 d    1 1.00
                   0.8                   1

19 0
 s    6 1.00
             3047.5249  0.0018347001629433
             457.36951    0.01403730124668
             103.94869   0.068842606114048
             29.210155    0.23218442062076
              9.286663    0.46794134155879
              3.163927    0.36231203217765
 s    3 1.00
             7.8682724   -0.11933240861517
             1.8812885   -0.16085421161283
             0.5442493     1.1434564825515
 s    1 1.00
             0.1687144                   1
 p    3 1.00
             7.8682724   0.068999095584993
             1.8812885    0.31642397975315
             0.5442493    0.74430825237435
 p    1 1.00
             0.1687144                   1
 d    1 1.00
                   0.8                   1

20 0
 s    6 1.00
             3047.5249  0.0018347001629433
             457.36951    0.01403730124668
             103.94869   0.068842606114048
             29.210155    0.23218442062076
              9.286663    0.46794134155879
              3.163927    0.36231203217765
 s    3 1.00
             7.8682724   -0.11933240861517
             1.8812885   -0.16085421161283
             0.5442493     1.1434564825515
 s    1 1.00
             0.1687144                   1
 p    3 1.00
             7.8682724   0.068999095584993
             1.8812885    0.31642397975315
             0.5442493    0.74430825237435
 p    1 1.00
             0.1687144                   1
 d    1 1.00
                   0.8                   1

21 0
 s    6 1.00
             3047.5249  0.0018347001629433
             457.36951    0.01403730124668
             103.94869   0.068842606114048
             29.210155    0.23218442062076
              9.286663    0.46794134155879
              3.163927    0.36231203217765
 s    3 1.00
             7.8682724   -0.11933240861517
             1.8812885   -0.16085421161283
             0.5442493     1.1434564825515
 s    1 1.00
             0.1687144                   1
 p    3 1.00
             7.8682724   0.068999095584993
             1.8812885    0.31642397975315
             0.5442493    0.74430825237435
 p    1 1.00
             0.1687144                   1
 d    1 1.00
                   0.8                   1

22 0
 s    3 1.00
             18.731137    0.03349459952309
             2.8253937    0.23472694665786
             0.6401217    0.81375731841339
 s    1 1.00
             0.1612778                   1

23 0
 s    3 1.00
             18.731137    0.03349459952309
             2.8253937    0.23472694665786
             0.6401217    0.81375731841339
 s    1 1.00
             0.1612778                   1

24 0
 s    3 1.00
             18.731137    0.03349459952309
             2.8253937    0.23472694665786
             0.6401217    0.81375731841339
 s    1 1.00
             0.1612778                   1

25 0
 s    3 1.00
             18.731137    0.03349459952309
             2.8253937    0.23472694665786
             0.6401217    0.81375731841339
 s    1 1.00
             0.1612778                   1

26 0
 s    3 1.00
             18.731137    0.03349459952309
             2.8253937    0.23472694665786
             0.6401217    0.81375731841339
 s    1 1.00
             0.1612778                   1

27 0
 s    3 1.00
             18.731137    0.03349459952309
             2.8253937    0.23472694665786
             0.6401217    0.81375731841339
 s    1 1.00
             0.1612778                   1

28 0
 s    3 1.00
             18.731137    0.03349459952309
             2.8253937    0.23472694665786
             0.6401217    0.81375731841339
 s    1 1.00
             0.1612778                   1

29 0
 s    3 1.00
             18.731137    0.03349459952309
             2.8253937    0.23472694665786
             0.6401217    0.81375731841339
 s    1 1.00
             0.1612778                   1

30 0
 s    3 1.00
             18.731137    0.03349459952309
             2.8253937    0.23472694665786
             0.6401217    0.81375731841339
 s    1 1.00
             0.1612778                   1

31 0
 s    3 1.00
             18.731137    0.03349459952309
             2.8253937    0.23472694665786
             0.6401217    0.81375731841339
 s    1 1.00
             0.1612778                   1

32 0
 s    3 1.00
             18.731137    0.03349459952309
             2.8253937    0.23472694665786
             0.6401217    0.81375731841339
 s    1 1.00
             0.1612778                   1

33 0
 s    6 1.00
             3047.5249  0.0018347001629433
             457.36951    0.01403730124668
             103.94869   0.068842606114048
             29.210155    0.23218442062076
              9.286663    0.46794134155879
              3.163927    0.36231203217765
 s    3 1.00
             7.8682724   -0.11933240861517
             1.8812885   -0.16085421161283
             0.5442493     1.1434564825515
 s    1 1.00
             0.1687144                   1
 p    3 1.00
             7.8682724   0.068999095584993
             1.8812885    0.31642397975315
             0.5442493    0.74430825237435
 p    1 1.00
             0.1687144                   1
 d    1 1.00
                   0.8                   1

34 0
 s    6 1.00
             3047.5249  0.0018347001629433
             457.36951    0.01403730124668
             103.94869   0.068842606114048
             29.210155    0.23218442062076
              9.286663    0.46794134155879
              3.163927    0.36231203217765
 s    3 1.00
             7.8682724   -0.11933240861517
             1.8812885   -0.16085421161283
             0.5442493     1.1434564825515
 s    1 1.00
             0.1687144                   1
 p    3 1.00
             7.8682724   0.068999095584993
             1.8812885    0.31642397975315
             0.5442493    0.74430825237435
 p    1 1.00
             0.1687144                   1
 d    1 1.00
                   0.8                   1

35 0
 s    3 1.00
             18.731137    0.03349459952309
             2.8253937    0.23472694665786
             0.6401217    0.81375731841339
 s    1 1.00
             0.1612778                   1

36 0
 s    6 1.00
             3047.5249  0.0018347001629433
             457.36951    0.01403730124668
             103.94869   0.068842606114048
             29.210155    0.23218442062076
              9.286663    0.46794134155879
              3.163927    0.36231203217765
 s    3 1.00
             7.8682724   -0.11933240861517
             1.8812885   -0.16085421161283
             0.5442493     1.1434564825515
 s    1 1.00
             0.1687144                   1
 p    3 1.00
             7.8682724   0.068999095584993
             1.8812885    0.31642397975315
             0.5442493    0.74430825237435
 p    1 1.00
             0.1687144                   1
 d    1 1.00
                   0.8                   1

37 0
 s    3 1.00
             18.731137    0.03349459952309
             2.8253937    0.23472694665786
             0.6401217    0.81375731841339
 s    1 1.00
             0.1612778                   1

38 0
 s    3 1.00
             18.731137    0.03349459952309
             2.8253937    0.23472694665786
             0.6401217    0.81375731841339
 s    1 1.00
             0.1612778                   1

39 0
 s    6 1.00
             3047.5249  0.0018347001629433
             457.36951    0.01403730124668
             103.94869   0.068842606114048
             29.210155    0.23218442062076
              9.286663    0.46794134155879
              3.163927    0.36231203217765
 s    3 1.00
             7.8682724   -0.11933240861517
             1.8812885   -0.16085421161283
             0.5442493     1.1434564825515
 s    1 1.00
             0.1687144                   1
 p    3 1.00
             7.8682724   0.068999095584993
             1.8812885    0.31642397975315
             0.5442493    0.74430825237435
 p    1 1.00
             0.1687144                   1
 d    1 1.00
                   0.8                   1

40 0
 s    6 1.00
             3047.5249  0.0018347001629433
             457.36951    0.01403730124668
             103.94869   0.068842606114048
             29.210155    0.23218442062076
              9.286663    0.46794134155879
              3.163927    0.36231203217765
 s    3 1.00
             7.8682724   -0.11933240861517
             1.8812885   -0.16085421161283
             0.5442493     1.1434564825515
 s    1 1.00
             0.1687144                   1
 p    3 1.00
             7.8682724   0.068999095584993
             1.8812885    0.31642397975315
             0.5442493    0.74430825237435
 p    1 1.00
             0.1687144                   1
 d    1 1.00
                   0.8                   1

41 0
 s    3 1.00
             18.731137    0.03349459952309
             2.8253937    0.23472694665786
             0.6401217    0.81375731841339
 s    1 1.00
             0.1612778                   1

42 0
 s    6 1.00
             5484.6717   0.001831099805527
             825.23495   0.013950098518422
             188.04696    0.06844509273075
               52.9645    0.23271427528445
              16.89757    0.47019295006289
             5.7996353    0.35852086192309
 s    3 1.00
             15.539616   -0.11077750382508
             3.5999336   -0.14802630511126
             1.0137618     1.1307670390447
 s    1 1.00
             0.2700058                   1
 p    3 1.00
             15.539616   0.070874299543311
             3.5999336    0.33975279781076
             1.0137618    0.72715859531445
 p    1 1.00
             0.2700058                   1
 d    1 1.00
                   0.8                   1

43 0
 s    3 1.00
             18.731137    0.03349459952309
             2.8253937    0.23472694665786
             0.6401217    0.81375731841339
 s    1 1.00
             0.1612778                   1

[5d]
[7f]
[9g]

[MO]
 Sym= A
 Ene=               0
 Spin= Alpha
 Occup=    1.00000
   1    -1.4262141276752e-06
   2    -1.4571422094429e-05
   3    -4.6947371906954e-05
   4    -3.9719729318834e-06
   5    -7.1791922717568e-06
   6    1.2195343360276e-05
   7    4.4992739960407e-05
   8    0.00012498602692227
   9    -0.00035866709486502
  10    -2.1943712950757e-07
  11    1.0195932286278e-05
  12    9.5681828862833e-07
  13    1.3623965245711e-05
  14    -7.7216240827953e-06
  15    -1.375455173632e-05
  16    1.1037866388984e-05
  17    6.8465965406569e-06
  18    0.00015718024961378
  19    0.00042915434430996
  20    5.5490956924784e-05
  21    -5.833653097515e-06
  22    -6.8506585585039e-05
  23    0.00019588115171257
  24    -0.00011153018209968
  25    -0.00055468035402239
  26    2.1107204790805e-05
  27    -2.3673047308707e-05
  28    1.3782675073752e-05
  29    4.0606939472298e-05
  30    2.7694198067569e-06
  31    -1.0653270035592e-05
  32    3.6849714430681e-05
  33    5.0922834691146e-05
  34    0.00034234578635196
  35    -0.0042803852236498
  36    -9.4356720842089e-05
  37    1.7453288387174e-05
  38    0.00014038987189276
  39    -0.00066652450374969
  40    0.0018536238168067
  41    0.0003892824161164
  42    -1.3062113980273e-05
  43    0.00010959085500951
  44    -5.5167614265973e-05
  45    1.7508248584055e-05
  46    6.6688064353208e-05
  47    -1.8162785117239e-05
  48    -0.00027352838703451
  49    4.6911292129374e-06
  50    0.00011678401535853
  51      0.00344525575229
  52    0.00019916698034046
  53    -0.00021698386484019
  54    -0.00021487079135746
  55    -0.001958292992436
  56    0.0024709048693256
  57    0.0020134199028038
  58    -3.870240676276e-05
  59    2.8899850128744e-05
  60    0.00018615944525835
  61    3.6510996254076e-05
  62    -0.00011599335956378
  63    0.00028355081831676
  64    7.7197443509445e-05
  65    -2.0202038782198e-07
  66    -2.9260828066517e-07
  67    -4.0146792614244e-08
  68    -5.6148698429218e-07
  69    2.709910898853e-06
  70    2.203894828962e-07
  71    -3.2635529325277e-07
  72    1.4403474401912e-07
  73    2.6071884436233e-07
  74    1.6322672785724e-06
  75    3.2093180899218e-09
  76    -5.90912911087e-08
  77    -1.216859806481e-07
  78    4.4565653232225e-08
  79    6.5044320909423e-08
  80    -1.0777117389417e-07
  81    9.5388257267668e-08
  82    1.9744602663842e-07
  83    1.589262726688e-08
  84    -2.5994097043383e-07
  85    -1.3973046859689e-05
  86    6.7027415441273e-07
  87    1.7639948917915e-08
  88    9.0958102243982e-07
  89    3.2783692717394e-06
  90    -4.5907864573043e-06
  91    3.5555232138565e-06
  92    1.7616610183992e-07
  93    -2.7621806773981e-07
  94    3.534521332158e-07
  95    5.6145197671067e-08
  96    -1.6597101589147e-07
  97    6.5458331640151e-07
  98    7.9000999178744e-07
  99    1.3909268209586e-08
 100    -1.0177031360296e-06
 101    -3.9474276965429e-08
 102    -7.2199543882992e-07
 103    1.156509013075e-05
 104    3.0404174681308e-07
 105    -9.4009154117683e-07
 106    -6.5515904418326e-07
 107    -1.9067995046315e-05
 108    1.7851361794047e-05
 109    3.2505195202149e-05
 110    -6.0144136107835e-07
 111    -5.7507746466152e-07
 112    2.4083067039539e-07
 113    2.7928939607887e-07
 114    -5.0695935765194e-07
 115    -4.8149535742801e-07
 116    -4.3994473737823e-06
 117    3.657045960305e-05
 118    -6.7778282730788e-07
 119    9.6215249230506e-07
 120    8.8123422618818e-07
 121    -8.8201705957181e-06
 122    1.6731374120323e-06
 123    3.2704362135102e-06
 124    -9.8962259354625e-08
 125    -2.6660448340663e-07
 126    -9.5830562168548e-08
 127    1.4438136986951e-07
 128    -3.8932180265285e-07
 129    -9.7353845180045e-07
 130    -8.7101313996713e-06
 131    5.4095105015072e-05
 132    1.4577371042959e-07
 133    -4.8034308080719e-08
 134    3.4095953123732e-06
 135    -2.2856130980825e-05
 136    -9.0170243400211e-07
 137    -8.4595972605668e-05
 138    2.5382348899481e-06
 139    1.6425644911298e-06
 140    2.1295531821406e-07
 141    4.3085856341438e-07
 142    2.4459110588412e-08
 143    -4.6783469676247e-07
 144    -4.3051376476808e-06
 145    2.2644920235212e-05
 146    1.9390445095306e-07
 147    4.0358068340844e-07
 148    3.7261986822958e-07
 149    1.3261050518916e-05
 150    -6.1625078000938e-06
 151    -3.6884833296348e-06
 152    -9.7833015821012e-07
 153    -4.0720687391614e-07
 154    -1.1599304151259e-07
 155    7.3115437437115e-07
 156    -7.9587948791922e-07
 157    1.0655859537798e-07
 158    8.5211296012887e-07
 159    1.1905804126139e-07
 160    6.7444596168814e-07
 161    -5.6382675377034e-08
 162    -1.3431073017537e-07
 163    -6.5462442350422e-06
 164    4.0119106161024e-07
 165    8.2744664854941e-07
 166    4.8477843704294e-07
 167    -2.149756249435e-07
 168    2.5263951542043e-08
 169    -1.1319261254392e-07
 170    3.1889039100504e-07
 171    2.2105262530407e-08
 172    -4.2207816734087e-07
 173    -1.2049473039888e-06
 174    -6.0414243686153e-07
 175    -1.6839175807239e-07
 176    7.3432462126016e-07
 177    -4.207174836725e-07
 178    1.8424524007085e-06
 179    -1.6036864969858e-06
 180    1.328311662396e-07
 181    2.0667736994573e-07
 182    5.405049897746e-08
 183    -3.8761726275293e-07
 184    1.7696739357759e-07
 185    -2.8776961208371e-07
 186    -2.9813952370846e-06
 187    1.5330566933507e-06
 188    -2.0152085378223e-07
 189    1.3830380876434e-07
 190    1.2031616719747e-06
 191    2.1702858517992e-06
 192    7.0532220255309e-07
 193    -5.206398577936e-06
 194    2.7721466587644e-07
 195    -4.5806860178179e-08
 196    2.0522784310553e-07
 197    1.0408225073736e-07
 198    -9.774358386754e-08
 199    -6.9950394944888e-07
 200    -1.1207658109555e-06
 201    5.3586832430279e-08
 202    3.3102861384558e-06
 203    -1.6117260997104e-06
 204    -1.607774125158e-06
 205    -3.276731556869e-07
 206    -2.3902936509187e-06
 207    9.4923459975448e-07
 208    -1.0468171819446e-05
 209    1.1316224776544e-06
 210    -4.389291644218e-06
 211    5.2916280024794e-07
 212    2.8525967941082e-06
 213    -2.3866898820937e-07
 214    -2.1255389268721e-06
 215    -4.5124539808094e-07
 216    5.9683350332954e-07
 217    2.4512315561145e-07
 218    7.041304534734e-07
 219    2.9187571112382e-07
 220    1.1407084131589e-06
 221    -6.9722792683272e-07
 222    -7.733914716154e-06
 223    -1.3215131526035e-05
 224    5.695873433698e-07
 225    -1.144614857274e-06
 226    3.8180368473034e-06
 227    8.3534323536254e-06
 228    2.732315760255e-05
 229    -9.6656933481836e-05
 230    -1.1721204709256e-06
 231    -4.1638265265029e-06
 232    -1.8413316220414e-06
 233    1.8397685035206e-06
 234    2.7258291888325e-06
 235    -9.7586327451755e-07
 236    -1.0349388068074e-05
 237    2.1528318706092e-05
 238    -7.2457097360839e-07
 239    2.9620777369001e-06
 240    4.1879435925996e-06
 241    -2.3012325746039e-05
 242    -7.4754348484669e-06
 243    -8.2705466271345e-05
 244    1.1933258187421e-06
 245    6.6030567587875e-06
 246    1.5799188791907e-06
 247    2.631896160118e-06
 248    1.1124855876376e-06
 249    -4.4368109253804e-06
 250    1.0359832515929e-05
 251    -4.0332650735727e-06
 252    -3.2975696085128e-05
 253    0.00027296911486599
 254    2.0979529565206e-06
 255    -8.532746006819e-06
 256    7.5755952999245e-06
 257    0.00011521306137946
 258    9.2648822423201e-05
 259    -0.00024849448122414
 260    2.7981879968663e-06
 261    -1.2346826604725e-05
 262    -4.9340122735443e-06
 263    8.1386547234571e-06
 264    4.714611077638e-06
 265    -3.9447519126817e-06
 266    2.7899629203766e-05
 267    -8.4799317090549e-06
 268    3.6468238981557e-05
 269    -5.1156078792518e-05
 270    -0.00012553642302558
 271    0.0030373050749493
 272    3.9155843477901e-05
 273    -0.00018220625213661
 274    2.0472928343575e-06
 275    0.0021108552102347
 276    0.00058045223342953
 277    -0.0031982666526839
 278    0.00018461593483105
 279    -0.00022167403369667
 280    0.00016320437621235