[Molden Format]
made by pyscf v[2.0.1]
[Atoms] (AU)
C   1   6     0.69100024066471     0.64692934207205    -3.48223131169301
H   2   1     2.68052439830868     1.13355088658700    -3.25784032593313
C   3   6    -0.36286361513219     0.85440132524594    -5.97030179418974
H   4   1    -2.35448549047279     0.36322488579172    -6.17995817793143
C   5   6     0.93697958957450     1.61209284601821    -8.05828437677121
H   6   1     1.03927160684768     3.62047501567417    -8.50199621914587
C   7   6     2.20035018302409    -0.10258413888539    -9.73758817852609
H   8   1     2.08224949102462    -2.10886499715255    -9.26789512642378
H   9   1     1.55630230933075    -1.92953025305990    12.99630010416247
C   10   6     0.75233899775814    -2.21270439606481    11.10705728102219
H   11   1    -0.43433408177274    -3.90944857546550    11.22216085340412
C   12   6     2.86362581178706    -2.63237380607947     9.17926416456045
H   13   1     4.39038949912609    -1.24955421540245     9.49899813497433
H   14   1     3.74629220191363    -4.48798724300892     9.47414880959024
C   15   6     2.02478325613682    -2.42177285709634     6.44560829588644
C   16   6     3.88048732735477    -3.58795445234514     4.61402886975252
C   17   6    -0.18412382258602    -1.30464291234259     5.76021113872346
C   18   6    -2.10044360464350    -0.26837831858460     7.71610340967100
C   19   6    -3.08956938670431     2.35282328359417     6.88693925039594
C   20   6    -4.37372924086464    -2.09766595989678     7.93610724222001
C   21   6    -0.83850430601230     0.06372213486173    10.33002307638377
H   22   1     0.38411922151109     1.74281358582432    10.27380136542181
H   23   1    -2.30980003007874     0.45460143924521    11.73986301809809
H   24   1     4.58527064644668    -5.38706904487420     5.36778158031719
H   25   1     5.54944938085014    -2.37631462192748     4.35398898413318
H   26   1     3.06633019150423    -3.94118377050688     2.75255466040884
H   27   1    -4.17727778763735     2.26573369139522     5.12914900961283
H   28   1    -1.52662344944051     3.68001877445626     6.59540397144508
H   29   1    -4.32916174397830     3.13643051467482     8.35225460090378
H   30   1    -5.32329548508442    -2.36691813602939     6.11583672749896
H   31   1    -5.77989366602257    -1.33896741843465     9.25748940450990
H   32   1    -3.79310905208926    -3.96389819310853     8.61386170102686
C   33   6    -1.01100794811226    -1.06331657314144     3.11929490449947
C   34   6     0.37686231036534    -0.33275864505552     1.09165013605873
H   35   1    -3.01671213906703    -1.40297922279997     2.77827895090944
C   36   6    -0.64382707979370    -0.11591880174385    -1.42063131251064
H   37   1     2.35569259782137     0.17174499283897     1.33641070251401
H   38   1    -2.63317482980319    -0.60229203511219    -1.66119700387645
C   39   6     3.51308281939799     0.56451683374771   -11.83721740116087
C   40   6     4.73454985947753    -1.32827425009098   -13.42856361339847
H   41   1     3.70368628307445     2.52946227119814   -12.41204614817202
O   42   8     5.94050384923934    -0.86285538356078   -15.33903067176323
H   43   1     4.49094488416901    -3.31470750932465   -12.76908014850535
[GTO]
1 0
 s    6 1.00
             3047.5249  0.0018347001629433
             457.36951    0.01403730124668
             103.94869   0.068842606114048
             29.210155    0.23218442062076
              9.286663    0.46794134155879
              3.163927    0.36231203217765
 s    3 1.00
             7.8682724   -0.11933240861517
             1.8812885   -0.16085421161283
             0.5442493     1.1434564825515
 s    1 1.00
             0.1687144                   1
 p    3 1.00
             7.8682724   0.068999095584993
             1.8812885    0.31642397975315
             0.5442493    0.74430825237435
 p    1 1.00
             0.1687144                   1
 d    1 1.00
                   0.8                   1

2 0
 s    3 1.00
             18.731137    0.03349459952309
             2.8253937    0.23472694665786
             0.6401217    0.81375731841339
 s    1 1.00
             0.1612778                   1

3 0
 s    6 1.00
             3047.5249  0.0018347001629433
             457.36951    0.01403730124668
             103.94869   0.068842606114048
             29.210155    0.23218442062076
              9.286663    0.46794134155879
              3.163927    0.36231203217765
 s    3 1.00
             7.8682724   -0.11933240861517
             1.8812885   -0.16085421161283
             0.5442493     1.1434564825515
 s    1 1.00
             0.1687144                   1
 p    3 1.00
             7.8682724   0.068999095584993
             1.8812885    0.31642397975315
             0.5442493    0.74430825237435
 p    1 1.00
             0.1687144                   1
 d    1 1.00
                   0.8                   1

4 0
 s    3 1.00
             18.731137    0.03349459952309
             2.8253937    0.23472694665786
             0.6401217    0.81375731841339
 s    1 1.00
             0.1612778                   1

5 0
 s    6 1.00
             3047.5249  0.0018347001629433
             457.36951    0.01403730124668
             103.94869   0.068842606114048
             29.210155    0.23218442062076
              9.286663    0.46794134155879
              3.163927    0.36231203217765
 s    3 1.00
             7.8682724   -0.11933240861517
             1.8812885   -0.16085421161283
             0.5442493     1.1434564825515
 s    1 1.00
             0.1687144                   1
 p    3 1.00
             7.8682724   0.068999095584993
             1.8812885    0.31642397975315
             0.5442493    0.74430825237435
 p    1 1.00
             0.1687144                   1
 d    1 1.00
                   0.8                   1

6 0
 s    3 1.00
             18.731137    0.03349459952309
             2.8253937    0.23472694665786
             0.6401217    0.81375731841339
 s    1 1.00
             0.1612778                   1

7 0
 s    6 1.00
             3047.5249  0.0018347001629433
             457.36951    0.01403730124668
             103.94869   0.068842606114048
             29.210155    0.23218442062076
              9.286663    0.46794134155879
              3.163927    0.36231203217765
 s    3 1.00
             7.8682724   -0.11933240861517
             1.8812885   -0.16085421161283
             0.5442493     1.1434564825515
 s    1 1.00
             0.1687144                   1
 p    3 1.00
             7.8682724   0.068999095584993
             1.8812885    0.31642397975315
             0.5442493    0.74430825237435
 p    1 1.00
             0.1687144                   1
 d    1 1.00
                   0.8                   1

8 0
 s    3 1.00
             18.731137    0.03349459952309
             2.8253937    0.23472694665786
             0.6401217    0.81375731841339
 s    1 1.00
             0.1612778                   1

9 0
 s    3 1.00
             18.731137    0.03349459952309
             2.8253937    0.23472694665786
             0.6401217    0.81375731841339
 s    1 1.00
             0.1612778                   1

10 0
 s    6 1.00
             3047.5249  0.0018347001629433
             457.36951    0.01403730124668
             103.94869   0.068842606114048
             29.210155    0.23218442062076
              9.286663    0.46794134155879
              3.163927    0.36231203217765
 s    3 1.00
             7.8682724   -0.11933240861517
             1.8812885   -0.16085421161283
             0.5442493     1.1434564825515
 s    1 1.00
             0.1687144                   1
 p    3 1.00
             7.8682724   0.068999095584993
             1.8812885    0.31642397975315
             0.5442493    0.74430825237435
 p    1 1.00
             0.1687144                   1
 d    1 1.00
                   0.8                   1

11 0
 s    3 1.00
             18.731137    0.03349459952309
             2.8253937    0.23472694665786
             0.6401217    0.81375731841339
 s    1 1.00
             0.1612778                   1

12 0
 s    6 1.00
             3047.5249  0.0018347001629433
             457.36951    0.01403730124668
             103.94869   0.068842606114048
             29.210155    0.23218442062076
              9.286663    0.46794134155879
              3.163927    0.36231203217765
 s    3 1.00
             7.8682724   -0.11933240861517
             1.8812885   -0.16085421161283
             0.5442493     1.1434564825515
 s    1 1.00
             0.1687144                   1
 p    3 1.00
             7.8682724   0.068999095584993
             1.8812885    0.31642397975315
             0.5442493    0.74430825237435
 p    1 1.00
             0.1687144                   1
 d    1 1.00
                   0.8                   1

13 0
 s    3 1.00
             18.731137    0.03349459952309
             2.8253937    0.23472694665786
             0.6401217    0.81375731841339
 s    1 1.00
             0.1612778                   1

14 0
 s    3 1.00
             18.731137    0.03349459952309
             2.8253937    0.23472694665786
             0.6401217    0.81375731841339
 s    1 1.00
             0.1612778                   1

15 0
 s    6 1.00
             3047.5249  0.0018347001629433
             457.36951    0.01403730124668
             103.94869   0.068842606114048
             29.210155    0.23218442062076
              9.286663    0.46794134155879
              3.163927    0.36231203217765
 s    3 1.00
             7.8682724   -0.11933240861517
             1.8812885   -0.16085421161283
             0.5442493     1.1434564825515
 s    1 1.00
             0.1687144                   1
 p    3 1.00
             7.8682724   0.068999095584993
             1.8812885    0.31642397975315
             0.5442493    0.74430825237435
 p    1 1.00
             0.1687144                   1
 d    1 1.00
                   0.8                   1

16 0
 s    6 1.00
             3047.5249  0.0018347001629433
             457.36951    0.01403730124668
             103.94869   0.068842606114048
             29.210155    0.23218442062076
              9.286663    0.46794134155879
              3.163927    0.36231203217765
 s    3 1.00
             7.8682724   -0.11933240861517
             1.8812885   -0.16085421161283
             0.5442493     1.1434564825515
 s    1 1.00
             0.1687144                   1
 p    3 1.00
             7.8682724   0.068999095584993
             1.8812885    0.31642397975315
             0.5442493    0.74430825237435
 p    1 1.00
             0.1687144                   1
 d    1 1.00
                   0.8                   1

17 0
 s    6 1.00
             3047.5249  0.0018347001629433
             457.36951    0.01403730124668
             103.94869   0.068842606114048
             29.210155    0.23218442062076
              9.286663    0.46794134155879
              3.163927    0.36231203217765
 s    3 1.00
             7.8682724   -0.11933240861517
             1.8812885   -0.16085421161283
             0.5442493     1.1434564825515
 s    1 1.00
             0.1687144                   1
 p    3 1.00
             7.8682724   0.068999095584993
             1.8812885    0.31642397975315
             0.5442493    0.74430825237435
 p    1 1.00
             0.1687144                   1
 d    1 1.00
                   0.8                   1

18 0
 s    6 1.00
             3047.5249  0.0018347001629433
             457.36951    0.01403730124668
             103.94869   0.068842606114048
             29.210155    0.23218442062076
              9.286663    0.46794134155879
              3.163927    0.36231203217765
 s    3 1.00
             7.8682724   -0.11933240861517
             1.8812885   -0.16085421161283
             0.5442493     1.1434564825515
 s    1 1.00
             0.1687144                   1
 p    3 1.00
             7.8682724   0.068999095584993
             1.8812885    0.31642397975315
             0.5442493    0.74430825237435
 p    1 1.00
             0.1687144                   1
 d    1 1.00
                   0.8                   1

19 0
 s    6 1.00
             3047.5249  0.0018347001629433
             457.36951    0.01403730124668
             103.94869   0.068842606114048
             29.210155    0.23218442062076
              9.286663    0.46794134155879
              3.163927    0.36231203217765
 s    3 1.00
             7.8682724   -0.11933240861517
             1.8812885   -0.16085421161283
             0.5442493     1.1434564825515
 s    1 1.00
             0.1687144                   1
 p    3 1.00
             7.8682724   0.068999095584993
             1.8812885    0.31642397975315
             0.5442493    0.74430825237435
 p    1 1.00
             0.1687144                   1
 d    1 1.00
                   0.8                   1

20 0
 s    6 1.00
             3047.5249  0.0018347001629433
             457.36951    0.01403730124668
             103.94869   0.068842606114048
             29.210155    0.23218442062076
              9.286663    0.46794134155879
              3.163927    0.36231203217765
 s    3 1.00
             7.8682724   -0.11933240861517
             1.8812885   -0.16085421161283
             0.5442493     1.1434564825515
 s    1 1.00
             0.1687144                   1
 p    3 1.00
             7.8682724   0.068999095584993
             1.8812885    0.31642397975315
             0.5442493    0.74430825237435
 p    1 1.00
             0.1687144                   1
 d    1 1.00
                   0.8                   1

21 0
 s    6 1.00
             3047.5249  0.0018347001629433
             457.36951    0.01403730124668
             103.94869   0.068842606114048
             29.210155    0.23218442062076
              9.286663    0.46794134155879
              3.163927    0.36231203217765
 s    3 1.00
             7.8682724   -0.11933240861517
             1.8812885   -0.16085421161283
             0.5442493     1.1434564825515
 s    1 1.00
             0.1687144                   1
 p    3 1.00
             7.8682724   0.068999095584993
             1.8812885    0.31642397975315
             0.5442493    0.74430825237435
 p    1 1.00
             0.1687144                   1
 d    1 1.00
                   0.8                   1

22 0
 s    3 1.00
             18.731137    0.03349459952309
             2.8253937    0.23472694665786
             0.6401217    0.81375731841339
 s    1 1.00
             0.1612778                   1

23 0
 s    3 1.00
             18.731137    0.03349459952309
             2.8253937    0.23472694665786
             0.6401217    0.81375731841339
 s    1 1.00
             0.1612778                   1

24 0
 s    3 1.00
             18.731137    0.03349459952309
             2.8253937    0.23472694665786
             0.6401217    0.81375731841339
 s    1 1.00
             0.1612778                   1

25 0
 s    3 1.00
             18.731137    0.03349459952309
             2.8253937    0.23472694665786
             0.6401217    0.81375731841339
 s    1 1.00
             0.1612778                   1

26 0
 s    3 1.00
             18.731137    0.03349459952309
             2.8253937    0.23472694665786
             0.6401217    0.81375731841339
 s    1 1.00
             0.1612778                   1

27 0
 s    3 1.00
             18.731137    0.03349459952309
             2.8253937    0.23472694665786
             0.6401217    0.81375731841339
 s    1 1.00
             0.1612778                   1

28 0
 s    3 1.00
             18.731137    0.03349459952309
             2.8253937    0.23472694665786
             0.6401217    0.81375731841339
 s    1 1.00
             0.1612778                   1

29 0
 s    3 1.00
             18.731137    0.03349459952309
             2.8253937    0.23472694665786
             0.6401217    0.81375731841339
 s    1 1.00
             0.1612778                   1

30 0
 s    3 1.00
             18.731137    0.03349459952309
             2.8253937    0.23472694665786
             0.6401217    0.81375731841339
 s    1 1.00
             0.1612778                   1

31 0
 s    3 1.00
             18.731137    0.03349459952309
             2.8253937    0.23472694665786
             0.6401217    0.81375731841339
 s    1 1.00
             0.1612778                   1

32 0
 s    3 1.00
             18.731137    0.03349459952309
             2.8253937    0.23472694665786
             0.6401217    0.81375731841339
 s    1 1.00
             0.1612778                   1

33 0
 s    6 1.00
             3047.5249  0.0018347001629433
             457.36951    0.01403730124668
             103.94869   0.068842606114048
             29.210155    0.23218442062076
              9.286663    0.46794134155879
              3.163927    0.36231203217765
 s    3 1.00
             7.8682724   -0.11933240861517
             1.8812885   -0.16085421161283
             0.5442493     1.1434564825515
 s    1 1.00
             0.1687144                   1
 p    3 1.00
             7.8682724   0.068999095584993
             1.8812885    0.31642397975315
             0.5442493    0.74430825237435
 p    1 1.00
             0.1687144                   1
 d    1 1.00
                   0.8                   1

34 0
 s    6 1.00
             3047.5249  0.0018347001629433
             457.36951    0.01403730124668
             103.94869   0.068842606114048
             29.210155    0.23218442062076
              9.286663    0.46794134155879
              3.163927    0.36231203217765
 s    3 1.00
             7.8682724   -0.11933240861517
             1.8812885   -0.16085421161283
             0.5442493     1.1434564825515
 s    1 1.00
             0.1687144                   1
 p    3 1.00
             7.8682724   0.068999095584993
             1.8812885    0.31642397975315
             0.5442493    0.74430825237435
 p    1 1.00
             0.1687144                   1
 d    1 1.00
                   0.8                   1

35 0
 s    3 1.00
             18.731137    0.03349459952309
             2.8253937    0.23472694665786
             0.6401217    0.81375731841339
 s    1 1.00
             0.1612778                   1

36 0
 s    6 1.00
             3047.5249  0.0018347001629433
             457.36951    0.01403730124668
             103.94869   0.068842606114048
             29.210155    0.23218442062076
              9.286663    0.46794134155879
              3.163927    0.36231203217765
 s    3 1.00
             7.8682724   -0.11933240861517
             1.8812885   -0.16085421161283
             0.5442493     1.1434564825515
 s    1 1.00
             0.1687144                   1
 p    3 1.00
             7.8682724   0.068999095584993
             1.8812885    0.31642397975315
             0.5442493    0.74430825237435
 p    1 1.00
             0.1687144                   1
 d    1 1.00
                   0.8                   1

37 0
 s    3 1.00
             18.731137    0.03349459952309
             2.8253937    0.23472694665786
             0.6401217    0.81375731841339
 s    1 1.00
             0.1612778                   1

38 0
 s    3 1.00
             18.731137    0.03349459952309
             2.8253937    0.23472694665786
             0.6401217    0.81375731841339
 s    1 1.00
             0.1612778                   1

39 0
 s    6 1.00
             3047.5249  0.0018347001629433
             457.36951    0.01403730124668
             103.94869   0.068842606114048
             29.210155    0.23218442062076
              9.286663    0.46794134155879
              3.163927    0.36231203217765
 s    3 1.00
             7.8682724   -0.11933240861517
             1.8812885   -0.16085421161283
             0.5442493     1.1434564825515
 s    1 1.00
             0.1687144                   1
 p    3 1.00
             7.8682724   0.068999095584993
             1.8812885    0.31642397975315
             0.5442493    0.74430825237435
 p    1 1.00
             0.1687144                   1
 d    1 1.00
                   0.8                   1

40 0
 s    6 1.00
             3047.5249  0.0018347001629433
             457.36951    0.01403730124668
             103.94869   0.068842606114048
             29.210155    0.23218442062076
              9.286663    0.46794134155879
              3.163927    0.36231203217765
 s    3 1.00
             7.8682724   -0.11933240861517
             1.8812885   -0.16085421161283
             0.5442493     1.1434564825515
 s    1 1.00
             0.1687144                   1
 p    3 1.00
             7.8682724   0.068999095584993
             1.8812885    0.31642397975315
             0.5442493    0.74430825237435
 p    1 1.00
             0.1687144                   1
 d    1 1.00
                   0.8                   1

41 0
 s    3 1.00
             18.731137    0.03349459952309
             2.8253937    0.23472694665786
             0.6401217    0.81375731841339
 s    1 1.00
             0.1612778                   1

42 0
 s    6 1.00
             5484.6717   0.001831099805527
             825.23495   0.013950098518422
             188.04696    0.06844509273075
               52.9645    0.23271427528445
              16.89757    0.47019295006289
             5.7996353    0.35852086192309
 s    3 1.00
             15.539616   -0.11077750382508
             3.5999336   -0.14802630511126
             1.0137618     1.1307670390447
 s    1 1.00
             0.2700058                   1
 p    3 1.00
             15.539616   0.070874299543311
             3.5999336    0.33975279781076
             1.0137618    0.72715859531445
 p    1 1.00
             0.2700058                   1
 d    1 1.00
                   0.8                   1

43 0
 s    3 1.00
             18.731137    0.03349459952309
             2.8253937    0.23472694665786
             0.6401217    0.81375731841339
 s    1 1.00
             0.1612778                   1

[5d]
[7f]
[9g]

[MO]
 Sym= A
 Ene=               0
 Spin= Alpha
 Occup=    1.00000
   1    1.7742107639076e-06
   2    1.8827002002366e-05
   3    -8.9356480811312e-06
   4    5.1453808051676e-06
   5    1.3320511677014e-06
   6    -1.3264468412217e-05
   7    -2.6304164056375e-05
   8    -9.7861123741147e-05
   9    0.0003683062282886
  10    -1.1589410851274e-07
  11    -1.1110439543248e-05
  12    -2.0668592250919e-06
  13    -1.3730573624476e-05
  14    7.6189527845683e-06
  15    1.4098770068677e-05
  16    -1.6455955224616e-05
  17    -7.1627660631768e-06
  18    -0.00015980505022492
  19     -0.00041219085457
  20    -5.3870851201011e-05
  21    8.3983920604589e-06
  22    6.939521972692e-05
  23    -0.00016414067911901
  24    9.6668708262619e-05
  25    0.0005988319025922
  26    -2.1320741012508e-05
  27    2.3088870960816e-05
  28    -1.0696636812754e-05
  29    -4.1600431947525e-05
  30    2.4532064623709e-06
  31    1.0718947632426e-05
  32    -2.9447796039436e-05
  33    -5.0867739510827e-05
  34    -0.00034175036882703
  35    0.0042880678891243
  36    8.8868237540729e-05
  37    -1.8690594467877e-05
  38    -0.00014394001224488
  39    0.00048283782259237
  40    -0.0018736880606525
  41    -0.00050165975395002
  42    2.3732802061712e-05
  43    -0.00010622734671046
  44    6.613570575421e-05
  45    -2.7786399503116e-05
  46    -5.4002898956323e-05
  47    1.7153316752529e-05
  48    0.00027123763956488
  49    -4.781396908168e-06
  50    -0.0001168999464227
  51    -0.0034367124430758
  52    -0.00017326787141712
  53    0.00022097853144912
  54    0.00023303020200131
  55    0.0016792292361282
  56    -0.0025104187098268
  57    -0.0022008660079207
  58    2.3493449459275e-05
  59    -3.6365745329006e-05
  60    -0.00018796198032919
  61    -2.753903870193e-05
  62    0.00011760160495591
  63    -0.000283364899474
  64    -7.6593423441668e-05
  65    2.1882201604312e-07
  66    2.9917114971776e-07
  67    4.1683304052944e-08
  68    5.647513019247e-07
  69    -2.8156370022487e-06
  70    -2.3478614815147e-07
  71    3.3446707715654e-07
  72    -1.2090918972725e-07
  73    -2.6232089624247e-07
  74    -1.6524821243785e-06
  75    -6.5488887678472e-08
  76    5.2929242977984e-08
  77    1.1977997161682e-07
  78    -4.8692000448581e-08
  79    -7.2197184126371e-08
  80    1.0186854733899e-07
  81    -8.9217027725697e-08
  82    -2.0354602890067e-07
  83    -2.2608584330222e-08
  84    1.7393234352554e-07
  85    1.318859788947e-05
  86    -6.1883333057734e-07
  87    -6.365611213685e-08
  88    -8.7765014977805e-07
  89    -3.3214851212698e-06
  90    4.7515563596473e-06
  91    -3.1760545546829e-06
  92    -1.6912615759564e-07
  93    2.7590166687532e-07
  94    -3.4899982287707e-07
  95    -3.8667600283511e-08
  96    1.5624171265327e-07
  97    -6.5386684948026e-07
  98    -8.4488531947277e-07
  99    3.0425504314206e-08
 100    1.0888832967727e-06
 101    6.958784613673e-08
 102    9.2173003290427e-07
 103    -1.4288835714935e-05
 104    -2.0267700130317e-07
 105    9.1738814186546e-07
 106    6.0878789658464e-07
 107    1.9161994916391e-05
 108    -1.7586174459609e-05
 109    -2.9736975517716e-05
 110    5.7576208935795e-07
 111    5.2187762955291e-07
 112    -2.2541670874197e-07
 113    -3.5064685046814e-07
 114    5.0804272215467e-07
 115    4.7534112444766e-07
 116    4.3902974038762e-06
 117    -3.5657311670879e-05
 118    6.5383051533195e-07
 119    -1.0081510707199e-06
 120    -8.3454835022317e-07
 121    8.1099050941218e-06
 122    -8.6621165881931e-07
 123    -2.5850227251159e-06
 124    6.9740318000952e-08
 125    2.2070447896318e-07
 126    1.3688244313347e-07
 127    -9.2396246690399e-08
 128    3.5067602799178e-07
 129    9.3156158927483e-07
 130    8.5362158955306e-06
 131    -4.9721103484068e-05
 132    -1.9820248999591e-07
 133    2.8729774127646e-07
 134    -3.3996881415788e-06
 135    2.4598083321675e-05
 136    -1.1183363797074e-06
 137    7.9175511236368e-05
 138    -2.4174184003103e-06
 139    -1.5201760749886e-06
 140    -2.5186523472546e-07
 141    -4.0633410224834e-07
 142    -8.623079902474e-08
 143    3.9801521483824e-07
 144    3.725258786737e-06
 145    -1.8604058704659e-05
 146    -2.4407641809243e-07
 147    -5.1264368475324e-07
 148    -3.9171921574817e-07
 149    -1.1372237048419e-05
 150    6.3975372343953e-06
 151    2.8220978116673e-06
 152    9.9054518565411e-07
 153    3.6545499691913e-07
 154    1.1673858291141e-07
 155    -7.019633937933e-07
 156    7.1979632781337e-07
 157    -1.0057131684707e-07
 158    -8.3885688709746e-07
 159    -6.540147825839e-07
 160    -7.0217661837962e-07
 161    1.0306475515572e-07
 162    7.9294386940811e-08
 163    6.1122785105303e-06
 164    -1.6487821635707e-07
 165    -8.0932399267512e-07
 166    -4.3693338790898e-07
 167    1.5673110941193e-07
 168    -1.3715817691848e-08
 169    1.0832623483383e-07
 170    -2.8090879218443e-07
 171    -2.5628949296775e-08
 172    3.9786016945521e-07
 173    1.6030355880765e-06
 174    6.316097261818e-07
 175    1.5319452688908e-07
 176    -7.5057979927746e-07
 177    3.2473370155464e-07
 178    -1.5804481509381e-06
 179    1.7441575312552e-06
 180    -1.4171442239468e-07
 181    -2.126287557825e-07
 182    -2.274437234614e-08
 183    3.7136821792922e-07
 184    -1.7792926360396e-07
 185    2.9108869544821e-07
 186    2.966716800424e-06
 187    -2.2140947449581e-06
 188    2.2658933939426e-07
 189    -1.2915471954057e-07
 190    -1.1205944878812e-06
 191    -2.2113629023101e-06
 192    -8.3069107130415e-07
 193    5.5373898496769e-06
 194    -3.1770905997609e-07
 195    3.5120123196931e-08
 196    -1.7430257305326e-07
 197    -7.8733042233664e-08
 198     8.64817784101e-08
 199    7.3304395073095e-07
 200    1.2163961348618e-06
 201    -5.9955690575817e-08
 202    -3.2373295498614e-06
 203    1.6463139374614e-06
 204    1.8625367752175e-06
 205    3.0281292041203e-07
 206    2.3202136628263e-06
 207    -1.223713306012e-06
 208    1.1697431577358e-05
 209    -1.0734665480033e-06
 210    4.1674449376032e-06
 211    -4.6609442110416e-07
 212    -2.7796484145112e-06
 213    2.1436303415455e-07
 214    2.1073783701971e-06
 215    4.9173650912019e-07
 216    -6.7716048176187e-07
 217    -2.849056514155e-07
 218    -8.0810336809206e-07
 219    -2.6364591366709e-07
 220    -1.0885226893321e-06
 221    7.5071945546801e-07
 222    8.1126171082768e-06
 223    4.7857454655778e-06
 224    -3.4649673050892e-07
 225    6.9562912298396e-07
 226    -3.5278267844424e-06
 227    -1.2576503401334e-05
 228    -2.6582665822464e-05
 229    9.352362217343e-05
 230    1.0634759951226e-06
 231    4.013176544358e-06
 232    1.9569269744231e-06
 233    -1.7973226598351e-06
 234    -2.7646227221051e-06
 235    1.065285584965e-06
 236    1.1034161278277e-05
 237    -2.1991818449179e-05
 238    9.4009518602278e-07
 239    -2.822836846855e-06
 240    -4.3065158827416e-06
 241    1.9831575871817e-05
 242    7.8993353677228e-06
 243    8.9062209483493e-05
 244    -1.5970968153813e-06
 245    -6.6834661966107e-06
 246    -2.0095291565849e-06
 247    -2.5526348343004e-06
 248    -1.5116899389825e-06
 249    3.9804436337254e-06
 250    -1.0638093536841e-05
 251    3.8021473536517e-06
 252    3.1334055874583e-05
 253    -0.00024558183385982
 254    -2.4984230279664e-06
 255    1.0046490303696e-05
 256    -7.5593394454878e-06
 257    -0.00010679370862297
 258    -9.9582332986119e-05
 259    0.00023471329063518
 260    -2.0313806816736e-06
 261    1.1842663136076e-05
 262    5.4966733318423e-06
 263    -7.4083676880376e-06
 264    -5.7650063412784e-06
 265    4.4717450648254e-06
 266    -2.7307892172253e-05
 267    8.2610358524265e-06
 268    -3.7924881694508e-05
 269    5.1188105468298e-05
 270    0.00012563586094467
 271    -0.0030401659782814
 272    -2.3802836518146e-05
 273    0.00018467615396016
 274    8.149186678373e-06
 275    -0.0020586604232747
 276    -0.00057310700106183
 277    0.0032327231972326
 278    -0.00021049816093538
 279    0.00020791121693121