[Molden Format]
made by pyscf v[2.0.1]
[Atoms] (AU)
C   1   6     0.69100024066471     0.64692934207205    -3.48223131169301
H   2   1     2.68052439830868     1.13355088658700    -3.25784032593313
C   3   6    -0.36286361513219     0.85440132524594    -5.97030179418974
H   4   1    -2.35448549047279     0.36322488579172    -6.17995817793143
C   5   6     0.93697958957450     1.61209284601821    -8.05828437677121
H   6   1     1.09182490265505     3.62435627880799    -8.46787148771875
C   7   6     2.13423629966321    -0.10744231105711    -9.78050935942977
H   8   1     1.96390963868834    -2.11762116447114    -9.34474333768613
H   9   1     1.55630230933075    -1.92953025305990    12.99630010416247
C   10   6     0.75233899775814    -2.21270439606481    11.10705728102219
H   11   1    -0.43433408177274    -3.90944857546550    11.22216085340412
C   12   6     2.86362581178706    -2.63237380607947     9.17926416456045
H   13   1     4.39038949912609    -1.24955421540245     9.49899813497433
H   14   1     3.74629220191363    -4.48798724300892     9.47414880959024
C   15   6     2.02478325613682    -2.42177285709634     6.44560829588644
C   16   6     3.88048732735477    -3.58795445234514     4.61402886975252
C   17   6    -0.18412382258602    -1.30464291234259     5.76021113872346
C   18   6    -2.10044360464350    -0.26837831858460     7.71610340967100
C   19   6    -3.08956938670431     2.35282328359417     6.88693925039594
C   20   6    -4.37372924086464    -2.09766595989678     7.93610724222001
C   21   6    -0.83850430601230     0.06372213486173    10.33002307638377
H   22   1     0.38411922151109     1.74281358582432    10.27380136542181
H   23   1    -2.30980003007874     0.45460143924521    11.73986301809809
H   24   1     4.58527064644668    -5.38706904487420     5.36778158031719
H   25   1     5.54944938085014    -2.37631462192748     4.35398898413318
H   26   1     3.06633019150423    -3.94118377050688     2.75255466040884
H   27   1    -4.17727778763735     2.26573369139522     5.12914900961283
H   28   1    -1.52662344944051     3.68001877445626     6.59540397144508
H   29   1    -4.32916174397830     3.13643051467482     8.35225460090378
H   30   1    -5.32329548508442    -2.36691813602939     6.11583672749896
H   31   1    -5.77989366602257    -1.33896741843465     9.25748940450990
H   32   1    -3.79310905208926    -3.96389819310853     8.61386170102686
C   33   6    -1.01100794811226    -1.06331657314144     3.11929490449947
C   34   6     0.37686231036534    -0.33275864505552     1.09165013605873
H   35   1    -3.01671213906703    -1.40297922279997     2.77827895090944
C   36   6    -0.64382707979370    -0.11591880174385    -1.42063131251064
H   37   1     2.35569259782137     0.17174499283897     1.33641070251401
H   38   1    -2.63317482980319    -0.60229203511219    -1.66119700387645
C   39   6     3.44427310754987     0.55955226130243   -11.88185544133447
C   40   6     4.59546774580895    -1.33837842065929   -13.51881378425706
H   41   1     3.68484150802705     2.52824088205540   -12.42422090941845
O   42   8     5.79494197127018    -0.87330187518197   -15.43343894779829
H   43   1     4.30216020100717    -3.32855150553013   -12.89162904717628
[GTO]
1 0
 s    6 1.00
             3047.5249  0.0018347001629433
             457.36951    0.01403730124668
             103.94869   0.068842606114048
             29.210155    0.23218442062076
              9.286663    0.46794134155879
              3.163927    0.36231203217765
 s    3 1.00
             7.8682724   -0.11933240861517
             1.8812885   -0.16085421161283
             0.5442493     1.1434564825515
 s    1 1.00
             0.1687144                   1
 p    3 1.00
             7.8682724   0.068999095584993
             1.8812885    0.31642397975315
             0.5442493    0.74430825237435
 p    1 1.00
             0.1687144                   1
 d    1 1.00
                   0.8                   1

2 0
 s    3 1.00
             18.731137    0.03349459952309
             2.8253937    0.23472694665786
             0.6401217    0.81375731841339
 s    1 1.00
             0.1612778                   1

3 0
 s    6 1.00
             3047.5249  0.0018347001629433
             457.36951    0.01403730124668
             103.94869   0.068842606114048
             29.210155    0.23218442062076
              9.286663    0.46794134155879
              3.163927    0.36231203217765
 s    3 1.00
             7.8682724   -0.11933240861517
             1.8812885   -0.16085421161283
             0.5442493     1.1434564825515
 s    1 1.00
             0.1687144                   1
 p    3 1.00
             7.8682724   0.068999095584993
             1.8812885    0.31642397975315
             0.5442493    0.74430825237435
 p    1 1.00
             0.1687144                   1
 d    1 1.00
                   0.8                   1

4 0
 s    3 1.00
             18.731137    0.03349459952309
             2.8253937    0.23472694665786
             0.6401217    0.81375731841339
 s    1 1.00
             0.1612778                   1

5 0
 s    6 1.00
             3047.5249  0.0018347001629433
             457.36951    0.01403730124668
             103.94869   0.068842606114048
             29.210155    0.23218442062076
              9.286663    0.46794134155879
              3.163927    0.36231203217765
 s    3 1.00
             7.8682724   -0.11933240861517
             1.8812885   -0.16085421161283
             0.5442493     1.1434564825515
 s    1 1.00
             0.1687144                   1
 p    3 1.00
             7.8682724   0.068999095584993
             1.8812885    0.31642397975315
             0.5442493    0.74430825237435
 p    1 1.00
             0.1687144                   1
 d    1 1.00
                   0.8                   1

6 0
 s    3 1.00
             18.731137    0.03349459952309
             2.8253937    0.23472694665786
             0.6401217    0.81375731841339
 s    1 1.00
             0.1612778                   1

7 0
 s    6 1.00
             3047.5249  0.0018347001629433
             457.36951    0.01403730124668
             103.94869   0.068842606114048
             29.210155    0.23218442062076
              9.286663    0.46794134155879
              3.163927    0.36231203217765
 s    3 1.00
             7.8682724   -0.11933240861517
             1.8812885   -0.16085421161283
             0.5442493     1.1434564825515
 s    1 1.00
             0.1687144                   1
 p    3 1.00
             7.8682724   0.068999095584993
             1.8812885    0.31642397975315
             0.5442493    0.74430825237435
 p    1 1.00
             0.1687144                   1
 d    1 1.00
                   0.8                   1

8 0
 s    3 1.00
             18.731137    0.03349459952309
             2.8253937    0.23472694665786
             0.6401217    0.81375731841339
 s    1 1.00
             0.1612778                   1

9 0
 s    3 1.00
             18.731137    0.03349459952309
             2.8253937    0.23472694665786
             0.6401217    0.81375731841339
 s    1 1.00
             0.1612778                   1

10 0
 s    6 1.00
             3047.5249  0.0018347001629433
             457.36951    0.01403730124668
             103.94869   0.068842606114048
             29.210155    0.23218442062076
              9.286663    0.46794134155879
              3.163927    0.36231203217765
 s    3 1.00
             7.8682724   -0.11933240861517
             1.8812885   -0.16085421161283
             0.5442493     1.1434564825515
 s    1 1.00
             0.1687144                   1
 p    3 1.00
             7.8682724   0.068999095584993
             1.8812885    0.31642397975315
             0.5442493    0.74430825237435
 p    1 1.00
             0.1687144                   1
 d    1 1.00
                   0.8                   1

11 0
 s    3 1.00
             18.731137    0.03349459952309
             2.8253937    0.23472694665786
             0.6401217    0.81375731841339
 s    1 1.00
             0.1612778                   1

12 0
 s    6 1.00
             3047.5249  0.0018347001629433
             457.36951    0.01403730124668
             103.94869   0.068842606114048
             29.210155    0.23218442062076
              9.286663    0.46794134155879
              3.163927    0.36231203217765
 s    3 1.00
             7.8682724   -0.11933240861517
             1.8812885   -0.16085421161283
             0.5442493     1.1434564825515
 s    1 1.00
             0.1687144                   1
 p    3 1.00
             7.8682724   0.068999095584993
             1.8812885    0.31642397975315
             0.5442493    0.74430825237435
 p    1 1.00
             0.1687144                   1
 d    1 1.00
                   0.8                   1

13 0
 s    3 1.00
             18.731137    0.03349459952309
             2.8253937    0.23472694665786
             0.6401217    0.81375731841339
 s    1 1.00
             0.1612778                   1

14 0
 s    3 1.00
             18.731137    0.03349459952309
             2.8253937    0.23472694665786
             0.6401217    0.81375731841339
 s    1 1.00
             0.1612778                   1

15 0
 s    6 1.00
             3047.5249  0.0018347001629433
             457.36951    0.01403730124668
             103.94869   0.068842606114048
             29.210155    0.23218442062076
              9.286663    0.46794134155879
              3.163927    0.36231203217765
 s    3 1.00
             7.8682724   -0.11933240861517
             1.8812885   -0.16085421161283
             0.5442493     1.1434564825515
 s    1 1.00
             0.1687144                   1
 p    3 1.00
             7.8682724   0.068999095584993
             1.8812885    0.31642397975315
             0.5442493    0.74430825237435
 p    1 1.00
             0.1687144                   1
 d    1 1.00
                   0.8                   1

16 0
 s    6 1.00
             3047.5249  0.0018347001629433
             457.36951    0.01403730124668
             103.94869   0.068842606114048
             29.210155    0.23218442062076
              9.286663    0.46794134155879
              3.163927    0.36231203217765
 s    3 1.00
             7.8682724   -0.11933240861517
             1.8812885   -0.16085421161283
             0.5442493     1.1434564825515
 s    1 1.00
             0.1687144                   1
 p    3 1.00
             7.8682724   0.068999095584993
             1.8812885    0.31642397975315
             0.5442493    0.74430825237435
 p    1 1.00
             0.1687144                   1
 d    1 1.00
                   0.8                   1

17 0
 s    6 1.00
             3047.5249  0.0018347001629433
             457.36951    0.01403730124668
             103.94869   0.068842606114048
             29.210155    0.23218442062076
              9.286663    0.46794134155879
              3.163927    0.36231203217765
 s    3 1.00
             7.8682724   -0.11933240861517
             1.8812885   -0.16085421161283
             0.5442493     1.1434564825515
 s    1 1.00
             0.1687144                   1
 p    3 1.00
             7.8682724   0.068999095584993
             1.8812885    0.31642397975315
             0.5442493    0.74430825237435
 p    1 1.00
             0.1687144                   1
 d    1 1.00
                   0.8                   1

18 0
 s    6 1.00
             3047.5249  0.0018347001629433
             457.36951    0.01403730124668
             103.94869   0.068842606114048
             29.210155    0.23218442062076
              9.286663    0.46794134155879
              3.163927    0.36231203217765
 s    3 1.00
             7.8682724   -0.11933240861517
             1.8812885   -0.16085421161283
             0.5442493     1.1434564825515
 s    1 1.00
             0.1687144                   1
 p    3 1.00
             7.8682724   0.068999095584993
             1.8812885    0.31642397975315
             0.5442493    0.74430825237435
 p    1 1.00
             0.1687144                   1
 d    1 1.00
                   0.8                   1

19 0
 s    6 1.00
             3047.5249  0.0018347001629433
             457.36951    0.01403730124668
             103.94869   0.068842606114048
             29.210155    0.23218442062076
              9.286663    0.46794134155879
              3.163927    0.36231203217765
 s    3 1.00
             7.8682724   -0.11933240861517
             1.8812885   -0.16085421161283
             0.5442493     1.1434564825515
 s    1 1.00
             0.1687144                   1
 p    3 1.00
             7.8682724   0.068999095584993
             1.8812885    0.31642397975315
             0.5442493    0.74430825237435
 p    1 1.00
             0.1687144                   1
 d    1 1.00
                   0.8                   1

20 0
 s    6 1.00
             3047.5249  0.0018347001629433
             457.36951    0.01403730124668
             103.94869   0.068842606114048
             29.210155    0.23218442062076
              9.286663    0.46794134155879
              3.163927    0.36231203217765
 s    3 1.00
             7.8682724   -0.11933240861517
             1.8812885   -0.16085421161283
             0.5442493     1.1434564825515
 s    1 1.00
             0.1687144                   1
 p    3 1.00
             7.8682724   0.068999095584993
             1.8812885    0.31642397975315
             0.5442493    0.74430825237435
 p    1 1.00
             0.1687144                   1
 d    1 1.00
                   0.8                   1

21 0
 s    6 1.00
             3047.5249  0.0018347001629433
             457.36951    0.01403730124668
             103.94869   0.068842606114048
             29.210155    0.23218442062076
              9.286663    0.46794134155879
              3.163927    0.36231203217765
 s    3 1.00
             7.8682724   -0.11933240861517
             1.8812885   -0.16085421161283
             0.5442493     1.1434564825515
 s    1 1.00
             0.1687144                   1
 p    3 1.00
             7.8682724   0.068999095584993
             1.8812885    0.31642397975315
             0.5442493    0.74430825237435
 p    1 1.00
             0.1687144                   1
 d    1 1.00
                   0.8                   1

22 0
 s    3 1.00
             18.731137    0.03349459952309
             2.8253937    0.23472694665786
             0.6401217    0.81375731841339
 s    1 1.00
             0.1612778                   1

23 0
 s    3 1.00
             18.731137    0.03349459952309
             2.8253937    0.23472694665786
             0.6401217    0.81375731841339
 s    1 1.00
             0.1612778                   1

24 0
 s    3 1.00
             18.731137    0.03349459952309
             2.8253937    0.23472694665786
             0.6401217    0.81375731841339
 s    1 1.00
             0.1612778                   1

25 0
 s    3 1.00
             18.731137    0.03349459952309
             2.8253937    0.23472694665786
             0.6401217    0.81375731841339
 s    1 1.00
             0.1612778                   1

26 0
 s    3 1.00
             18.731137    0.03349459952309
             2.8253937    0.23472694665786
             0.6401217    0.81375731841339
 s    1 1.00
             0.1612778                   1

27 0
 s    3 1.00
             18.731137    0.03349459952309
             2.8253937    0.23472694665786
             0.6401217    0.81375731841339
 s    1 1.00
             0.1612778                   1

28 0
 s    3 1.00
             18.731137    0.03349459952309
             2.8253937    0.23472694665786
             0.6401217    0.81375731841339
 s    1 1.00
             0.1612778                   1

29 0
 s    3 1.00
             18.731137    0.03349459952309
             2.8253937    0.23472694665786
             0.6401217    0.81375731841339
 s    1 1.00
             0.1612778                   1

30 0
 s    3 1.00
             18.731137    0.03349459952309
             2.8253937    0.23472694665786
             0.6401217    0.81375731841339
 s    1 1.00
             0.1612778                   1

31 0
 s    3 1.00
             18.731137    0.03349459952309
             2.8253937    0.23472694665786
             0.6401217    0.81375731841339
 s    1 1.00
             0.1612778                   1

32 0
 s    3 1.00
             18.731137    0.03349459952309
             2.8253937    0.23472694665786
             0.6401217    0.81375731841339
 s    1 1.00
             0.1612778                   1

33 0
 s    6 1.00
             3047.5249  0.0018347001629433
             457.36951    0.01403730124668
             103.94869   0.068842606114048
             29.210155    0.23218442062076
              9.286663    0.46794134155879
              3.163927    0.36231203217765
 s    3 1.00
             7.8682724   -0.11933240861517
             1.8812885   -0.16085421161283
             0.5442493     1.1434564825515
 s    1 1.00
             0.1687144                   1
 p    3 1.00
             7.8682724   0.068999095584993
             1.8812885    0.31642397975315
             0.5442493    0.74430825237435
 p    1 1.00
             0.1687144                   1
 d    1 1.00
                   0.8                   1

34 0
 s    6 1.00
             3047.5249  0.0018347001629433
             457.36951    0.01403730124668
             103.94869   0.068842606114048
             29.210155    0.23218442062076
              9.286663    0.46794134155879
              3.163927    0.36231203217765
 s    3 1.00
             7.8682724   -0.11933240861517
             1.8812885   -0.16085421161283
             0.5442493     1.1434564825515
 s    1 1.00
             0.1687144                   1
 p    3 1.00
             7.8682724   0.068999095584993
             1.8812885    0.31642397975315
             0.5442493    0.74430825237435
 p    1 1.00
             0.1687144                   1
 d    1 1.00
                   0.8                   1

35 0
 s    3 1.00
             18.731137    0.03349459952309
             2.8253937    0.23472694665786
             0.6401217    0.81375731841339
 s    1 1.00
             0.1612778                   1

36 0
 s    6 1.00
             3047.5249  0.0018347001629433
             457.36951    0.01403730124668
             103.94869   0.068842606114048
             29.210155    0.23218442062076
              9.286663    0.46794134155879
              3.163927    0.36231203217765
 s    3 1.00
             7.8682724   -0.11933240861517
             1.8812885   -0.16085421161283
             0.5442493     1.1434564825515
 s    1 1.00
             0.1687144                   1
 p    3 1.00
             7.8682724   0.068999095584993
             1.8812885    0.31642397975315
             0.5442493    0.74430825237435
 p    1 1.00
             0.1687144                   1
 d    1 1.00
                   0.8                   1

37 0
 s    3 1.00
             18.731137    0.03349459952309
             2.8253937    0.23472694665786
             0.6401217    0.81375731841339
 s    1 1.00
             0.1612778                   1

38 0
 s    3 1.00
             18.731137    0.03349459952309
             2.8253937    0.23472694665786
             0.6401217    0.81375731841339
 s    1 1.00
             0.1612778                   1

39 0
 s    6 1.00
             3047.5249  0.0018347001629433
             457.36951    0.01403730124668
             103.94869   0.068842606114048
             29.210155    0.23218442062076
              9.286663    0.46794134155879
              3.163927    0.36231203217765
 s    3 1.00
             7.8682724   -0.11933240861517
             1.8812885   -0.16085421161283
             0.5442493     1.1434564825515
 s    1 1.00
             0.1687144                   1
 p    3 1.00
             7.8682724   0.068999095584993
             1.8812885    0.31642397975315
             0.5442493    0.74430825237435
 p    1 1.00
             0.1687144                   1
 d    1 1.00
                   0.8                   1

40 0
 s    6 1.00
             3047.5249  0.0018347001629433
             457.36951    0.01403730124668
             103.94869   0.068842606114048
             29.210155    0.23218442062076
              9.286663    0.46794134155879
              3.163927    0.36231203217765
 s    3 1.00
             7.8682724   -0.11933240861517
             1.8812885   -0.16085421161283
             0.5442493     1.1434564825515
 s    1 1.00
             0.1687144                   1
 p    3 1.00
             7.8682724   0.068999095584993
             1.8812885    0.31642397975315
             0.5442493    0.74430825237435
 p    1 1.00
             0.1687144                   1
 d    1 1.00
                   0.8                   1

41 0
 s    3 1.00
             18.731137    0.03349459952309
             2.8253937    0.23472694665786
             0.6401217    0.81375731841339
 s    1 1.00
             0.1612778                   1

42 0
 s    6 1.00
             5484.6717   0.001831099805527
             825.23495   0.013950098518422
             188.04696    0.06844509273075
               52.9645    0.23271427528445
              16.89757    0.47019295006289
             5.7996353    0.35852086192309
 s    3 1.00
             15.539616   -0.11077750382508
             3.5999336   -0.14802630511126
             1.0137618     1.1307670390447
 s    1 1.00
             0.2700058                   1
 p    3 1.00
             15.539616   0.070874299543311
             3.5999336    0.33975279781076
             1.0137618    0.72715859531445
 p    1 1.00
             0.2700058                   1
 d    1 1.00
                   0.8                   1

43 0
 s    3 1.00
             18.731137    0.03349459952309
             2.8253937    0.23472694665786
             0.6401217    0.81375731841339
 s    1 1.00
             0.1612778                   1

[5d]
[7f]
[9g]

[MO]
 Sym= A
 Ene=               0
 Spin= Alpha
 Occup=    1.00000
   1    1.8425923636285e-06
   2    1.9836326249693e-05
   3    -2.5087340485261e-05
   4    5.4061081078771e-06
   5    -6.2665401288733e-07
   6    -1.3438839049192e-05
   7    -1.9599644453288e-05
   8    -8.7537752949804e-05
   9    0.0003650223809398
  10    -8.7845272122547e-08
  11    -1.1226878449219e-05
  12    -2.3795047082137e-06
  13    -1.3665184138321e-05
  14    7.5393455692699e-06
  15    1.3943579668401e-05
  16    -1.8151357739357e-05
  17    -7.1268648659602e-06
  18    -0.0001592389114278
  19    -0.0004143402480449
  20    -5.3080056782781e-05
  21    9.1299967612701e-06
  22    6.9572962988905e-05
  23    -0.00015703768757814
  24    9.0866685108523e-05
  25    0.00061108166284572
  26    -2.1512490325102e-05
  27    2.2889981472102e-05
  28    -9.5553928890665e-06
  29    -4.1799753691474e-05
  30    4.2364062511665e-06
  31    1.0578523528677e-05
  32    -2.7207409431463e-05
  33    -5.0815207647667e-05
  34    -0.00034095753519214
  35    0.0042907380072071
  36    8.702983189711e-05
  37    -1.8980521051998e-05
  38    -0.00014477685626278
  39    0.00042082799958948
  40    -0.0018756697804866
  41    -0.00053728302424047
  42    2.7529187838583e-05
  43    -0.0001045471943957
  44    6.9496498420662e-05
  45    -3.0608102359153e-05
  46    -4.9426878455286e-05
  47    1.6861097484011e-05
  48    0.0002708051371315
  49    -4.8105805487039e-06
  50    -0.00011699083066354
  51    -0.0034346079718557
  52    -0.0001644177252477
  53    0.00022160566115488
  54    0.00023880995172025
  55    0.0015835374258074
  56    -0.0025163168480505
  57    -0.0022604010601749
  58    1.8507693762953e-05
  59    -3.9068773557524e-05
  60    -0.00018819932436134
  61    -2.4623721063151e-05
  62    0.00011787360194558
  63    -0.00028337142218636
  64    -7.6536245082088e-05
  65    2.2184697215774e-07
  66    3.0404127931299e-07
  67    4.1252311353741e-08
  68    5.5928296923712e-07
  69    -2.8383230781642e-06
  70    -2.3384492207105e-07
  71    3.3054777131742e-07
  72    -1.1271958744454e-07
  73    -2.4903519323227e-07
  74    -1.6487130067392e-06
  75    -9.0594364140208e-08
  76    5.1815150912471e-08
  77    1.1894890375748e-07
  78    -4.9194892358079e-08
  79    -7.3690345149294e-08
  80    9.9889593274076e-08
  81    -8.5873250761724e-08
  82    -2.0183932451272e-07
  83    -2.4004822058878e-08
  84    1.5430454495346e-07
  85    1.2850115417685e-05
  86    -6.0009540953021e-07
  87    -7.7555504507882e-08
  88    -8.6241254664404e-07
  89    -3.3015695227385e-06
  90    4.7421315895957e-06
  91    -3.0474569558229e-06
  92    -1.6618098866234e-07
  93    2.7217707432194e-07
  94    -3.4294821241313e-07
  95    -3.4544100380786e-08
  96    1.5190989382521e-07
  97    -6.4797907003937e-07
  98    -8.6083968443111e-07
  99    4.3755980941736e-08
 100    1.1017016319488e-06
 101    7.7821607114284e-08
 102    9.6953618401451e-07
 103    -1.4782489664411e-05
 104    -1.638385541337e-07
 105    9.1824668126392e-07
 106    5.8391661166147e-07
 107    1.8978652180547e-05
 108    -1.7269319673965e-05
 109    -2.8750523520645e-05
 110    5.6716478428356e-07
 111    5.0780193545918e-07
 112    -2.2124010686295e-07
 113    -3.7390146521938e-07
 114    4.9923189427052e-07
 115    4.7238276317731e-07
 116    4.3777281235786e-06
 117    -3.5215952019695e-05
 118    6.422142089121e-07
 119    -1.0128003396641e-06
 120    -8.1980988227487e-07
 121    7.8561272311657e-06
 122    -6.4492249291919e-07
 123    -2.2975337683159e-06
 124    6.2685499041812e-08
 125    2.0292457823638e-07
 126    1.4638108864621e-07
 127    -7.6082518362203e-08
 128    3.3578239666578e-07
 129    9.1570307978713e-07
 130    8.4509306023567e-06
 131    -4.7973139175022e-05
 132    -1.955461876068e-07
 133    3.6402392027929e-07
 134    -3.390874046074e-06
 135    2.4600372767407e-05
 136    -1.7176120041968e-06
 137    7.7002234429119e-05
 138    -2.3655202528131e-06
 139    -1.4708622834063e-06
 140    -2.5072500365991e-07
 141    -3.966646264007e-07
 142    -9.6272235468755e-08
 143    3.7259594623027e-07
 144    3.5190083669738e-06
 145    -1.7375353730773e-05
 146    -2.547253384472e-07
 147    -5.4882463506914e-07
 148    -3.8083731607255e-07
 149    -1.0775699908049e-05
 150    6.5886153391474e-06
 151    2.4429186620993e-06
 152    9.8599861569113e-07
 153    3.5042808136097e-07
 154    1.0848860860097e-07
 155    -6.9019835979939e-07
 156    6.8847364518752e-07
 157    -9.6393447685472e-08
 158    -8.0558923387655e-07
 159    -9.4838715091058e-07
 160    -7.0550876862111e-07
 161    1.1937109387984e-07
 162    5.3625836134576e-08
 163    5.8990746845827e-06
 164     -3.3863931489e-08
 165    -7.8740652203599e-07
 166    -4.1556223741561e-07
 167    1.3664774465807e-07
 168    -9.6477403204606e-09
 169    1.0877168642579e-07
 170    -2.6482459945534e-07
 171    -2.6412264288571e-08
 172    3.866732059569e-07
 173    1.7343965456794e-06
 174    6.3394437656983e-07
 175    1.4602009323096e-07
 176    -7.4391200529883e-07
 177    3.4795778385506e-07
 178    -1.4799949124204e-06
 179    1.7991698270931e-06
 180    -1.4501022423822e-07
 181    -2.0778998682141e-07
 182    -1.2660483220162e-08
 183    3.6770814346321e-07
 184    -1.7300152930653e-07
 185    2.8819002016377e-07
 186    2.9229085806457e-06
 187    -2.2936762779117e-06
 188    2.2923211425721e-07
 189    -1.2605538474919e-07
 190    -1.0881609998932e-06
 191    -2.2180353002646e-06
 192    -9.0707661215833e-07
 193    5.557923321873e-06
 194    -3.2628649169474e-07
 195    3.4749086000807e-08
 196    -1.5769150945927e-07
 197    -7.2198258997068e-08
 198    8.3952262475851e-08
 199    7.3219178664862e-07
 200    1.2457289150335e-06
 201    -6.2005452303027e-08
 202    -3.1891797310915e-06
 203    1.6470334220516e-06
 204    1.9163515691099e-06
 205    3.0259728278916e-07
 206    2.2839446923201e-06
 207    -1.30340444407e-06
 208    1.2084539640086e-05
 209    -1.0378513266889e-06
 210    4.079016744918e-06
 211    -4.3535779761149e-07
 212    -2.7302301079601e-06
 213    2.0598786085289e-07
 214    2.0699556996218e-06
 215    4.8875743399722e-07
 216    -6.2867309901935e-07
 217    -2.9123454142378e-07
 218    -8.284503866904e-07
 219    -2.5112540567214e-07
 220    -1.0801296485611e-06
 221    7.4762974075006e-07
 222    8.0904948097543e-06
 223    3.3070153732944e-06
 224    -2.4137153327565e-07
 225    5.1285997905415e-07
 226    -3.4308748583678e-06
 227    -1.3573503873869e-05
 228    -2.6034805771974e-05
 229    9.1017193270222e-05
 230    1.0499064818166e-06
 231    3.9089245948191e-06
 232    1.9573250493605e-06
 233    -1.7605409196478e-06
 234    -2.7508630821961e-06
 235    1.113969163248e-06
 236    1.1338681658095e-05
 237    -2.4871960918313e-05
 238    9.7827080963785e-07
 239    -2.7831881490206e-06
 240    -4.2398709871084e-06
 241    1.9665370116497e-05
 242    8.2973777520043e-06
 243    9.080532194792e-05
 244    -1.7892243521935e-06
 245    -6.6522403233361e-06
 246    -2.1174339962176e-06
 247    -2.5171176636245e-06
 248    -1.6452352561069e-06
 249    3.7792076385735e-06
 250    -1.0741312770043e-05
 251    3.6835034405915e-06
 252    3.0477867403392e-05
 253    -0.00023187029172693
 254    -2.6862731396541e-06
 255    1.0618457171651e-05
 256    -7.6127755814942e-06
 257    -0.00010175858443871
 258    -0.00010098985156017
 259    0.00022965642297581
 260    -1.7192532340622e-06
 261    1.1604499714784e-05
 262    5.6302495037548e-06
 263    -7.1084432674411e-06
 264    -6.0657395673085e-06
 265    4.5677878978025e-06
 266    -2.7012541425254e-05
 267    8.2490984354207e-06
 268    -3.784026538793e-05
 269    5.1180940316063e-05
 270    0.00012553528265322
 271    -0.0030395529728759
 272    -1.8653627582262e-05
 273    0.0001850879810425
 274    1.1467066960221e-05
 275    -0.0020415717875948
 276    -0.00057236935746101
 277    0.0032444549057806
 278    -0.00021877910236143
 279    0.0002033146295622