[Molden Format]
made by pyscf v[2.0.1]
[Atoms] (AU)
C   1   6     0.69100024066471     0.64692934207205    -3.48223131169301
H   2   1     2.68052439830868     1.13355088658700    -3.25784032593313
C   3   6    -0.36286361513219     0.85440132524594    -5.97030179418974
H   4   1    -2.35448549047279     0.36322488579172    -6.17995817793143
C   5   6     0.93697958957450     1.61209284601821    -8.05828437677121
H   6   1     2.50035468987728     2.93484935641869    -7.84122146962088
C   7   6     0.36255105159660     0.76050131278393   -10.56848504450332
H   8   1    -1.20802221204617    -0.56532983436663   -10.75608465244450
H   9   1     1.55630230933075    -1.92953025305990    12.99630010416247
C   10   6     0.75233899775814    -2.21270439606481    11.10705728102219
H   11   1    -0.43433408177274    -3.90944857546550    11.22216085340412
C   12   6     2.86362581178706    -2.63237380607947     9.17926416456045
H   13   1     4.39038949912609    -1.24955421540245     9.49899813497433
H   14   1     3.74629220191363    -4.48798724300892     9.47414880959024
C   15   6     2.02478325613682    -2.42177285709634     6.44560829588644
C   16   6     3.88048732735477    -3.58795445234514     4.61402886975252
C   17   6    -0.18412382258602    -1.30464291234259     5.76021113872346
C   18   6    -2.10044360464350    -0.26837831858460     7.71610340967100
C   19   6    -3.08956938670431     2.35282328359417     6.88693925039594
C   20   6    -4.37372924086464    -2.09766595989678     7.93610724222001
C   21   6    -0.83850430601230     0.06372213486173    10.33002307638377
H   22   1     0.38411922151109     1.74281358582432    10.27380136542181
H   23   1    -2.30980003007874     0.45460143924521    11.73986301809809
H   24   1     4.58527064644668    -5.38706904487420     5.36778158031719
H   25   1     5.54944938085014    -2.37631462192748     4.35398898413318
H   26   1     3.06633019150423    -3.94118377050688     2.75255466040884
H   27   1    -4.17727778763735     2.26573369139522     5.12914900961283
H   28   1    -1.52662344944051     3.68001877445626     6.59540397144508
H   29   1    -4.32916174397830     3.13643051467482     8.35225460090378
H   30   1    -5.32329548508442    -2.36691813602939     6.11583672749896
H   31   1    -5.77989366602257    -1.33896741843465     9.25748940450990
H   32   1    -3.79310905208926    -3.96389819310853     8.61386170102686
C   33   6    -1.01100794811226    -1.06331657314144     3.11929490449947
C   34   6     0.37686231036534    -0.33275864505552     1.09165013605873
H   35   1    -3.01671213906703    -1.40297922279997     2.77827895090944
C   36   6    -0.64382707979370    -0.11591880174385    -1.42063131251064
H   37   1     2.35569259782137     0.17174499283897     1.33641070251401
H   38   1    -2.63317482980319    -0.60229203511219    -1.66119700387645
C   39   6     1.60144441070444     1.46482489722556   -12.70057441592292
C   40   6     0.86980516734608     0.48994136718256   -15.17470632539007
H   41   1     3.18180515535191     2.77908821383906   -12.64635086980665
O   42   8     1.89724046327418     1.04291297454121   -17.16453627851552
H   43   1    -0.75645459108880    -0.84958730954869   -15.14122439828819
[GTO]
1 0
 s    6 1.00
             3047.5249  0.0018347001629433
             457.36951    0.01403730124668
             103.94869   0.068842606114048
             29.210155    0.23218442062076
              9.286663    0.46794134155879
              3.163927    0.36231203217765
 s    3 1.00
             7.8682724   -0.11933240861517
             1.8812885   -0.16085421161283
             0.5442493     1.1434564825515
 s    1 1.00
             0.1687144                   1
 p    3 1.00
             7.8682724   0.068999095584993
             1.8812885    0.31642397975315
             0.5442493    0.74430825237435
 p    1 1.00
             0.1687144                   1
 d    1 1.00
                   0.8                   1

2 0
 s    3 1.00
             18.731137    0.03349459952309
             2.8253937    0.23472694665786
             0.6401217    0.81375731841339
 s    1 1.00
             0.1612778                   1

3 0
 s    6 1.00
             3047.5249  0.0018347001629433
             457.36951    0.01403730124668
             103.94869   0.068842606114048
             29.210155    0.23218442062076
              9.286663    0.46794134155879
              3.163927    0.36231203217765
 s    3 1.00
             7.8682724   -0.11933240861517
             1.8812885   -0.16085421161283
             0.5442493     1.1434564825515
 s    1 1.00
             0.1687144                   1
 p    3 1.00
             7.8682724   0.068999095584993
             1.8812885    0.31642397975315
             0.5442493    0.74430825237435
 p    1 1.00
             0.1687144                   1
 d    1 1.00
                   0.8                   1

4 0
 s    3 1.00
             18.731137    0.03349459952309
             2.8253937    0.23472694665786
             0.6401217    0.81375731841339
 s    1 1.00
             0.1612778                   1

5 0
 s    6 1.00
             3047.5249  0.0018347001629433
             457.36951    0.01403730124668
             103.94869   0.068842606114048
             29.210155    0.23218442062076
              9.286663    0.46794134155879
              3.163927    0.36231203217765
 s    3 1.00
             7.8682724   -0.11933240861517
             1.8812885   -0.16085421161283
             0.5442493     1.1434564825515
 s    1 1.00
             0.1687144                   1
 p    3 1.00
             7.8682724   0.068999095584993
             1.8812885    0.31642397975315
             0.5442493    0.74430825237435
 p    1 1.00
             0.1687144                   1
 d    1 1.00
                   0.8                   1

6 0
 s    3 1.00
             18.731137    0.03349459952309
             2.8253937    0.23472694665786
             0.6401217    0.81375731841339
 s    1 1.00
             0.1612778                   1

7 0
 s    6 1.00
             3047.5249  0.0018347001629433
             457.36951    0.01403730124668
             103.94869   0.068842606114048
             29.210155    0.23218442062076
              9.286663    0.46794134155879
              3.163927    0.36231203217765
 s    3 1.00
             7.8682724   -0.11933240861517
             1.8812885   -0.16085421161283
             0.5442493     1.1434564825515
 s    1 1.00
             0.1687144                   1
 p    3 1.00
             7.8682724   0.068999095584993
             1.8812885    0.31642397975315
             0.5442493    0.74430825237435
 p    1 1.00
             0.1687144                   1
 d    1 1.00
                   0.8                   1

8 0
 s    3 1.00
             18.731137    0.03349459952309
             2.8253937    0.23472694665786
             0.6401217    0.81375731841339
 s    1 1.00
             0.1612778                   1

9 0
 s    3 1.00
             18.731137    0.03349459952309
             2.8253937    0.23472694665786
             0.6401217    0.81375731841339
 s    1 1.00
             0.1612778                   1

10 0
 s    6 1.00
             3047.5249  0.0018347001629433
             457.36951    0.01403730124668
             103.94869   0.068842606114048
             29.210155    0.23218442062076
              9.286663    0.46794134155879
              3.163927    0.36231203217765
 s    3 1.00
             7.8682724   -0.11933240861517
             1.8812885   -0.16085421161283
             0.5442493     1.1434564825515
 s    1 1.00
             0.1687144                   1
 p    3 1.00
             7.8682724   0.068999095584993
             1.8812885    0.31642397975315
             0.5442493    0.74430825237435
 p    1 1.00
             0.1687144                   1
 d    1 1.00
                   0.8                   1

11 0
 s    3 1.00
             18.731137    0.03349459952309
             2.8253937    0.23472694665786
             0.6401217    0.81375731841339
 s    1 1.00
             0.1612778                   1

12 0
 s    6 1.00
             3047.5249  0.0018347001629433
             457.36951    0.01403730124668
             103.94869   0.068842606114048
             29.210155    0.23218442062076
              9.286663    0.46794134155879
              3.163927    0.36231203217765
 s    3 1.00
             7.8682724   -0.11933240861517
             1.8812885   -0.16085421161283
             0.5442493     1.1434564825515
 s    1 1.00
             0.1687144                   1
 p    3 1.00
             7.8682724   0.068999095584993
             1.8812885    0.31642397975315
             0.5442493    0.74430825237435
 p    1 1.00
             0.1687144                   1
 d    1 1.00
                   0.8                   1

13 0
 s    3 1.00
             18.731137    0.03349459952309
             2.8253937    0.23472694665786
             0.6401217    0.81375731841339
 s    1 1.00
             0.1612778                   1

14 0
 s    3 1.00
             18.731137    0.03349459952309
             2.8253937    0.23472694665786
             0.6401217    0.81375731841339
 s    1 1.00
             0.1612778                   1

15 0
 s    6 1.00
             3047.5249  0.0018347001629433
             457.36951    0.01403730124668
             103.94869   0.068842606114048
             29.210155    0.23218442062076
              9.286663    0.46794134155879
              3.163927    0.36231203217765
 s    3 1.00
             7.8682724   -0.11933240861517
             1.8812885   -0.16085421161283
             0.5442493     1.1434564825515
 s    1 1.00
             0.1687144                   1
 p    3 1.00
             7.8682724   0.068999095584993
             1.8812885    0.31642397975315
             0.5442493    0.74430825237435
 p    1 1.00
             0.1687144                   1
 d    1 1.00
                   0.8                   1

16 0
 s    6 1.00
             3047.5249  0.0018347001629433
             457.36951    0.01403730124668
             103.94869   0.068842606114048
             29.210155    0.23218442062076
              9.286663    0.46794134155879
              3.163927    0.36231203217765
 s    3 1.00
             7.8682724   -0.11933240861517
             1.8812885   -0.16085421161283
             0.5442493     1.1434564825515
 s    1 1.00
             0.1687144                   1
 p    3 1.00
             7.8682724   0.068999095584993
             1.8812885    0.31642397975315
             0.5442493    0.74430825237435
 p    1 1.00
             0.1687144                   1
 d    1 1.00
                   0.8                   1

17 0
 s    6 1.00
             3047.5249  0.0018347001629433
             457.36951    0.01403730124668
             103.94869   0.068842606114048
             29.210155    0.23218442062076
              9.286663    0.46794134155879
              3.163927    0.36231203217765
 s    3 1.00
             7.8682724   -0.11933240861517
             1.8812885   -0.16085421161283
             0.5442493     1.1434564825515
 s    1 1.00
             0.1687144                   1
 p    3 1.00
             7.8682724   0.068999095584993
             1.8812885    0.31642397975315
             0.5442493    0.74430825237435
 p    1 1.00
             0.1687144                   1
 d    1 1.00
                   0.8                   1

18 0
 s    6 1.00
             3047.5249  0.0018347001629433
             457.36951    0.01403730124668
             103.94869   0.068842606114048
             29.210155    0.23218442062076
              9.286663    0.46794134155879
              3.163927    0.36231203217765
 s    3 1.00
             7.8682724   -0.11933240861517
             1.8812885   -0.16085421161283
             0.5442493     1.1434564825515
 s    1 1.00
             0.1687144                   1
 p    3 1.00
             7.8682724   0.068999095584993
             1.8812885    0.31642397975315
             0.5442493    0.74430825237435
 p    1 1.00
             0.1687144                   1
 d    1 1.00
                   0.8                   1

19 0
 s    6 1.00
             3047.5249  0.0018347001629433
             457.36951    0.01403730124668
             103.94869   0.068842606114048
             29.210155    0.23218442062076
              9.286663    0.46794134155879
              3.163927    0.36231203217765
 s    3 1.00
             7.8682724   -0.11933240861517
             1.8812885   -0.16085421161283
             0.5442493     1.1434564825515
 s    1 1.00
             0.1687144                   1
 p    3 1.00
             7.8682724   0.068999095584993
             1.8812885    0.31642397975315
             0.5442493    0.74430825237435
 p    1 1.00
             0.1687144                   1
 d    1 1.00
                   0.8                   1

20 0
 s    6 1.00
             3047.5249  0.0018347001629433
             457.36951    0.01403730124668
             103.94869   0.068842606114048
             29.210155    0.23218442062076
              9.286663    0.46794134155879
              3.163927    0.36231203217765
 s    3 1.00
             7.8682724   -0.11933240861517
             1.8812885   -0.16085421161283
             0.5442493     1.1434564825515
 s    1 1.00
             0.1687144                   1
 p    3 1.00
             7.8682724   0.068999095584993
             1.8812885    0.31642397975315
             0.5442493    0.74430825237435
 p    1 1.00
             0.1687144                   1
 d    1 1.00
                   0.8                   1

21 0
 s    6 1.00
             3047.5249  0.0018347001629433
             457.36951    0.01403730124668
             103.94869   0.068842606114048
             29.210155    0.23218442062076
              9.286663    0.46794134155879
              3.163927    0.36231203217765
 s    3 1.00
             7.8682724   -0.11933240861517
             1.8812885   -0.16085421161283
             0.5442493     1.1434564825515
 s    1 1.00
             0.1687144                   1
 p    3 1.00
             7.8682724   0.068999095584993
             1.8812885    0.31642397975315
             0.5442493    0.74430825237435
 p    1 1.00
             0.1687144                   1
 d    1 1.00
                   0.8                   1

22 0
 s    3 1.00
             18.731137    0.03349459952309
             2.8253937    0.23472694665786
             0.6401217    0.81375731841339
 s    1 1.00
             0.1612778                   1

23 0
 s    3 1.00
             18.731137    0.03349459952309
             2.8253937    0.23472694665786
             0.6401217    0.81375731841339
 s    1 1.00
             0.1612778                   1

24 0
 s    3 1.00
             18.731137    0.03349459952309
             2.8253937    0.23472694665786
             0.6401217    0.81375731841339
 s    1 1.00
             0.1612778                   1

25 0
 s    3 1.00
             18.731137    0.03349459952309
             2.8253937    0.23472694665786
             0.6401217    0.81375731841339
 s    1 1.00
             0.1612778                   1

26 0
 s    3 1.00
             18.731137    0.03349459952309
             2.8253937    0.23472694665786
             0.6401217    0.81375731841339
 s    1 1.00
             0.1612778                   1

27 0
 s    3 1.00
             18.731137    0.03349459952309
             2.8253937    0.23472694665786
             0.6401217    0.81375731841339
 s    1 1.00
             0.1612778                   1

28 0
 s    3 1.00
             18.731137    0.03349459952309
             2.8253937    0.23472694665786
             0.6401217    0.81375731841339
 s    1 1.00
             0.1612778                   1

29 0
 s    3 1.00
             18.731137    0.03349459952309
             2.8253937    0.23472694665786
             0.6401217    0.81375731841339
 s    1 1.00
             0.1612778                   1

30 0
 s    3 1.00
             18.731137    0.03349459952309
             2.8253937    0.23472694665786
             0.6401217    0.81375731841339
 s    1 1.00
             0.1612778                   1

31 0
 s    3 1.00
             18.731137    0.03349459952309
             2.8253937    0.23472694665786
             0.6401217    0.81375731841339
 s    1 1.00
             0.1612778                   1

32 0
 s    3 1.00
             18.731137    0.03349459952309
             2.8253937    0.23472694665786
             0.6401217    0.81375731841339
 s    1 1.00
             0.1612778                   1

33 0
 s    6 1.00
             3047.5249  0.0018347001629433
             457.36951    0.01403730124668
             103.94869   0.068842606114048
             29.210155    0.23218442062076
              9.286663    0.46794134155879
              3.163927    0.36231203217765
 s    3 1.00
             7.8682724   -0.11933240861517
             1.8812885   -0.16085421161283
             0.5442493     1.1434564825515
 s    1 1.00
             0.1687144                   1
 p    3 1.00
             7.8682724   0.068999095584993
             1.8812885    0.31642397975315
             0.5442493    0.74430825237435
 p    1 1.00
             0.1687144                   1
 d    1 1.00
                   0.8                   1

34 0
 s    6 1.00
             3047.5249  0.0018347001629433
             457.36951    0.01403730124668
             103.94869   0.068842606114048
             29.210155    0.23218442062076
              9.286663    0.46794134155879
              3.163927    0.36231203217765
 s    3 1.00
             7.8682724   -0.11933240861517
             1.8812885   -0.16085421161283
             0.5442493     1.1434564825515
 s    1 1.00
             0.1687144                   1
 p    3 1.00
             7.8682724   0.068999095584993
             1.8812885    0.31642397975315
             0.5442493    0.74430825237435
 p    1 1.00
             0.1687144                   1
 d    1 1.00
                   0.8                   1

35 0
 s    3 1.00
             18.731137    0.03349459952309
             2.8253937    0.23472694665786
             0.6401217    0.81375731841339
 s    1 1.00
             0.1612778                   1

36 0
 s    6 1.00
             3047.5249  0.0018347001629433
             457.36951    0.01403730124668
             103.94869   0.068842606114048
             29.210155    0.23218442062076
              9.286663    0.46794134155879
              3.163927    0.36231203217765
 s    3 1.00
             7.8682724   -0.11933240861517
             1.8812885   -0.16085421161283
             0.5442493     1.1434564825515
 s    1 1.00
             0.1687144                   1
 p    3 1.00
             7.8682724   0.068999095584993
             1.8812885    0.31642397975315
             0.5442493    0.74430825237435
 p    1 1.00
             0.1687144                   1
 d    1 1.00
                   0.8                   1

37 0
 s    3 1.00
             18.731137    0.03349459952309
             2.8253937    0.23472694665786
             0.6401217    0.81375731841339
 s    1 1.00
             0.1612778                   1

38 0
 s    3 1.00
             18.731137    0.03349459952309
             2.8253937    0.23472694665786
             0.6401217    0.81375731841339
 s    1 1.00
             0.1612778                   1

39 0
 s    6 1.00
             3047.5249  0.0018347001629433
             457.36951    0.01403730124668
             103.94869   0.068842606114048
             29.210155    0.23218442062076
              9.286663    0.46794134155879
              3.163927    0.36231203217765
 s    3 1.00
             7.8682724   -0.11933240861517
             1.8812885   -0.16085421161283
             0.5442493     1.1434564825515
 s    1 1.00
             0.1687144                   1
 p    3 1.00
             7.8682724   0.068999095584993
             1.8812885    0.31642397975315
             0.5442493    0.74430825237435
 p    1 1.00
             0.1687144                   1
 d    1 1.00
                   0.8                   1

40 0
 s    6 1.00
             3047.5249  0.0018347001629433
             457.36951    0.01403730124668
             103.94869   0.068842606114048
             29.210155    0.23218442062076
              9.286663    0.46794134155879
              3.163927    0.36231203217765
 s    3 1.00
             7.8682724   -0.11933240861517
             1.8812885   -0.16085421161283
             0.5442493     1.1434564825515
 s    1 1.00
             0.1687144                   1
 p    3 1.00
             7.8682724   0.068999095584993
             1.8812885    0.31642397975315
             0.5442493    0.74430825237435
 p    1 1.00
             0.1687144                   1
 d    1 1.00
                   0.8                   1

41 0
 s    3 1.00
             18.731137    0.03349459952309
             2.8253937    0.23472694665786
             0.6401217    0.81375731841339
 s    1 1.00
             0.1612778                   1

42 0
 s    6 1.00
             5484.6717   0.001831099805527
             825.23495   0.013950098518422
             188.04696    0.06844509273075
               52.9645    0.23271427528445
              16.89757    0.47019295006289
             5.7996353    0.35852086192309
 s    3 1.00
             15.539616   -0.11077750382508
             3.5999336   -0.14802630511126
             1.0137618     1.1307670390447
 s    1 1.00
             0.2700058                   1
 p    3 1.00
             15.539616   0.070874299543311
             3.5999336    0.33975279781076
             1.0137618    0.72715859531445
 p    1 1.00
             0.2700058                   1
 d    1 1.00
                   0.8                   1

43 0
 s    3 1.00
             18.731137    0.03349459952309
             2.8253937    0.23472694665786
             0.6401217    0.81375731841339
 s    1 1.00
             0.1612778                   1

[5d]
[7f]
[9g]

[MO]
 Sym= A
 Ene=               0
 Spin= Alpha
 Occup=    1.00000
   1    -3.9884326659845e-06
   2    -2.6993891791779e-05
   3    -0.00012276120536685
   4    -9.326255688598e-06
   5    -3.3922821388855e-05
   6    1.9878750186911e-05
   7    0.00020816888272665
   8    0.00024594641921016
   9    -0.00059959192448277
  10    1.568845909995e-05
  11    2.0826793073242e-05
  12    2.1587881294114e-08
  13    9.100496482546e-07
  14    7.7264706614106e-07
  15    -3.4609827841464e-05
  16    -3.3001610904921e-05
  17    1.2329783112831e-05
  18    2.6380449994991e-05
  19    -0.0016383095299909
  20    -2.047283764582e-05
  21    8.4078966358028e-06
  22    6.3030425342714e-05
  23    -0.00035072613546528
  24    -0.00012629024443926
  25    0.00070709161480842
  26    -4.7956498212095e-05
  27    1.7797388963048e-05
  28    2.0386752595345e-05
  29    -2.1117871274497e-05
  30    2.8614617327091e-05
  31    4.136637288141e-06
  32    6.9907063528559e-05
  33    -5.5413248123791e-05
  34    -0.0003404692659441
  35    0.0049937437769499
  36    4.6085124228574e-05
  37    6.4708308616236e-07
  38    -0.00012223218057455
  39    -0.0013743907049896
  40    -0.0012597223557752
  41    -0.0012927995436145
  42    0.00014501500369315
  43    1.1776523640468e-05
  44    6.1288180314822e-05
  45    2.067914977996e-06
  46    4.8709896203031e-05
  47    3.602369342357e-05
  48    0.00031137072436449
  49    1.1030952536726e-07
  50    -8.9244874835813e-05
  51    -0.0038249392722113
  52    6.5880963237193e-05
  53    0.00011415463505869
  54    0.00033526660462442
  55    -0.00098876282060487
  56    -0.0014004075615255
  57    -0.0035669230340364
  58    -9.6077813093204e-05
  59    -0.00013977039908476
  60    -0.00012967790288838
  61    4.2897608586435e-05
  62    9.3876674258388e-05
  63    -0.00028114227245359
  64    -0.00010217580742978
  65    -2.2496669196044e-08
  66    1.4090778526425e-06
  67    -7.7770014897305e-08
  68    -8.5847264978618e-07
  69    -9.6192677237656e-07
  70    5.1010116311742e-07
  71    -5.9016881475821e-07
  72    3.0755020872468e-07
  73    1.5231623429961e-06
  74    1.0767866659388e-07
  75    -1.9919345752534e-06
  76    1.7926517281215e-07
  77    7.8365123426539e-08
  78    9.1113543205127e-08
  79    5.7924411814811e-08
  80    7.329478553595e-08
  81    9.1623386672436e-08
  82    4.764136551322e-07
  83    1.843194975182e-07
  84    1.2850769745999e-06
  85    -5.8122234008268e-06
  86    2.5458286689731e-07
  87    -1.2616502880935e-08
  88    4.0522719302343e-07
  89    3.0313571700096e-06
  90    -5.026395088514e-06
  91    1.4049423027281e-07
  92    -1.0294432136789e-07
  93    -2.9937383913074e-07
  94    6.0067086986803e-07
  95    -2.1553154160347e-07
  96    1.4766297123605e-08
  97    8.6129135784923e-07
  98    2.4687925726873e-07
  99    -1.7278501965236e-07
 100    -8.5955163103776e-07
 101    -3.9080522522108e-07
 102    -1.3487164082346e-06
 103    5.2139407503851e-05
 104    -6.2106193445856e-07
 105    2.5852203322615e-07
 106    -1.6189851657239e-06
 107    -2.0640237216541e-05
 108    2.1714985644558e-05
 109    -5.2035162334097e-06
 110    5.6039356538926e-07
 111    8.5905956474377e-07
 112    -3.8320920014965e-07
 113    -5.6135764039224e-07
 114    -1.0746318957447e-06
 115    3.3671558547509e-07
 116    3.7259187557118e-06
 117    -1.0426541632444e-05
 118    -2.1562182839081e-07
 119    8.8652399333293e-07
 120    -1.0972704068904e-06
 121    3.018372906926e-06
 122    -6.572170756855e-06
 123    1.231421024717e-05
 124    3.6254387500524e-07
 125    -4.6128813287413e-07
 126    -3.829691808068e-07
 127    -2.3754063447183e-08
 128    -1.1882678098777e-07
 129    3.5888137810064e-07
 130    3.561810219767e-06
 131    2.9413970243871e-05
 132    3.8097615585698e-06
 133    1.4329517463495e-06
 134    -3.2744105896582e-06
 135    -7.2801542245092e-05
 136    3.7764933783135e-06
 137    -1.6191930379828e-05
 138    4.4995734224794e-07
 139    5.7527325131195e-07
 140    1.7352076212953e-06
 141    -2.8931962435289e-07
 142    1.1547826108622e-06
 143    -3.9918672973447e-08
 144     -1.6587765121e-06
 145    -2.2672818742716e-05
 146    -3.6081101427278e-07
 147    -1.1445317074613e-06
 148    3.4922401182451e-06
 149    -7.6561181052091e-06
 150    2.713514956698e-05
 151    -1.3202087532508e-05
 152    -4.8225332832246e-07
 153    1.2414712447856e-07
 154    -1.4079657290626e-06
 155    -1.8129779710232e-07
 156    -6.9153491834583e-07
 157    4.4369822967148e-07
 158    3.5056291047103e-06
 159    -2.2857478815533e-05
 160    1.1157435331795e-07
 161    6.787967906032e-07
 162    -7.6941591082403e-07
 163    -6.8130108159023e-06
 164    8.789639672116e-06
 165    1.2811120867789e-06
 166    7.4836742267105e-07
 167    -2.7835692950858e-07
 168    1.5794461958342e-07
 169    3.3804437954126e-07
 170    5.6417372503389e-07
 171    3.1846708658091e-08
 172    2.2281835783659e-07
 173    3.3130168841761e-06
 174    1.7664649151536e-08
 175    -1.6215905497494e-07
 176    8.8585164080625e-07
 177    8.3803232167202e-06
 178    2.8804269090588e-06
 179    4.3334637167132e-06
 180    -2.6973756329248e-07
 181    9.400656415603e-07
 182    6.1803801109938e-08
 183    5.5780769448779e-07
 184    7.0064823620928e-07
 185    -4.3805935861069e-07
 186    -3.6574016692478e-06
 187    1.8596648814162e-05
 188    -7.2135427331625e-07
 189    -6.7062658571879e-08
 190    -1.933681478274e-07
 191    -8.7364068667111e-07
 192    -7.2067955552967e-06
 193    -8.0384912406208e-06
 194    2.9231511807933e-07
 195    5.5348991054164e-07
 196    1.0738510995971e-06
 197    -3.0342758601451e-07
 198    2.4748230016198e-07
 199    -1.061664254503e-06
 200    1.4093976540702e-06
 201    -3.2393422665767e-07
 202    6.0208405950484e-07
 203    -2.9643894387807e-07
 204    -3.8284462822231e-06
 205    2.053651443031e-06
 206    7.4479131072605e-07
 207    -9.1734251292069e-07
 208    1.5649133324168e-05
 209    1.5143170280635e-06
 210    6.281990688535e-07
 211    1.3486153077944e-06
 212    1.9731391479968e-06
 213    3.7317503820976e-07
 214    -2.0295139550543e-06
 215    -1.7840123868096e-06
 216    1.1924532940787e-05
 217    4.2831153857513e-07
 218    -1.4123247619942e-07
 219    5.2904544629649e-07
 220    -1.7336839945356e-06
 221    -2.3089465343675e-06
 222    -1.3638228154365e-05
 223    0.00016520131465199
 224    4.6496506462346e-06
 225    -3.8543743421334e-07
 226    6.662648266323e-08
 227    2.2140459408151e-05
 228    3.3042598825321e-05
 229    -0.00017758241005583
 230    4.1521101143263e-06
 231    -5.8520136755825e-06
 232    -3.8677124651832e-06
 233    2.0408972953696e-06
 234    1.0609247988326e-06
 235    5.4909363968135e-06
 236    3.2537116082006e-05
 237    -0.00051819836720763
 238    -2.6003931639355e-06
 239    -5.1960978071037e-06
 240    1.211033263534e-05
 241    0.00016005039917645
 242    4.404011873218e-05
 243    9.6341510766452e-05
 244    -1.4780161595509e-05
 245    1.102576050302e-06
 246    2.9735796573986e-06
 247    -1.2712486525145e-06
 248    -3.5569635633288e-06
 249    -7.4461988614084e-06
 250    -1.6379566908128e-05
 251    -5.4893838095004e-06
 252    -3.2918132806085e-05
 253    0.00074124140484833
 254    -1.0516754903693e-05
 255    1.3067562483059e-05
 256    -2.4557866811069e-05
 257    0.00032687912832785
 258    1.2676273127894e-05
 259    9.3514677903188e-05
 260    1.4315171004754e-05
 261    -2.6014236578344e-06
 262    -2.3885539942478e-06
 263    4.5449934382119e-06
 264    -1.8185787289081e-06
 265    -4.4534093691011e-06
 266    -9.3822142225936e-06
 267    1.986878672144e-05
 268    3.947324082629e-05
 269    4.9953982499238e-05
 270    0.00011801563452421
 271    -0.002997161995481
 272    0.00012281835646037
 273    0.00011145390690115
 274    7.2894232629348e-05
 275    -0.0015785600313984
 276    -0.00075687834646896
 277    0.0035601928392512
 278    -0.00035431690333039
 279    8.8166257928064e-05
 280    6.5229189869973e-06