[Molden Format]
made by pyscf v[2.0.1]
[Atoms] (AU)
C   1   6     0.69100024066471     0.64692934207205    -3.48223131169301
H   2   1     2.68052439830868     1.13355088658700    -3.25784032593313
C   3   6    -0.36286361513219     0.85440132524594    -5.97030179418974
H   4   1    -2.35448549047279     0.36322488579172    -6.17995817793143
C   5   6     0.93697958957450     1.61209284601821    -8.05828437677121
H   6   1     0.01358296644616     2.85086245433209    -9.41980240085128
C   7   6     3.49095983212942     0.86501358647737    -8.58301400036413
H   8   1     4.39173101664678    -0.37544723242066    -7.20113468241566
H   9   1     1.55630230933075    -1.92953025305990    12.99630010416247
C   10   6     0.75233899775814    -2.21270439606481    11.10705728102219
H   11   1    -0.43433408177274    -3.90944857546550    11.22216085340412
C   12   6     2.86362581178706    -2.63237380607947     9.17926416456045
H   13   1     4.39038949912609    -1.24955421540245     9.49899813497433
H   14   1     3.74629220191363    -4.48798724300892     9.47414880959024
C   15   6     2.02478325613682    -2.42177285709634     6.44560829588644
C   16   6     3.88048732735477    -3.58795445234514     4.61402886975252
C   17   6    -0.18412382258602    -1.30464291234259     5.76021113872346
C   18   6    -2.10044360464350    -0.26837831858460     7.71610340967100
C   19   6    -3.08956938670431     2.35282328359417     6.88693925039594
C   20   6    -4.37372924086464    -2.09766595989678     7.93610724222001
C   21   6    -0.83850430601230     0.06372213486173    10.33002307638377
H   22   1     0.38411922151109     1.74281358582432    10.27380136542181
H   23   1    -2.30980003007874     0.45460143924521    11.73986301809809
H   24   1     4.58527064644668    -5.38706904487420     5.36778158031719
H   25   1     5.54944938085014    -2.37631462192748     4.35398898413318
H   26   1     3.06633019150423    -3.94118377050688     2.75255466040884
H   27   1    -4.17727778763735     2.26573369139522     5.12914900961283
H   28   1    -1.52662344944051     3.68001877445626     6.59540397144508
H   29   1    -4.32916174397830     3.13643051467482     8.35225460090378
H   30   1    -5.32329548508442    -2.36691813602939     6.11583672749896
H   31   1    -5.77989366602257    -1.33896741843465     9.25748940450990
H   32   1    -3.79310905208926    -3.96389819310853     8.61386170102686
C   33   6    -1.01100794811226    -1.06331657314144     3.11929490449947
C   34   6     0.37686231036534    -0.33275864505552     1.09165013605873
H   35   1    -3.01671213906703    -1.40297922279997     2.77827895090944
C   36   6    -0.64382707979370    -0.11591880174385    -1.42063131251064
H   37   1     2.35569259782137     0.17174499283897     1.33641070251401
H   38   1    -2.63317482980319    -0.60229203511219    -1.66119700387645
C   39   6     4.85727779250226     1.56932506344372   -10.63578143211247
C   40   6     7.45078580641309     0.70440198785573   -10.99998857146552
H   41   1     4.07326566832422     2.80126406203857   -12.08333786763668
O   42   8     8.78463246786107     1.26137953491899   -12.79761289932761
H   43   1     8.17650804893433    -0.55247504818230    -9.47232163774676
[GTO]
1 0
 s    6 1.00
             3047.5249  0.0018347001629433
             457.36951    0.01403730124668
             103.94869   0.068842606114048
             29.210155    0.23218442062076
              9.286663    0.46794134155879
              3.163927    0.36231203217765
 s    3 1.00
             7.8682724   -0.11933240861517
             1.8812885   -0.16085421161283
             0.5442493     1.1434564825515
 s    1 1.00
             0.1687144                   1
 p    3 1.00
             7.8682724   0.068999095584993
             1.8812885    0.31642397975315
             0.5442493    0.74430825237435
 p    1 1.00
             0.1687144                   1
 d    1 1.00
                   0.8                   1

2 0
 s    3 1.00
             18.731137    0.03349459952309
             2.8253937    0.23472694665786
             0.6401217    0.81375731841339
 s    1 1.00
             0.1612778                   1

3 0
 s    6 1.00
             3047.5249  0.0018347001629433
             457.36951    0.01403730124668
             103.94869   0.068842606114048
             29.210155    0.23218442062076
              9.286663    0.46794134155879
              3.163927    0.36231203217765
 s    3 1.00
             7.8682724   -0.11933240861517
             1.8812885   -0.16085421161283
             0.5442493     1.1434564825515
 s    1 1.00
             0.1687144                   1
 p    3 1.00
             7.8682724   0.068999095584993
             1.8812885    0.31642397975315
             0.5442493    0.74430825237435
 p    1 1.00
             0.1687144                   1
 d    1 1.00
                   0.8                   1

4 0
 s    3 1.00
             18.731137    0.03349459952309
             2.8253937    0.23472694665786
             0.6401217    0.81375731841339
 s    1 1.00
             0.1612778                   1

5 0
 s    6 1.00
             3047.5249  0.0018347001629433
             457.36951    0.01403730124668
             103.94869   0.068842606114048
             29.210155    0.23218442062076
              9.286663    0.46794134155879
              3.163927    0.36231203217765
 s    3 1.00
             7.8682724   -0.11933240861517
             1.8812885   -0.16085421161283
             0.5442493     1.1434564825515
 s    1 1.00
             0.1687144                   1
 p    3 1.00
             7.8682724   0.068999095584993
             1.8812885    0.31642397975315
             0.5442493    0.74430825237435
 p    1 1.00
             0.1687144                   1
 d    1 1.00
                   0.8                   1

6 0
 s    3 1.00
             18.731137    0.03349459952309
             2.8253937    0.23472694665786
             0.6401217    0.81375731841339
 s    1 1.00
             0.1612778                   1

7 0
 s    6 1.00
             3047.5249  0.0018347001629433
             457.36951    0.01403730124668
             103.94869   0.068842606114048
             29.210155    0.23218442062076
              9.286663    0.46794134155879
              3.163927    0.36231203217765
 s    3 1.00
             7.8682724   -0.11933240861517
             1.8812885   -0.16085421161283
             0.5442493     1.1434564825515
 s    1 1.00
             0.1687144                   1
 p    3 1.00
             7.8682724   0.068999095584993
             1.8812885    0.31642397975315
             0.5442493    0.74430825237435
 p    1 1.00
             0.1687144                   1
 d    1 1.00
                   0.8                   1

8 0
 s    3 1.00
             18.731137    0.03349459952309
             2.8253937    0.23472694665786
             0.6401217    0.81375731841339
 s    1 1.00
             0.1612778                   1

9 0
 s    3 1.00
             18.731137    0.03349459952309
             2.8253937    0.23472694665786
             0.6401217    0.81375731841339
 s    1 1.00
             0.1612778                   1

10 0
 s    6 1.00
             3047.5249  0.0018347001629433
             457.36951    0.01403730124668
             103.94869   0.068842606114048
             29.210155    0.23218442062076
              9.286663    0.46794134155879
              3.163927    0.36231203217765
 s    3 1.00
             7.8682724   -0.11933240861517
             1.8812885   -0.16085421161283
             0.5442493     1.1434564825515
 s    1 1.00
             0.1687144                   1
 p    3 1.00
             7.8682724   0.068999095584993
             1.8812885    0.31642397975315
             0.5442493    0.74430825237435
 p    1 1.00
             0.1687144                   1
 d    1 1.00
                   0.8                   1

11 0
 s    3 1.00
             18.731137    0.03349459952309
             2.8253937    0.23472694665786
             0.6401217    0.81375731841339
 s    1 1.00
             0.1612778                   1

12 0
 s    6 1.00
             3047.5249  0.0018347001629433
             457.36951    0.01403730124668
             103.94869   0.068842606114048
             29.210155    0.23218442062076
              9.286663    0.46794134155879
              3.163927    0.36231203217765
 s    3 1.00
             7.8682724   -0.11933240861517
             1.8812885   -0.16085421161283
             0.5442493     1.1434564825515
 s    1 1.00
             0.1687144                   1
 p    3 1.00
             7.8682724   0.068999095584993
             1.8812885    0.31642397975315
             0.5442493    0.74430825237435
 p    1 1.00
             0.1687144                   1
 d    1 1.00
                   0.8                   1

13 0
 s    3 1.00
             18.731137    0.03349459952309
             2.8253937    0.23472694665786
             0.6401217    0.81375731841339
 s    1 1.00
             0.1612778                   1

14 0
 s    3 1.00
             18.731137    0.03349459952309
             2.8253937    0.23472694665786
             0.6401217    0.81375731841339
 s    1 1.00
             0.1612778                   1

15 0
 s    6 1.00
             3047.5249  0.0018347001629433
             457.36951    0.01403730124668
             103.94869   0.068842606114048
             29.210155    0.23218442062076
              9.286663    0.46794134155879
              3.163927    0.36231203217765
 s    3 1.00
             7.8682724   -0.11933240861517
             1.8812885   -0.16085421161283
             0.5442493     1.1434564825515
 s    1 1.00
             0.1687144                   1
 p    3 1.00
             7.8682724   0.068999095584993
             1.8812885    0.31642397975315
             0.5442493    0.74430825237435
 p    1 1.00
             0.1687144                   1
 d    1 1.00
                   0.8                   1

16 0
 s    6 1.00
             3047.5249  0.0018347001629433
             457.36951    0.01403730124668
             103.94869   0.068842606114048
             29.210155    0.23218442062076
              9.286663    0.46794134155879
              3.163927    0.36231203217765
 s    3 1.00
             7.8682724   -0.11933240861517
             1.8812885   -0.16085421161283
             0.5442493     1.1434564825515
 s    1 1.00
             0.1687144                   1
 p    3 1.00
             7.8682724   0.068999095584993
             1.8812885    0.31642397975315
             0.5442493    0.74430825237435
 p    1 1.00
             0.1687144                   1
 d    1 1.00
                   0.8                   1

17 0
 s    6 1.00
             3047.5249  0.0018347001629433
             457.36951    0.01403730124668
             103.94869   0.068842606114048
             29.210155    0.23218442062076
              9.286663    0.46794134155879
              3.163927    0.36231203217765
 s    3 1.00
             7.8682724   -0.11933240861517
             1.8812885   -0.16085421161283
             0.5442493     1.1434564825515
 s    1 1.00
             0.1687144                   1
 p    3 1.00
             7.8682724   0.068999095584993
             1.8812885    0.31642397975315
             0.5442493    0.74430825237435
 p    1 1.00
             0.1687144                   1
 d    1 1.00
                   0.8                   1

18 0
 s    6 1.00
             3047.5249  0.0018347001629433
             457.36951    0.01403730124668
             103.94869   0.068842606114048
             29.210155    0.23218442062076
              9.286663    0.46794134155879
              3.163927    0.36231203217765
 s    3 1.00
             7.8682724   -0.11933240861517
             1.8812885   -0.16085421161283
             0.5442493     1.1434564825515
 s    1 1.00
             0.1687144                   1
 p    3 1.00
             7.8682724   0.068999095584993
             1.8812885    0.31642397975315
             0.5442493    0.74430825237435
 p    1 1.00
             0.1687144                   1
 d    1 1.00
                   0.8                   1

19 0
 s    6 1.00
             3047.5249  0.0018347001629433
             457.36951    0.01403730124668
             103.94869   0.068842606114048
             29.210155    0.23218442062076
              9.286663    0.46794134155879
              3.163927    0.36231203217765
 s    3 1.00
             7.8682724   -0.11933240861517
             1.8812885   -0.16085421161283
             0.5442493     1.1434564825515
 s    1 1.00
             0.1687144                   1
 p    3 1.00
             7.8682724   0.068999095584993
             1.8812885    0.31642397975315
             0.5442493    0.74430825237435
 p    1 1.00
             0.1687144                   1
 d    1 1.00
                   0.8                   1

20 0
 s    6 1.00
             3047.5249  0.0018347001629433
             457.36951    0.01403730124668
             103.94869   0.068842606114048
             29.210155    0.23218442062076
              9.286663    0.46794134155879
              3.163927    0.36231203217765
 s    3 1.00
             7.8682724   -0.11933240861517
             1.8812885   -0.16085421161283
             0.5442493     1.1434564825515
 s    1 1.00
             0.1687144                   1
 p    3 1.00
             7.8682724   0.068999095584993
             1.8812885    0.31642397975315
             0.5442493    0.74430825237435
 p    1 1.00
             0.1687144                   1
 d    1 1.00
                   0.8                   1

21 0
 s    6 1.00
             3047.5249  0.0018347001629433
             457.36951    0.01403730124668
             103.94869   0.068842606114048
             29.210155    0.23218442062076
              9.286663    0.46794134155879
              3.163927    0.36231203217765
 s    3 1.00
             7.8682724   -0.11933240861517
             1.8812885   -0.16085421161283
             0.5442493     1.1434564825515
 s    1 1.00
             0.1687144                   1
 p    3 1.00
             7.8682724   0.068999095584993
             1.8812885    0.31642397975315
             0.5442493    0.74430825237435
 p    1 1.00
             0.1687144                   1
 d    1 1.00
                   0.8                   1

22 0
 s    3 1.00
             18.731137    0.03349459952309
             2.8253937    0.23472694665786
             0.6401217    0.81375731841339
 s    1 1.00
             0.1612778                   1

23 0
 s    3 1.00
             18.731137    0.03349459952309
             2.8253937    0.23472694665786
             0.6401217    0.81375731841339
 s    1 1.00
             0.1612778                   1

24 0
 s    3 1.00
             18.731137    0.03349459952309
             2.8253937    0.23472694665786
             0.6401217    0.81375731841339
 s    1 1.00
             0.1612778                   1

25 0
 s    3 1.00
             18.731137    0.03349459952309
             2.8253937    0.23472694665786
             0.6401217    0.81375731841339
 s    1 1.00
             0.1612778                   1

26 0
 s    3 1.00
             18.731137    0.03349459952309
             2.8253937    0.23472694665786
             0.6401217    0.81375731841339
 s    1 1.00
             0.1612778                   1

27 0
 s    3 1.00
             18.731137    0.03349459952309
             2.8253937    0.23472694665786
             0.6401217    0.81375731841339
 s    1 1.00
             0.1612778                   1

28 0
 s    3 1.00
             18.731137    0.03349459952309
             2.8253937    0.23472694665786
             0.6401217    0.81375731841339
 s    1 1.00
             0.1612778                   1

29 0
 s    3 1.00
             18.731137    0.03349459952309
             2.8253937    0.23472694665786
             0.6401217    0.81375731841339
 s    1 1.00
             0.1612778                   1

30 0
 s    3 1.00
             18.731137    0.03349459952309
             2.8253937    0.23472694665786
             0.6401217    0.81375731841339
 s    1 1.00
             0.1612778                   1

31 0
 s    3 1.00
             18.731137    0.03349459952309
             2.8253937    0.23472694665786
             0.6401217    0.81375731841339
 s    1 1.00
             0.1612778                   1

32 0
 s    3 1.00
             18.731137    0.03349459952309
             2.8253937    0.23472694665786
             0.6401217    0.81375731841339
 s    1 1.00
             0.1612778                   1

33 0
 s    6 1.00
             3047.5249  0.0018347001629433
             457.36951    0.01403730124668
             103.94869   0.068842606114048
             29.210155    0.23218442062076
              9.286663    0.46794134155879
              3.163927    0.36231203217765
 s    3 1.00
             7.8682724   -0.11933240861517
             1.8812885   -0.16085421161283
             0.5442493     1.1434564825515
 s    1 1.00
             0.1687144                   1
 p    3 1.00
             7.8682724   0.068999095584993
             1.8812885    0.31642397975315
             0.5442493    0.74430825237435
 p    1 1.00
             0.1687144                   1
 d    1 1.00
                   0.8                   1

34 0
 s    6 1.00
             3047.5249  0.0018347001629433
             457.36951    0.01403730124668
             103.94869   0.068842606114048
             29.210155    0.23218442062076
              9.286663    0.46794134155879
              3.163927    0.36231203217765
 s    3 1.00
             7.8682724   -0.11933240861517
             1.8812885   -0.16085421161283
             0.5442493     1.1434564825515
 s    1 1.00
             0.1687144                   1
 p    3 1.00
             7.8682724   0.068999095584993
             1.8812885    0.31642397975315
             0.5442493    0.74430825237435
 p    1 1.00
             0.1687144                   1
 d    1 1.00
                   0.8                   1

35 0
 s    3 1.00
             18.731137    0.03349459952309
             2.8253937    0.23472694665786
             0.6401217    0.81375731841339
 s    1 1.00
             0.1612778                   1

36 0
 s    6 1.00
             3047.5249  0.0018347001629433
             457.36951    0.01403730124668
             103.94869   0.068842606114048
             29.210155    0.23218442062076
              9.286663    0.46794134155879
              3.163927    0.36231203217765
 s    3 1.00
             7.8682724   -0.11933240861517
             1.8812885   -0.16085421161283
             0.5442493     1.1434564825515
 s    1 1.00
             0.1687144                   1
 p    3 1.00
             7.8682724   0.068999095584993
             1.8812885    0.31642397975315
             0.5442493    0.74430825237435
 p    1 1.00
             0.1687144                   1
 d    1 1.00
                   0.8                   1

37 0
 s    3 1.00
             18.731137    0.03349459952309
             2.8253937    0.23472694665786
             0.6401217    0.81375731841339
 s    1 1.00
             0.1612778                   1

38 0
 s    3 1.00
             18.731137    0.03349459952309
             2.8253937    0.23472694665786
             0.6401217    0.81375731841339
 s    1 1.00
             0.1612778                   1

39 0
 s    6 1.00
             3047.5249  0.0018347001629433
             457.36951    0.01403730124668
             103.94869   0.068842606114048
             29.210155    0.23218442062076
              9.286663    0.46794134155879
              3.163927    0.36231203217765
 s    3 1.00
             7.8682724   -0.11933240861517
             1.8812885   -0.16085421161283
             0.5442493     1.1434564825515
 s    1 1.00
             0.1687144                   1
 p    3 1.00
             7.8682724   0.068999095584993
             1.8812885    0.31642397975315
             0.5442493    0.74430825237435
 p    1 1.00
             0.1687144                   1
 d    1 1.00
                   0.8                   1

40 0
 s    6 1.00
             3047.5249  0.0018347001629433
             457.36951    0.01403730124668
             103.94869   0.068842606114048
             29.210155    0.23218442062076
              9.286663    0.46794134155879
              3.163927    0.36231203217765
 s    3 1.00
             7.8682724   -0.11933240861517
             1.8812885   -0.16085421161283
             0.5442493     1.1434564825515
 s    1 1.00
             0.1687144                   1
 p    3 1.00
             7.8682724   0.068999095584993
             1.8812885    0.31642397975315
             0.5442493    0.74430825237435
 p    1 1.00
             0.1687144                   1
 d    1 1.00
                   0.8                   1

41 0
 s    3 1.00
             18.731137    0.03349459952309
             2.8253937    0.23472694665786
             0.6401217    0.81375731841339
 s    1 1.00
             0.1612778                   1

42 0
 s    6 1.00
             5484.6717   0.001831099805527
             825.23495   0.013950098518422
             188.04696    0.06844509273075
               52.9645    0.23271427528445
              16.89757    0.47019295006289
             5.7996353    0.35852086192309
 s    3 1.00
             15.539616   -0.11077750382508
             3.5999336   -0.14802630511126
             1.0137618     1.1307670390447
 s    1 1.00
             0.2700058                   1
 p    3 1.00
             15.539616   0.070874299543311
             3.5999336    0.33975279781076
             1.0137618    0.72715859531445
 p    1 1.00
             0.2700058                   1
 d    1 1.00
                   0.8                   1

43 0
 s    3 1.00
             18.731137    0.03349459952309
             2.8253937    0.23472694665786
             0.6401217    0.81375731841339
 s    1 1.00
             0.1612778                   1

[5d]
[7f]
[9g]

[MO]
 Sym= A
 Ene=               0
 Spin= Alpha
 Occup=    1.00000
   1    7.5274320777637e-06
   2    6.0108530930517e-05
   3    -0.00082687110297254
   4    2.3485609032309e-05
   5    -2.5299585478643e-05
   6    -2.3758576260027e-06
   7    6.0177940956799e-05
   8    7.5860522499837e-05
   9    0.00050797743143898
  10    -2.2384650772454e-05
  11    -1.5990966396304e-05
  12    -6.4831691561141e-06
  13    2.3305664133555e-06
  14    -3.2173336349743e-06
  15    1.377639653658e-05
  16    2.7892256983566e-05
  17    -1.2573712348038e-05
  18    -2.3194115247075e-05
  19    0.0015822229729655
  20    3.6343467390903e-05
  21    1.0983516905461e-05
  22    -6.4087938350001e-05
  23     0.001003290633142
  24    -3.0267561680323e-05
  25      6.6959787082e-05
  26    3.3878478182178e-05
  27    -2.6703208341478e-05
  28    1.4134834307458e-05
  29    2.7230414361266e-05
  30    2.5614331953667e-05
  31    2.9673025450154e-05
  32    0.00020341994524284
  33    5.4303398395024e-05
  34    0.00034023040152106
  35    -0.0047097161368779
  36    -0.00011236349548627
  37    -1.0382230102843e-05
  38    9.0776141886734e-05
  39    -0.0019667040696552
  40    0.0011615808585729
  41    -0.00070305045142466
  42    2.3969918759926e-05
  43    7.4585729641332e-05
  44    2.5778863329727e-05
  45    -0.00010702323399402
  46    6.9551998094112e-05
  47    -3.4788303901928e-05
  48    -0.00037713222706093
  49    2.446788381212e-06
  50    0.00010567567097763
  51    0.0037591093382285
  52    0.00033886726363113
  53    -0.00010340368515514
  54    -7.8773689623154e-05
  55    -0.0037228018183083
  56    0.0012645090380739
  57    0.0005688964813002
  58    -0.00015422511922793
  59    9.6810950144055e-06
  60    0.00013725659422845
  61    9.4178782290411e-05
  62    -6.6246431808674e-05
  63    0.0002760944829115
  64    0.00015575893323569
  65    1.561152267406e-07
  66    -7.8084227479913e-07
  67    3.2547833718024e-08
  68    1.8074706977818e-07
  69    1.5446094668252e-06
  70    -3.0350959829578e-07
  71    3.9939162944351e-07
  72    1.2694917770071e-07
  73    -1.3483231669821e-06
  74    -6.3964507207458e-07
  75    1.6035772136818e-07
  76    -2.0558067464527e-07
  77    -1.6180862750055e-07
  78    -3.9330374482578e-08
  79    -7.508940548126e-08
  80    -1.7048609137404e-07
  81    -1.0696779376475e-07
  82    -9.3240521338979e-07
  83    -1.5469360133073e-07
  84    -1.6706399960155e-06
  85    -1.0490242671086e-05
  86    5.8031730044007e-07
  87    -5.7152316710602e-07
  88    4.9326898529597e-07
  89    -2.3053297599033e-08
  90    4.1969711582425e-06
  91    5.2186767865902e-06
  92    1.535391190336e-07
  93    2.0367279169665e-08
  94    -2.2207030141203e-07
  95    3.1876573894208e-07
  96    -1.4847243887439e-07
  97    -3.6216000401106e-07
  98    -9.5485851070289e-07
  99    6.8811336036055e-07
 100    1.2642775780494e-06
 101    4.3440617492776e-07
 102    2.1902146932857e-06
 103    -4.767204728089e-05
 104    1.4973613929015e-06
 105    -4.7785833826324e-07
 106    4.5301674245035e-08
 107    3.7624549709693e-06
 108    -4.9584582868415e-06
 109    4.2823115235195e-05
 110    -6.0738428370394e-07
 111    -1.2398557244164e-06
 112    5.1417113726491e-07
 113    -7.6852095279953e-08
 114    3.8530697584289e-07
 115    -3.9329802775215e-07
 116    -3.3337481094996e-06
 117    2.7036916226867e-05
 118    -4.136315986946e-07
 119    -4.6179696710271e-07
 120    1.3211783149453e-06
 121    -1.162015634148e-05
 122    1.1733256829653e-05
 123    4.9967874093598e-07
 124    -5.225256923898e-07
 125    -1.7153552162041e-07
 126    6.8522741830248e-07
 127    5.1301531851951e-07
 128    -3.5392375234808e-07
 129    -1.0759838995777e-06
 130    -6.9185165716182e-06
 131    5.5291418285281e-05
 132    -2.4676506384232e-06
 133    1.2984946082213e-06
 134    2.618601059445e-06
 135    4.8222018034768e-05
 136    -1.6315625594949e-05
 137    -8.2477531436241e-05
 138    2.5070173168411e-06
 139    1.1563961180095e-06
 140    -1.4104021418343e-06
 141    3.4471132031186e-07
 142    -1.5696730708634e-06
 143    -6.9687570103689e-07
 144    -5.144677337653e-06
 145    5.6991207223897e-05
 146    -4.1247000633199e-07
 147    -1.826254708177e-07
 148    -2.4700671155479e-06
 149    2.8727829399215e-05
 150    -1.9998574575896e-05
 151    5.4455160155948e-06
 152    -1.5897615713971e-07
 153    -3.4373042095702e-07
 154    9.1050919648265e-07
 155    7.2059375683152e-07
 156    -5.5933162987579e-07
 157    -2.7574111841113e-07
 158    -2.605536712117e-06
 159    1.4331811428986e-05
 160    -2.1043957058644e-07
 161    -7.4458081727646e-08
 162    2.2360125815914e-07
 163    -8.7881223867826e-07
 164    -5.5663400165562e-06
 165    -1.6810988636615e-06
 166    1.8128555755002e-08
 167    -3.0215227808307e-07
 168    6.3204082490372e-08
 169    -4.736150235544e-07
 170    1.3925063615007e-07
 171    1.3109183834614e-08
 172    1.9515571348007e-07
 173    1.3125717455796e-07
 174    3.3949388756597e-07
 175    -9.2445566629355e-08
 176    -8.1854197879024e-07
 177    -8.1833588235896e-06
 178    1.9939872493126e-06
 179    -1.644511490898e-06
 180    1.1523717980026e-07
 181    -7.322565341088e-07
 182    2.0363864178087e-07
 183    -7.5318083254119e-07
 184    -4.7428933425804e-07
 185    2.1496481041976e-07
 186    1.1232863835331e-06
 187    -2.0183448270728e-05
 188    5.9075090227139e-07
 189    2.5128242316893e-07
 190    1.4488607758377e-06
 191    2.8149890644679e-06
 192    4.2943129063321e-06
 193    6.9748771241936e-06
 194    -4.1973883640585e-07
 195    -5.657475487179e-07
 196    -4.033563481552e-07
 197    4.4467009648935e-07
 198    -3.6574261121317e-07
 199    6.9575699561159e-07
 200    -8.812085825983e-07
 201    3.227659408804e-07
 202    2.0538383823417e-06
 203    2.3098672424215e-08
 204    3.6693411142428e-06
 205    -1.7618550245069e-06
 206    -4.7386497179749e-07
 207    -1.9830551246448e-06
 208    -1.3307491112435e-06
 209    -4.9291552081164e-07
 210    -4.3875896765415e-06
 211    -3.796042998953e-07
 212    1.3427184673336e-07
 213    -5.5469615230782e-07
 214    1.1137660505765e-06
 215    1.6788738566963e-06
 216    -8.5739952158688e-06
 217    -6.2397664433213e-07
 218    -1.656170391444e-06
 219    1.7538390089777e-07
 220    2.7713707196326e-06
 221    2.2888713147474e-06
 222    1.3613479024884e-05
 223    -0.00024401347059728
 224    -4.3340179678507e-07
 225    -3.9480266252197e-06
 226    5.4719145390823e-06
 227    -7.6158627135289e-05
 228    -1.2359314426247e-05
 229    4.8921268897951e-05
 230    -4.8674772945587e-06
 231    1.5093962964005e-06
 232    3.3032212456665e-06
 233    -9.8518353679139e-07
 234    -6.1238577476458e-07
 235    -2.6308859928981e-06
 236    -1.5073631470757e-05
 237    0.00033449887627515
 238    3.8277409298727e-06
 239    6.2437092424071e-06
 240    -9.7714945143493e-06
 241    -0.00014331434790414
 242    -4.2034694647423e-05
 243    2.5312182770452e-05
 244    5.4273272480761e-06
 245    -1.30201882785e-06
 246    -4.6580535585619e-06
 247    1.6162314915412e-06
 248    -4.9184035826317e-07
 249    -1.8931759875141e-06
 250    6.1300693458229e-06
 251    -9.2070435864316e-07
 252    -9.9668164589901e-06
 253    -8.9585207772956e-05
 254    5.1566473447533e-06
 255    1.3754424584588e-06
 256    1.5816777664639e-05
 257    -8.6208070652344e-05
 258    -2.487085821897e-05
 259    -0.0002597073837083
 260    9.3963075455904e-07
 261    -7.9172304558842e-06
 262    2.3705302506633e-06
 263    5.766575144343e-06
 264    -5.0279224976454e-06
 265    1.007147086968e-05
 266    1.1190848249814e-05
 267    -1.5784296485898e-05
 268    -3.4585807317467e-05
 269    -5.071604849059e-05
 270    -0.00012276413358554
 271    0.0030233683469052
 272    0.00012398779213335
 273    -0.00010367108114492
 274    8.292584573379e-05
 275    0.0024977495749548
 276    0.00076700552291322
 277    -0.0029458750452253
 278    -4.4570205080842e-05
 279    -0.00031338600956403
 280    0.00012868108013784