[Molden Format]
made by pyscf v[2.0.1]
[Atoms] (AU)
C   1   6     0.69100024066471     0.64692934207205    -3.48223131169301
H   2   1     2.68052439830868     1.13355088658700    -3.25784032593313
C   3   6    -0.36286361513219     0.85440132524594    -5.97030179418974
H   4   1    -2.35448549047279     0.36322488579172    -6.17995817793143
C   5   6     0.93697958957450     1.61209284601821    -8.05828437677121
H   6   1     0.50725181311820     3.44287068169954    -8.89764684313250
C   7   6     2.86970100877903     0.12057508237944    -9.23991306333710
H   8   1     3.28022106466413    -1.70875314533660    -8.37692190559989
H   9   1     1.55630230933075    -1.92953025305990    12.99630010416247
C   10   6     0.75233899775814    -2.21270439606481    11.10705728102219
H   11   1    -0.43433408177274    -3.90944857546550    11.22216085340412
C   12   6     2.86362581178706    -2.63237380607947     9.17926416456045
H   13   1     4.39038949912609    -1.24955421540245     9.49899813497433
H   14   1     3.74629220191363    -4.48798724300892     9.47414880959024
C   15   6     2.02478325613682    -2.42177285709634     6.44560829588644
C   16   6     3.88048732735477    -3.58795445234514     4.61402886975252
C   17   6    -0.18412382258602    -1.30464291234259     5.76021113872346
C   18   6    -2.10044360464350    -0.26837831858460     7.71610340967100
C   19   6    -3.08956938670431     2.35282328359417     6.88693925039594
C   20   6    -4.37372924086464    -2.09766595989678     7.93610724222001
C   21   6    -0.83850430601230     0.06372213486173    10.33002307638377
H   22   1     0.38411922151109     1.74281358582432    10.27380136542181
H   23   1    -2.30980003007874     0.45460143924521    11.73986301809809
H   24   1     4.58527064644668    -5.38706904487420     5.36778158031719
H   25   1     5.54944938085014    -2.37631462192748     4.35398898413318
H   26   1     3.06633019150423    -3.94118377050688     2.75255466040884
H   27   1    -4.17727778763735     2.26573369139522     5.12914900961283
H   28   1    -1.52662344944051     3.68001877445626     6.59540397144508
H   29   1    -4.32916174397830     3.13643051467482     8.35225460090378
H   30   1    -5.32329548508442    -2.36691813602939     6.11583672749896
H   31   1    -5.77989366602257    -1.33896741843465     9.25748940450990
H   32   1    -3.79310905208926    -3.96389819310853     8.61386170102686
C   33   6    -1.01100794811226    -1.06331657314144     3.11929490449947
C   34   6     0.37686231036534    -0.33275864505552     1.09165013605873
H   35   1    -3.01671213906703    -1.40297922279997     2.77827895090944
C   36   6    -0.64382707979370    -0.11591880174385    -1.42063131251064
H   37   1     2.35569259782137     0.17174499283897     1.33641070251401
H   38   1    -2.63317482980319    -0.60229203511219    -1.66119700387645
C   39   6     4.20991814769739     0.79575668965015   -11.31949989075694
C   40   6     6.14288813089389    -0.86010693489370   -12.38193355267250
H   41   1     3.89481568247576     2.59125541029260   -12.27063769452772
O   42   8     7.41472391465697    -0.37430332261595   -14.24398959848541
H   43   1     6.40229959564941    -2.67780216203268   -11.34807250251721
[GTO]
1 0
 s    6 1.00
             3047.5249  0.0018347001629433
             457.36951    0.01403730124668
             103.94869   0.068842606114048
             29.210155    0.23218442062076
              9.286663    0.46794134155879
              3.163927    0.36231203217765
 s    3 1.00
             7.8682724   -0.11933240861517
             1.8812885   -0.16085421161283
             0.5442493     1.1434564825515
 s    1 1.00
             0.1687144                   1
 p    3 1.00
             7.8682724   0.068999095584993
             1.8812885    0.31642397975315
             0.5442493    0.74430825237435
 p    1 1.00
             0.1687144                   1
 d    1 1.00
                   0.8                   1

2 0
 s    3 1.00
             18.731137    0.03349459952309
             2.8253937    0.23472694665786
             0.6401217    0.81375731841339
 s    1 1.00
             0.1612778                   1

3 0
 s    6 1.00
             3047.5249  0.0018347001629433
             457.36951    0.01403730124668
             103.94869   0.068842606114048
             29.210155    0.23218442062076
              9.286663    0.46794134155879
              3.163927    0.36231203217765
 s    3 1.00
             7.8682724   -0.11933240861517
             1.8812885   -0.16085421161283
             0.5442493     1.1434564825515
 s    1 1.00
             0.1687144                   1
 p    3 1.00
             7.8682724   0.068999095584993
             1.8812885    0.31642397975315
             0.5442493    0.74430825237435
 p    1 1.00
             0.1687144                   1
 d    1 1.00
                   0.8                   1

4 0
 s    3 1.00
             18.731137    0.03349459952309
             2.8253937    0.23472694665786
             0.6401217    0.81375731841339
 s    1 1.00
             0.1612778                   1

5 0
 s    6 1.00
             3047.5249  0.0018347001629433
             457.36951    0.01403730124668
             103.94869   0.068842606114048
             29.210155    0.23218442062076
              9.286663    0.46794134155879
              3.163927    0.36231203217765
 s    3 1.00
             7.8682724   -0.11933240861517
             1.8812885   -0.16085421161283
             0.5442493     1.1434564825515
 s    1 1.00
             0.1687144                   1
 p    3 1.00
             7.8682724   0.068999095584993
             1.8812885    0.31642397975315
             0.5442493    0.74430825237435
 p    1 1.00
             0.1687144                   1
 d    1 1.00
                   0.8                   1

6 0
 s    3 1.00
             18.731137    0.03349459952309
             2.8253937    0.23472694665786
             0.6401217    0.81375731841339
 s    1 1.00
             0.1612778                   1

7 0
 s    6 1.00
             3047.5249  0.0018347001629433
             457.36951    0.01403730124668
             103.94869   0.068842606114048
             29.210155    0.23218442062076
              9.286663    0.46794134155879
              3.163927    0.36231203217765
 s    3 1.00
             7.8682724   -0.11933240861517
             1.8812885   -0.16085421161283
             0.5442493     1.1434564825515
 s    1 1.00
             0.1687144                   1
 p    3 1.00
             7.8682724   0.068999095584993
             1.8812885    0.31642397975315
             0.5442493    0.74430825237435
 p    1 1.00
             0.1687144                   1
 d    1 1.00
                   0.8                   1

8 0
 s    3 1.00
             18.731137    0.03349459952309
             2.8253937    0.23472694665786
             0.6401217    0.81375731841339
 s    1 1.00
             0.1612778                   1

9 0
 s    3 1.00
             18.731137    0.03349459952309
             2.8253937    0.23472694665786
             0.6401217    0.81375731841339
 s    1 1.00
             0.1612778                   1

10 0
 s    6 1.00
             3047.5249  0.0018347001629433
             457.36951    0.01403730124668
             103.94869   0.068842606114048
             29.210155    0.23218442062076
              9.286663    0.46794134155879
              3.163927    0.36231203217765
 s    3 1.00
             7.8682724   -0.11933240861517
             1.8812885   -0.16085421161283
             0.5442493     1.1434564825515
 s    1 1.00
             0.1687144                   1
 p    3 1.00
             7.8682724   0.068999095584993
             1.8812885    0.31642397975315
             0.5442493    0.74430825237435
 p    1 1.00
             0.1687144                   1
 d    1 1.00
                   0.8                   1

11 0
 s    3 1.00
             18.731137    0.03349459952309
             2.8253937    0.23472694665786
             0.6401217    0.81375731841339
 s    1 1.00
             0.1612778                   1

12 0
 s    6 1.00
             3047.5249  0.0018347001629433
             457.36951    0.01403730124668
             103.94869   0.068842606114048
             29.210155    0.23218442062076
              9.286663    0.46794134155879
              3.163927    0.36231203217765
 s    3 1.00
             7.8682724   -0.11933240861517
             1.8812885   -0.16085421161283
             0.5442493     1.1434564825515
 s    1 1.00
             0.1687144                   1
 p    3 1.00
             7.8682724   0.068999095584993
             1.8812885    0.31642397975315
             0.5442493    0.74430825237435
 p    1 1.00
             0.1687144                   1
 d    1 1.00
                   0.8                   1

13 0
 s    3 1.00
             18.731137    0.03349459952309
             2.8253937    0.23472694665786
             0.6401217    0.81375731841339
 s    1 1.00
             0.1612778                   1

14 0
 s    3 1.00
             18.731137    0.03349459952309
             2.8253937    0.23472694665786
             0.6401217    0.81375731841339
 s    1 1.00
             0.1612778                   1

15 0
 s    6 1.00
             3047.5249  0.0018347001629433
             457.36951    0.01403730124668
             103.94869   0.068842606114048
             29.210155    0.23218442062076
              9.286663    0.46794134155879
              3.163927    0.36231203217765
 s    3 1.00
             7.8682724   -0.11933240861517
             1.8812885   -0.16085421161283
             0.5442493     1.1434564825515
 s    1 1.00
             0.1687144                   1
 p    3 1.00
             7.8682724   0.068999095584993
             1.8812885    0.31642397975315
             0.5442493    0.74430825237435
 p    1 1.00
             0.1687144                   1
 d    1 1.00
                   0.8                   1

16 0
 s    6 1.00
             3047.5249  0.0018347001629433
             457.36951    0.01403730124668
             103.94869   0.068842606114048
             29.210155    0.23218442062076
              9.286663    0.46794134155879
              3.163927    0.36231203217765
 s    3 1.00
             7.8682724   -0.11933240861517
             1.8812885   -0.16085421161283
             0.5442493     1.1434564825515
 s    1 1.00
             0.1687144                   1
 p    3 1.00
             7.8682724   0.068999095584993
             1.8812885    0.31642397975315
             0.5442493    0.74430825237435
 p    1 1.00
             0.1687144                   1
 d    1 1.00
                   0.8                   1

17 0
 s    6 1.00
             3047.5249  0.0018347001629433
             457.36951    0.01403730124668
             103.94869   0.068842606114048
             29.210155    0.23218442062076
              9.286663    0.46794134155879
              3.163927    0.36231203217765
 s    3 1.00
             7.8682724   -0.11933240861517
             1.8812885   -0.16085421161283
             0.5442493     1.1434564825515
 s    1 1.00
             0.1687144                   1
 p    3 1.00
             7.8682724   0.068999095584993
             1.8812885    0.31642397975315
             0.5442493    0.74430825237435
 p    1 1.00
             0.1687144                   1
 d    1 1.00
                   0.8                   1

18 0
 s    6 1.00
             3047.5249  0.0018347001629433
             457.36951    0.01403730124668
             103.94869   0.068842606114048
             29.210155    0.23218442062076
              9.286663    0.46794134155879
              3.163927    0.36231203217765
 s    3 1.00
             7.8682724   -0.11933240861517
             1.8812885   -0.16085421161283
             0.5442493     1.1434564825515
 s    1 1.00
             0.1687144                   1
 p    3 1.00
             7.8682724   0.068999095584993
             1.8812885    0.31642397975315
             0.5442493    0.74430825237435
 p    1 1.00
             0.1687144                   1
 d    1 1.00
                   0.8                   1

19 0
 s    6 1.00
             3047.5249  0.0018347001629433
             457.36951    0.01403730124668
             103.94869   0.068842606114048
             29.210155    0.23218442062076
              9.286663    0.46794134155879
              3.163927    0.36231203217765
 s    3 1.00
             7.8682724   -0.11933240861517
             1.8812885   -0.16085421161283
             0.5442493     1.1434564825515
 s    1 1.00
             0.1687144                   1
 p    3 1.00
             7.8682724   0.068999095584993
             1.8812885    0.31642397975315
             0.5442493    0.74430825237435
 p    1 1.00
             0.1687144                   1
 d    1 1.00
                   0.8                   1

20 0
 s    6 1.00
             3047.5249  0.0018347001629433
             457.36951    0.01403730124668
             103.94869   0.068842606114048
             29.210155    0.23218442062076
              9.286663    0.46794134155879
              3.163927    0.36231203217765
 s    3 1.00
             7.8682724   -0.11933240861517
             1.8812885   -0.16085421161283
             0.5442493     1.1434564825515
 s    1 1.00
             0.1687144                   1
 p    3 1.00
             7.8682724   0.068999095584993
             1.8812885    0.31642397975315
             0.5442493    0.74430825237435
 p    1 1.00
             0.1687144                   1
 d    1 1.00
                   0.8                   1

21 0
 s    6 1.00
             3047.5249  0.0018347001629433
             457.36951    0.01403730124668
             103.94869   0.068842606114048
             29.210155    0.23218442062076
              9.286663    0.46794134155879
              3.163927    0.36231203217765
 s    3 1.00
             7.8682724   -0.11933240861517
             1.8812885   -0.16085421161283
             0.5442493     1.1434564825515
 s    1 1.00
             0.1687144                   1
 p    3 1.00
             7.8682724   0.068999095584993
             1.8812885    0.31642397975315
             0.5442493    0.74430825237435
 p    1 1.00
             0.1687144                   1
 d    1 1.00
                   0.8                   1

22 0
 s    3 1.00
             18.731137    0.03349459952309
             2.8253937    0.23472694665786
             0.6401217    0.81375731841339
 s    1 1.00
             0.1612778                   1

23 0
 s    3 1.00
             18.731137    0.03349459952309
             2.8253937    0.23472694665786
             0.6401217    0.81375731841339
 s    1 1.00
             0.1612778                   1

24 0
 s    3 1.00
             18.731137    0.03349459952309
             2.8253937    0.23472694665786
             0.6401217    0.81375731841339
 s    1 1.00
             0.1612778                   1

25 0
 s    3 1.00
             18.731137    0.03349459952309
             2.8253937    0.23472694665786
             0.6401217    0.81375731841339
 s    1 1.00
             0.1612778                   1

26 0
 s    3 1.00
             18.731137    0.03349459952309
             2.8253937    0.23472694665786
             0.6401217    0.81375731841339
 s    1 1.00
             0.1612778                   1

27 0
 s    3 1.00
             18.731137    0.03349459952309
             2.8253937    0.23472694665786
             0.6401217    0.81375731841339
 s    1 1.00
             0.1612778                   1

28 0
 s    3 1.00
             18.731137    0.03349459952309
             2.8253937    0.23472694665786
             0.6401217    0.81375731841339
 s    1 1.00
             0.1612778                   1

29 0
 s    3 1.00
             18.731137    0.03349459952309
             2.8253937    0.23472694665786
             0.6401217    0.81375731841339
 s    1 1.00
             0.1612778                   1

30 0
 s    3 1.00
             18.731137    0.03349459952309
             2.8253937    0.23472694665786
             0.6401217    0.81375731841339
 s    1 1.00
             0.1612778                   1

31 0
 s    3 1.00
             18.731137    0.03349459952309
             2.8253937    0.23472694665786
             0.6401217    0.81375731841339
 s    1 1.00
             0.1612778                   1

32 0
 s    3 1.00
             18.731137    0.03349459952309
             2.8253937    0.23472694665786
             0.6401217    0.81375731841339
 s    1 1.00
             0.1612778                   1

33 0
 s    6 1.00
             3047.5249  0.0018347001629433
             457.36951    0.01403730124668
             103.94869   0.068842606114048
             29.210155    0.23218442062076
              9.286663    0.46794134155879
              3.163927    0.36231203217765
 s    3 1.00
             7.8682724   -0.11933240861517
             1.8812885   -0.16085421161283
             0.5442493     1.1434564825515
 s    1 1.00
             0.1687144                   1
 p    3 1.00
             7.8682724   0.068999095584993
             1.8812885    0.31642397975315
             0.5442493    0.74430825237435
 p    1 1.00
             0.1687144                   1
 d    1 1.00
                   0.8                   1

34 0
 s    6 1.00
             3047.5249  0.0018347001629433
             457.36951    0.01403730124668
             103.94869   0.068842606114048
             29.210155    0.23218442062076
              9.286663    0.46794134155879
              3.163927    0.36231203217765
 s    3 1.00
             7.8682724   -0.11933240861517
             1.8812885   -0.16085421161283
             0.5442493     1.1434564825515
 s    1 1.00
             0.1687144                   1
 p    3 1.00
             7.8682724   0.068999095584993
             1.8812885    0.31642397975315
             0.5442493    0.74430825237435
 p    1 1.00
             0.1687144                   1
 d    1 1.00
                   0.8                   1

35 0
 s    3 1.00
             18.731137    0.03349459952309
             2.8253937    0.23472694665786
             0.6401217    0.81375731841339
 s    1 1.00
             0.1612778                   1

36 0
 s    6 1.00
             3047.5249  0.0018347001629433
             457.36951    0.01403730124668
             103.94869   0.068842606114048
             29.210155    0.23218442062076
              9.286663    0.46794134155879
              3.163927    0.36231203217765
 s    3 1.00
             7.8682724   -0.11933240861517
             1.8812885   -0.16085421161283
             0.5442493     1.1434564825515
 s    1 1.00
             0.1687144                   1
 p    3 1.00
             7.8682724   0.068999095584993
             1.8812885    0.31642397975315
             0.5442493    0.74430825237435
 p    1 1.00
             0.1687144                   1
 d    1 1.00
                   0.8                   1

37 0
 s    3 1.00
             18.731137    0.03349459952309
             2.8253937    0.23472694665786
             0.6401217    0.81375731841339
 s    1 1.00
             0.1612778                   1

38 0
 s    3 1.00
             18.731137    0.03349459952309
             2.8253937    0.23472694665786
             0.6401217    0.81375731841339
 s    1 1.00
             0.1612778                   1

39 0
 s    6 1.00
             3047.5249  0.0018347001629433
             457.36951    0.01403730124668
             103.94869   0.068842606114048
             29.210155    0.23218442062076
              9.286663    0.46794134155879
              3.163927    0.36231203217765
 s    3 1.00
             7.8682724   -0.11933240861517
             1.8812885   -0.16085421161283
             0.5442493     1.1434564825515
 s    1 1.00
             0.1687144                   1
 p    3 1.00
             7.8682724   0.068999095584993
             1.8812885    0.31642397975315
             0.5442493    0.74430825237435
 p    1 1.00
             0.1687144                   1
 d    1 1.00
                   0.8                   1

40 0
 s    6 1.00
             3047.5249  0.0018347001629433
             457.36951    0.01403730124668
             103.94869   0.068842606114048
             29.210155    0.23218442062076
              9.286663    0.46794134155879
              3.163927    0.36231203217765
 s    3 1.00
             7.8682724   -0.11933240861517
             1.8812885   -0.16085421161283
             0.5442493     1.1434564825515
 s    1 1.00
             0.1687144                   1
 p    3 1.00
             7.8682724   0.068999095584993
             1.8812885    0.31642397975315
             0.5442493    0.74430825237435
 p    1 1.00
             0.1687144                   1
 d    1 1.00
                   0.8                   1

41 0
 s    3 1.00
             18.731137    0.03349459952309
             2.8253937    0.23472694665786
             0.6401217    0.81375731841339
 s    1 1.00
             0.1612778                   1

42 0
 s    6 1.00
             5484.6717   0.001831099805527
             825.23495   0.013950098518422
             188.04696    0.06844509273075
               52.9645    0.23271427528445
              16.89757    0.47019295006289
             5.7996353    0.35852086192309
 s    3 1.00
             15.539616   -0.11077750382508
             3.5999336   -0.14802630511126
             1.0137618     1.1307670390447
 s    1 1.00
             0.2700058                   1
 p    3 1.00
             15.539616   0.070874299543311
             3.5999336    0.33975279781076
             1.0137618    0.72715859531445
 p    1 1.00
             0.2700058                   1
 d    1 1.00
                   0.8                   1

43 0
 s    3 1.00
             18.731137    0.03349459952309
             2.8253937    0.23472694665786
             0.6401217    0.81375731841339
 s    1 1.00
             0.1612778                   1

[5d]
[7f]
[9g]

[MO]
 Sym= A
 Ene=               0
 Spin= Alpha
 Occup=    1.00000
   1    5.9079330966203e-07
   2    4.3999483594574e-06
   3    -0.00025077080443738
   4    1.8048605845953e-06
   5    -1.9614388781622e-05
   6    7.3135995701304e-06
   7    7.9491649498183e-05
   8    0.00016249418643493
   9    -0.00019876218445064
  10    -4.2823532210371e-06
  11    4.3336766256331e-06
  12    -2.6115993814569e-06
  13    1.1322707918119e-05
  14    -7.0328789096759e-06
  15    -8.3113867529439e-06
  16    6.0293481781715e-07
  17    3.0662754047872e-06
  18    0.00012069341451884
  19    0.00063779520134676
  20    5.4430034765105e-05
  21    1.487652326856e-06
  22    -6.481840334439e-05
  23    0.00036062049427661
  24    -0.00012778913193596
  25    -0.00038649888992713
  26    2.3012100728357e-05
  27    -2.510438676251e-05
  28    1.9081214918163e-05
  29    3.5708626223356e-05
  30    1.4842708563336e-05
  31    -5.2347989378627e-06
  32    6.6821596009007e-05
  33    5.0651544068486e-05
  34    0.00033414621184426
  35    -0.0042833143273983
  36    -0.00010647923883389
  37    1.1574973674538e-05
  38    0.00012525040212304
  39    -0.0011310207940162
  40    0.0017037912338714
  41    5.7959217934891e-05
  42    8.9367669330301e-06
  43    0.00010709085991312
  44    -2.3138695433887e-05
  45    -2.050490388378e-05
  46    8.8853858415019e-05
  47    -2.1130170417824e-05
  48    -0.00028705085070429
  49    4.4458714195121e-06
  50    0.00011668288907119
  51      0.00349081530411
  52    0.00026053818287806
  53    -0.00019237647538069
  54    -0.00016407802715529
  55    -0.0026314813045461
  56    0.0022184802814333
  57    0.0014737998359949
  58    -7.9721982719028e-05
  59    1.4475983285213e-05
  60    0.00017500229551258
  61    5.9894748096861e-05
  62    -0.00010507911055364
  63    0.00028458796134869
  64    8.6002041700097e-05
  65    -1.1257643031735e-07
  66    -3.6777934236767e-07
  67    -2.4219865427698e-08
  68    -4.1634190434856e-07
  69    2.2778312897705e-06
  70    1.0077905307899e-07
  71    -1.864056295357e-07
  72    1.7522375019924e-07
  73    -1.5406531247057e-08
  74    1.2359542199891e-06
  75    -5.207180563407e-08
  76    -9.3027926937929e-08
  77    -1.2813251437291e-07
  78    2.0496918253757e-08
  79    2.8405448270516e-08
  80    -1.2579883261401e-07
  81    7.3975329488094e-08
  82    1.6736610502786e-08
  83    -2.4837582992677e-08
  84    -6.3688937255377e-07
  85    -1.4393965926316e-05
  86    7.2979879510983e-07
  87    -1.4856134654401e-07
  88    8.7182889332262e-07
  89    2.5370898528467e-06
  90    -2.815785471313e-06
  91    4.3938850089234e-06
  92    1.8183560443233e-07
  93    -2.1707737371111e-07
  94    2.5768929988307e-07
  95    1.3032539307946e-07
  96    -1.769960521673e-07
  97     4.81140886493e-07
  98    4.3441648388355e-07
  99    1.9034619160228e-07
 100    -5.1090221559596e-07
 101    9.3471204627433e-08
 102    1.226665802858e-07
 103    -3.4465338123944e-06
 104    6.5061727451787e-07
 105    -9.1672103395068e-07
 106    -5.8433539658415e-07
 107    -1.4523814188069e-05
 108    1.4104003734819e-05
 109    3.8212878440281e-05
 110    -6.4154739629675e-07
 111    -7.7374691995168e-07
 112    3.1060081778161e-07
 113    9.7390146358997e-08
 114    -3.400044440466e-07
 115    -4.737875026026e-07
 116    -4.2091686108254e-06
 117    3.6076200236453e-05
 118    -6.6663153572132e-07
 119    6.5175423612431e-07
 120    1.0128906818165e-06
 121    -1.0307781049221e-05
 122    4.5622373879368e-06
 123    3.7737473545596e-06
 124    -2.1874167025993e-07
 125    -3.2097732061846e-07
 126    9.3053630342191e-08
 127    2.8801999633077e-07
 128    -4.4418041655794e-07
 129    -1.0445984619867e-06
 130    -8.6189079642795e-06
 131    6.0019101470137e-05
 132    -4.1416702111541e-07
 133    5.5413248445781e-07
 134    3.3066730571348e-06
 135    -7.2121282908682e-06
 136    -7.0556312591834e-06
 137    -9.1346497809553e-05
 138    2.6616417207654e-06
 139    1.7469077803167e-06
 140    -1.2924921268728e-07
 141    4.6453836240897e-07
 142    -3.3816845378271e-07
 143    -6.1755866666844e-07
 144    -5.3485477994146e-06
 145    3.4922205071134e-05
 146    1.7431664656541e-08
 147    1.2885366753486e-07
 148    -1.557672875138e-07
 149    1.8758466725915e-05
 150    -7.981119974732e-06
 151    -3.6886359137521e-06
 152    -7.9461874435611e-07
 153    -4.6810132051241e-07
 154    6.1727451389893e-08
 155    7.644862609856e-07
 156    -8.6640814561371e-07
 157    5.2803001740874e-08
 158    3.1179597826022e-07
 159    1.5227577843078e-06
 160    4.8151174497714e-07
 161    1.1505205949108e-08
 162    -1.7471300059065e-07
 163    -6.2758004811564e-06
 164    -1.4836049119716e-07
 165    4.7103248479555e-07
 166    4.7909412730458e-07
 167    -3.266522368278e-07
 168    4.925135327651e-08
 169    -1.7428774694149e-07
 170    3.4367825340135e-07
 171    1.114427799332e-08
 172    -3.9136516842769e-07
 173    -2.3482230310773e-07
 174    -4.0494531623497e-07
 175    -1.7678383332552e-07
 176    4.504182564937e-07
 177    -1.8255047586362e-06
 178    2.2331378808792e-06
 179    -1.4152415900545e-06
 180    1.1695059801467e-07
 181    3.8032409786425e-08
 182    1.2972269099292e-07
 183    -4.6762605954663e-07
 184    6.5975497967584e-08
 185    -1.9216030146346e-07
 186    -2.260459788878e-06
 187    -3.2575886923932e-06
 188    -2.0493084258521e-08
 189    1.6706152938409e-07
 190    1.3611361340192e-06
 191    2.1194296665988e-06
 192    1.1051509149031e-06
 193    -2.5354391972217e-06
 194    8.6625445838092e-08
 195    -1.4899349240573e-07
 196    1.4981909093507e-07
 197    2.0326860724063e-07
 198    -1.5736234154103e-07
 199    -3.9483012216652e-07
 200    -8.9928291468209e-07
 201    8.4063610208141e-08
 202    3.1549628883226e-06
 203    -1.2830510649312e-06
 204    -3.3286317089392e-07
 205    -5.7813710698148e-07
 206    -2.1983497295738e-06
 207    4.3146634954338e-08
 208    -7.0166325691791e-06
 209    9.6193161938545e-07
 210    -4.7200089716443e-06
 211    4.787822184845e-07
 212    2.5037065188725e-06
 213    -3.3189058281001e-07
 214    -1.6237699683233e-06
 215    -3.1572073408444e-08
 216    -1.1319456694063e-06
 217    3.2045030253563e-08
 218    1.7666486781174e-07
 219    3.0497211795557e-07
 220    1.4555262163787e-06
 221    -1.1948378238469e-07
 222    -3.6006321957841e-06
 223    -6.3728781097873e-05
 224    7.1997170008826e-07
 225    -2.349330583262e-06
 226    4.4565014488608e-06
 227    -1.169603074711e-05
 228    2.1852786133812e-05
 229    -7.5228648215511e-05
 230    -1.9400208472373e-06
 231    -3.4002889360994e-06
 232    -7.7699870953524e-07
 233    1.4285420096347e-06
 234    2.113309709982e-06
 235    -1.1358176638116e-06
 236    -1.0146203352084e-05
 237    7.5346895383629e-05
 238    3.9737142983953e-07
 239    3.7903913872786e-06
 240    1.6640299320716e-06
 241    -4.8869653986012e-05
 242    -1.2349423749487e-05
 243    -5.6356830886442e-05
 244    1.332839717384e-06
 245    5.1419002046301e-06
 246    -2.0966778219048e-07
 247    2.595327504222e-06
 248    1.8430487834059e-07
 249    -4.6340578506487e-06
 250    9.4495195507895e-06
 251    -3.7660528980237e-06
 252    -3.0899491058887e-05
 253    0.00025019452966152
 254    1.9963958538491e-06
 255    -4.324997631632e-06
 256    8.9880436459865e-06
 257    9.2050868762364e-05
 258    6.0362070200048e-05
 259    -0.00027174924603167
 260    3.5820290846433e-06
 261    -1.2233238939491e-05
 262    -2.6868052295506e-06
 263    8.7944030164643e-06
 264    1.2157531966952e-06
 265    -8.710358125775e-07
 266    2.6568309110836e-05
 267    -1.0162395726005e-05
 268    2.1844695404345e-05
 269    -5.0772931312338e-05
 270    -0.00012300307863871
 271    0.0030039065101215
 272    7.7272173026615e-05
 273    -0.00016671016249775
 274    3.0354526730913e-05
 275    0.0022479434973347
 276    0.00063103602614737
 277    -0.0031186803557989
 278    0.00010811291225039
 279    -0.00025813424216466
 280    0.00017503591465875