[Molden Format]
made by pyscf v[2.0.1]
[Atoms] (AU)
C   1   6     0.69100024066471     0.64692934207205    -3.48223131169301
H   2   1     2.68052439830868     1.13355088658700    -3.25784032593313
C   3   6    -0.36286361513219     0.85440132524594    -5.97030179418974
H   4   1    -2.35448549047279     0.36322488579172    -6.17995817793143
C   5   6     0.93697958957450     1.61209284601821    -8.05828437677121
H   6   1     0.93570604399073     3.60645829547735    -8.57155587183010
C   7   6     2.33064164489587    -0.08500019610028    -9.65009622470686
H   8   1     2.31545752956704    -2.07726916449957    -9.11124928966168
H   9   1     1.55630230933075    -1.92953025305990    12.99630010416247
C   10   6     0.75233899775814    -2.21270439606481    11.10705728102219
H   11   1    -0.43433408177274    -3.90944857546550    11.22216085340412
C   12   6     2.86362581178706    -2.63237380607947     9.17926416456045
H   13   1     4.39038949912609    -1.24955421540245     9.49899813497433
H   14   1     3.74629220191363    -4.48798724300892     9.47414880959024
C   15   6     2.02478325613682    -2.42177285709634     6.44560829588644
C   16   6     3.88048732735477    -3.58795445234514     4.61402886975252
C   17   6    -0.18412382258602    -1.30464291234259     5.76021113872346
C   18   6    -2.10044360464350    -0.26837831858460     7.71610340967100
C   19   6    -3.08956938670431     2.35282328359417     6.88693925039594
C   20   6    -4.37372924086464    -2.09766595989678     7.93610724222001
C   21   6    -0.83850430601230     0.06372213486173    10.33002307638377
H   22   1     0.38411922151109     1.74281358582432    10.27380136542181
H   23   1    -2.30980003007874     0.45460143924521    11.73986301809809
H   24   1     4.58527064644668    -5.38706904487420     5.36778158031719
H   25   1     5.54944938085014    -2.37631462192748     4.35398898413318
H   26   1     3.06633019150423    -3.94118377050688     2.75255466040884
H   27   1    -4.17727778763735     2.26573369139522     5.12914900961283
H   28   1    -1.52662344944051     3.68001877445626     6.59540397144508
H   29   1    -4.32916174397830     3.13643051467482     8.35225460090378
H   30   1    -5.32329548508442    -2.36691813602939     6.11583672749896
H   31   1    -5.77989366602257    -1.33896741843465     9.25748940450990
H   32   1    -3.79310905208926    -3.96389819310853     8.61386170102686
C   33   6    -1.01100794811226    -1.06331657314144     3.11929490449947
C   34   6     0.37686231036534    -0.33275864505552     1.09165013605873
H   35   1    -3.01671213906703    -1.40297922279997     2.77827895090944
C   36   6    -0.64382707979370    -0.11591880174385    -1.42063131251064
H   37   1     2.35569259782137     0.17174499283897     1.33641070251401
H   38   1    -2.63317482980319    -0.60229203511219    -1.66119700387645
C   39   6     3.64869579482306     0.58263290243353   -11.74621951745329
C   40   6     5.00865186237336    -1.29151691020822   -13.24458681490645
H   41   1     3.74083961582251     2.53414495508714   -12.38721761884598
O   42   8     6.22738846457655    -0.82464446464225   -15.14656876600025
H   43   1     4.86298794977594    -3.26455446446118   -12.51927050350916
[GTO]
1 0
 s    6 1.00
             3047.5249  0.0018347001629433
             457.36951    0.01403730124668
             103.94869   0.068842606114048
             29.210155    0.23218442062076
              9.286663    0.46794134155879
              3.163927    0.36231203217765
 s    3 1.00
             7.8682724   -0.11933240861517
             1.8812885   -0.16085421161283
             0.5442493     1.1434564825515
 s    1 1.00
             0.1687144                   1
 p    3 1.00
             7.8682724   0.068999095584993
             1.8812885    0.31642397975315
             0.5442493    0.74430825237435
 p    1 1.00
             0.1687144                   1
 d    1 1.00
                   0.8                   1

2 0
 s    3 1.00
             18.731137    0.03349459952309
             2.8253937    0.23472694665786
             0.6401217    0.81375731841339
 s    1 1.00
             0.1612778                   1

3 0
 s    6 1.00
             3047.5249  0.0018347001629433
             457.36951    0.01403730124668
             103.94869   0.068842606114048
             29.210155    0.23218442062076
              9.286663    0.46794134155879
              3.163927    0.36231203217765
 s    3 1.00
             7.8682724   -0.11933240861517
             1.8812885   -0.16085421161283
             0.5442493     1.1434564825515
 s    1 1.00
             0.1687144                   1
 p    3 1.00
             7.8682724   0.068999095584993
             1.8812885    0.31642397975315
             0.5442493    0.74430825237435
 p    1 1.00
             0.1687144                   1
 d    1 1.00
                   0.8                   1

4 0
 s    3 1.00
             18.731137    0.03349459952309
             2.8253937    0.23472694665786
             0.6401217    0.81375731841339
 s    1 1.00
             0.1612778                   1

5 0
 s    6 1.00
             3047.5249  0.0018347001629433
             457.36951    0.01403730124668
             103.94869   0.068842606114048
             29.210155    0.23218442062076
              9.286663    0.46794134155879
              3.163927    0.36231203217765
 s    3 1.00
             7.8682724   -0.11933240861517
             1.8812885   -0.16085421161283
             0.5442493     1.1434564825515
 s    1 1.00
             0.1687144                   1
 p    3 1.00
             7.8682724   0.068999095584993
             1.8812885    0.31642397975315
             0.5442493    0.74430825237435
 p    1 1.00
             0.1687144                   1
 d    1 1.00
                   0.8                   1

6 0
 s    3 1.00
             18.731137    0.03349459952309
             2.8253937    0.23472694665786
             0.6401217    0.81375731841339
 s    1 1.00
             0.1612778                   1

7 0
 s    6 1.00
             3047.5249  0.0018347001629433
             457.36951    0.01403730124668
             103.94869   0.068842606114048
             29.210155    0.23218442062076
              9.286663    0.46794134155879
              3.163927    0.36231203217765
 s    3 1.00
             7.8682724   -0.11933240861517
             1.8812885   -0.16085421161283
             0.5442493     1.1434564825515
 s    1 1.00
             0.1687144                   1
 p    3 1.00
             7.8682724   0.068999095584993
             1.8812885    0.31642397975315
             0.5442493    0.74430825237435
 p    1 1.00
             0.1687144                   1
 d    1 1.00
                   0.8                   1

8 0
 s    3 1.00
             18.731137    0.03349459952309
             2.8253937    0.23472694665786
             0.6401217    0.81375731841339
 s    1 1.00
             0.1612778                   1

9 0
 s    3 1.00
             18.731137    0.03349459952309
             2.8253937    0.23472694665786
             0.6401217    0.81375731841339
 s    1 1.00
             0.1612778                   1

10 0
 s    6 1.00
             3047.5249  0.0018347001629433
             457.36951    0.01403730124668
             103.94869   0.068842606114048
             29.210155    0.23218442062076
              9.286663    0.46794134155879
              3.163927    0.36231203217765
 s    3 1.00
             7.8682724   -0.11933240861517
             1.8812885   -0.16085421161283
             0.5442493     1.1434564825515
 s    1 1.00
             0.1687144                   1
 p    3 1.00
             7.8682724   0.068999095584993
             1.8812885    0.31642397975315
             0.5442493    0.74430825237435
 p    1 1.00
             0.1687144                   1
 d    1 1.00
                   0.8                   1

11 0
 s    3 1.00
             18.731137    0.03349459952309
             2.8253937    0.23472694665786
             0.6401217    0.81375731841339
 s    1 1.00
             0.1612778                   1

12 0
 s    6 1.00
             3047.5249  0.0018347001629433
             457.36951    0.01403730124668
             103.94869   0.068842606114048
             29.210155    0.23218442062076
              9.286663    0.46794134155879
              3.163927    0.36231203217765
 s    3 1.00
             7.8682724   -0.11933240861517
             1.8812885   -0.16085421161283
             0.5442493     1.1434564825515
 s    1 1.00
             0.1687144                   1
 p    3 1.00
             7.8682724   0.068999095584993
             1.8812885    0.31642397975315
             0.5442493    0.74430825237435
 p    1 1.00
             0.1687144                   1
 d    1 1.00
                   0.8                   1

13 0
 s    3 1.00
             18.731137    0.03349459952309
             2.8253937    0.23472694665786
             0.6401217    0.81375731841339
 s    1 1.00
             0.1612778                   1

14 0
 s    3 1.00
             18.731137    0.03349459952309
             2.8253937    0.23472694665786
             0.6401217    0.81375731841339
 s    1 1.00
             0.1612778                   1

15 0
 s    6 1.00
             3047.5249  0.0018347001629433
             457.36951    0.01403730124668
             103.94869   0.068842606114048
             29.210155    0.23218442062076
              9.286663    0.46794134155879
              3.163927    0.36231203217765
 s    3 1.00
             7.8682724   -0.11933240861517
             1.8812885   -0.16085421161283
             0.5442493     1.1434564825515
 s    1 1.00
             0.1687144                   1
 p    3 1.00
             7.8682724   0.068999095584993
             1.8812885    0.31642397975315
             0.5442493    0.74430825237435
 p    1 1.00
             0.1687144                   1
 d    1 1.00
                   0.8                   1

16 0
 s    6 1.00
             3047.5249  0.0018347001629433
             457.36951    0.01403730124668
             103.94869   0.068842606114048
             29.210155    0.23218442062076
              9.286663    0.46794134155879
              3.163927    0.36231203217765
 s    3 1.00
             7.8682724   -0.11933240861517
             1.8812885   -0.16085421161283
             0.5442493     1.1434564825515
 s    1 1.00
             0.1687144                   1
 p    3 1.00
             7.8682724   0.068999095584993
             1.8812885    0.31642397975315
             0.5442493    0.74430825237435
 p    1 1.00
             0.1687144                   1
 d    1 1.00
                   0.8                   1

17 0
 s    6 1.00
             3047.5249  0.0018347001629433
             457.36951    0.01403730124668
             103.94869   0.068842606114048
             29.210155    0.23218442062076
              9.286663    0.46794134155879
              3.163927    0.36231203217765
 s    3 1.00
             7.8682724   -0.11933240861517
             1.8812885   -0.16085421161283
             0.5442493     1.1434564825515
 s    1 1.00
             0.1687144                   1
 p    3 1.00
             7.8682724   0.068999095584993
             1.8812885    0.31642397975315
             0.5442493    0.74430825237435
 p    1 1.00
             0.1687144                   1
 d    1 1.00
                   0.8                   1

18 0
 s    6 1.00
             3047.5249  0.0018347001629433
             457.36951    0.01403730124668
             103.94869   0.068842606114048
             29.210155    0.23218442062076
              9.286663    0.46794134155879
              3.163927    0.36231203217765
 s    3 1.00
             7.8682724   -0.11933240861517
             1.8812885   -0.16085421161283
             0.5442493     1.1434564825515
 s    1 1.00
             0.1687144                   1
 p    3 1.00
             7.8682724   0.068999095584993
             1.8812885    0.31642397975315
             0.5442493    0.74430825237435
 p    1 1.00
             0.1687144                   1
 d    1 1.00
                   0.8                   1

19 0
 s    6 1.00
             3047.5249  0.0018347001629433
             457.36951    0.01403730124668
             103.94869   0.068842606114048
             29.210155    0.23218442062076
              9.286663    0.46794134155879
              3.163927    0.36231203217765
 s    3 1.00
             7.8682724   -0.11933240861517
             1.8812885   -0.16085421161283
             0.5442493     1.1434564825515
 s    1 1.00
             0.1687144                   1
 p    3 1.00
             7.8682724   0.068999095584993
             1.8812885    0.31642397975315
             0.5442493    0.74430825237435
 p    1 1.00
             0.1687144                   1
 d    1 1.00
                   0.8                   1

20 0
 s    6 1.00
             3047.5249  0.0018347001629433
             457.36951    0.01403730124668
             103.94869   0.068842606114048
             29.210155    0.23218442062076
              9.286663    0.46794134155879
              3.163927    0.36231203217765
 s    3 1.00
             7.8682724   -0.11933240861517
             1.8812885   -0.16085421161283
             0.5442493     1.1434564825515
 s    1 1.00
             0.1687144                   1
 p    3 1.00
             7.8682724   0.068999095584993
             1.8812885    0.31642397975315
             0.5442493    0.74430825237435
 p    1 1.00
             0.1687144                   1
 d    1 1.00
                   0.8                   1

21 0
 s    6 1.00
             3047.5249  0.0018347001629433
             457.36951    0.01403730124668
             103.94869   0.068842606114048
             29.210155    0.23218442062076
              9.286663    0.46794134155879
              3.163927    0.36231203217765
 s    3 1.00
             7.8682724   -0.11933240861517
             1.8812885   -0.16085421161283
             0.5442493     1.1434564825515
 s    1 1.00
             0.1687144                   1
 p    3 1.00
             7.8682724   0.068999095584993
             1.8812885    0.31642397975315
             0.5442493    0.74430825237435
 p    1 1.00
             0.1687144                   1
 d    1 1.00
                   0.8                   1

22 0
 s    3 1.00
             18.731137    0.03349459952309
             2.8253937    0.23472694665786
             0.6401217    0.81375731841339
 s    1 1.00
             0.1612778                   1

23 0
 s    3 1.00
             18.731137    0.03349459952309
             2.8253937    0.23472694665786
             0.6401217    0.81375731841339
 s    1 1.00
             0.1612778                   1

24 0
 s    3 1.00
             18.731137    0.03349459952309
             2.8253937    0.23472694665786
             0.6401217    0.81375731841339
 s    1 1.00
             0.1612778                   1

25 0
 s    3 1.00
             18.731137    0.03349459952309
             2.8253937    0.23472694665786
             0.6401217    0.81375731841339
 s    1 1.00
             0.1612778                   1

26 0
 s    3 1.00
             18.731137    0.03349459952309
             2.8253937    0.23472694665786
             0.6401217    0.81375731841339
 s    1 1.00
             0.1612778                   1

27 0
 s    3 1.00
             18.731137    0.03349459952309
             2.8253937    0.23472694665786
             0.6401217    0.81375731841339
 s    1 1.00
             0.1612778                   1

28 0
 s    3 1.00
             18.731137    0.03349459952309
             2.8253937    0.23472694665786
             0.6401217    0.81375731841339
 s    1 1.00
             0.1612778                   1

29 0
 s    3 1.00
             18.731137    0.03349459952309
             2.8253937    0.23472694665786
             0.6401217    0.81375731841339
 s    1 1.00
             0.1612778                   1

30 0
 s    3 1.00
             18.731137    0.03349459952309
             2.8253937    0.23472694665786
             0.6401217    0.81375731841339
 s    1 1.00
             0.1612778                   1

31 0
 s    3 1.00
             18.731137    0.03349459952309
             2.8253937    0.23472694665786
             0.6401217    0.81375731841339
 s    1 1.00
             0.1612778                   1

32 0
 s    3 1.00
             18.731137    0.03349459952309
             2.8253937    0.23472694665786
             0.6401217    0.81375731841339
 s    1 1.00
             0.1612778                   1

33 0
 s    6 1.00
             3047.5249  0.0018347001629433
             457.36951    0.01403730124668
             103.94869   0.068842606114048
             29.210155    0.23218442062076
              9.286663    0.46794134155879
              3.163927    0.36231203217765
 s    3 1.00
             7.8682724   -0.11933240861517
             1.8812885   -0.16085421161283
             0.5442493     1.1434564825515
 s    1 1.00
             0.1687144                   1
 p    3 1.00
             7.8682724   0.068999095584993
             1.8812885    0.31642397975315
             0.5442493    0.74430825237435
 p    1 1.00
             0.1687144                   1
 d    1 1.00
                   0.8                   1

34 0
 s    6 1.00
             3047.5249  0.0018347001629433
             457.36951    0.01403730124668
             103.94869   0.068842606114048
             29.210155    0.23218442062076
              9.286663    0.46794134155879
              3.163927    0.36231203217765
 s    3 1.00
             7.8682724   -0.11933240861517
             1.8812885   -0.16085421161283
             0.5442493     1.1434564825515
 s    1 1.00
             0.1687144                   1
 p    3 1.00
             7.8682724   0.068999095584993
             1.8812885    0.31642397975315
             0.5442493    0.74430825237435
 p    1 1.00
             0.1687144                   1
 d    1 1.00
                   0.8                   1

35 0
 s    3 1.00
             18.731137    0.03349459952309
             2.8253937    0.23472694665786
             0.6401217    0.81375731841339
 s    1 1.00
             0.1612778                   1

36 0
 s    6 1.00
             3047.5249  0.0018347001629433
             457.36951    0.01403730124668
             103.94869   0.068842606114048
             29.210155    0.23218442062076
              9.286663    0.46794134155879
              3.163927    0.36231203217765
 s    3 1.00
             7.8682724   -0.11933240861517
             1.8812885   -0.16085421161283
             0.5442493     1.1434564825515
 s    1 1.00
             0.1687144                   1
 p    3 1.00
             7.8682724   0.068999095584993
             1.8812885    0.31642397975315
             0.5442493    0.74430825237435
 p    1 1.00
             0.1687144                   1
 d    1 1.00
                   0.8                   1

37 0
 s    3 1.00
             18.731137    0.03349459952309
             2.8253937    0.23472694665786
             0.6401217    0.81375731841339
 s    1 1.00
             0.1612778                   1

38 0
 s    3 1.00
             18.731137    0.03349459952309
             2.8253937    0.23472694665786
             0.6401217    0.81375731841339
 s    1 1.00
             0.1612778                   1

39 0
 s    6 1.00
             3047.5249  0.0018347001629433
             457.36951    0.01403730124668
             103.94869   0.068842606114048
             29.210155    0.23218442062076
              9.286663    0.46794134155879
              3.163927    0.36231203217765
 s    3 1.00
             7.8682724   -0.11933240861517
             1.8812885   -0.16085421161283
             0.5442493     1.1434564825515
 s    1 1.00
             0.1687144                   1
 p    3 1.00
             7.8682724   0.068999095584993
             1.8812885    0.31642397975315
             0.5442493    0.74430825237435
 p    1 1.00
             0.1687144                   1
 d    1 1.00
                   0.8                   1

40 0
 s    6 1.00
             3047.5249  0.0018347001629433
             457.36951    0.01403730124668
             103.94869   0.068842606114048
             29.210155    0.23218442062076
              9.286663    0.46794134155879
              3.163927    0.36231203217765
 s    3 1.00
             7.8682724   -0.11933240861517
             1.8812885   -0.16085421161283
             0.5442493     1.1434564825515
 s    1 1.00
             0.1687144                   1
 p    3 1.00
             7.8682724   0.068999095584993
             1.8812885    0.31642397975315
             0.5442493    0.74430825237435
 p    1 1.00
             0.1687144                   1
 d    1 1.00
                   0.8                   1

41 0
 s    3 1.00
             18.731137    0.03349459952309
             2.8253937    0.23472694665786
             0.6401217    0.81375731841339
 s    1 1.00
             0.1612778                   1

42 0
 s    6 1.00
             5484.6717   0.001831099805527
             825.23495   0.013950098518422
             188.04696    0.06844509273075
               52.9645    0.23271427528445
              16.89757    0.47019295006289
             5.7996353    0.35852086192309
 s    3 1.00
             15.539616   -0.11077750382508
             3.5999336   -0.14802630511126
             1.0137618     1.1307670390447
 s    1 1.00
             0.2700058                   1
 p    3 1.00
             15.539616   0.070874299543311
             3.5999336    0.33975279781076
             1.0137618    0.72715859531445
 p    1 1.00
             0.2700058                   1
 d    1 1.00
                   0.8                   1

43 0
 s    3 1.00
             18.731137    0.03349459952309
             2.8253937    0.23472694665786
             0.6401217    0.81375731841339
 s    1 1.00
             0.1612778                   1

[5d]
[7f]
[9g]

[MO]
 Sym= A
 Ene=               0
 Spin= Alpha
 Occup=    1.00000
   1    1.5682217858133e-06
   2    1.6179637597516e-05
   3    2.7112407851179e-05
   4    4.4176874385882e-06
   5    5.2962377450283e-06
   6    -1.2617717912914e-05
   7    -3.9049073567935e-05
   8    -0.00011659834817383
   9    0.00036511609848998
  10    3.8878126315124e-08
  11    -1.0593375731152e-05
  12    -1.354480272355e-06
  13    -1.3709048000416e-05
  14    7.7089886225109e-06
  15    1.3997701897551e-05
  16    -1.2865044096529e-05
  17    -7.0222098770643e-06
  18    -0.0001587715443965
  19    -0.00041964029839311
  20    -5.5060156988892e-05
  21    6.6928013652006e-06
  22    6.8852578341162e-05
  23    -0.00018355849785374
  24    0.00010697777773861
  25    0.00057058206095409
  26    -2.1117527186946e-05
  27    2.347856526938e-05
  28    -1.2799354538872e-05
  29    -4.1008655467558e-05
  30    -1.0373564727704e-06
  31    1.0770639397684e-05
  32    -3.4239117751923e-05
  33    -5.0921486781111e-05
  34    -0.00034244372769591
  35    0.0042828665100496
  36    9.2561251851173e-05
  37    -1.792652789201e-05
  38    -0.00014172987971002
  39    0.00060584129804008
  40    -0.0018626672766086
  41    -0.00042756430209804
  42    1.6496403539025e-05
  43    -0.00010874529150635
  44    5.8943846115919e-05
  45    -2.1228207330422e-05
  46    -6.2667825711623e-05
  47    1.781948989736e-05
  48    0.00027262631657253
  49    -4.7186603817994e-06
  50    -0.00011680486440725
  51    -0.0034420727702634
  52    -0.00019063803283135
  53    0.00021866256082372
  54    0.00022104890419819
  55    0.0018666731715369
  56    -0.002487693836648
  57    -0.0020773364710107
  58    3.3613872196331e-05
  59    -3.1269184174927e-05
  60    -0.00018692318893799
  61    -3.3505485142404e-05
  62    0.00011668557498904
  63    -0.00028345943555684
  64    -7.6897502648871e-05
  65    2.086634397189e-07
  66    2.9150980664405e-07
  67    4.0865557442367e-08
  68    5.665475632851e-07
  69    -2.7503187056537e-06
  70    -2.2687275983751e-07
  71    3.3166792336725e-07
  72    -1.3739053160412e-07
  73    -2.6700341863903e-07
  74    -1.6482242255224e-06
  75    -2.0273500078414e-08
  76    5.6617040581993e-08
  77    1.2103223686321e-07
  78    -4.6321604806139e-08
  79    -6.7951194736142e-08
  80    1.0573137320943e-07
  81    -9.4151913871366e-08
  82    -2.0388765069285e-07
  83    -1.8885861596452e-08
  84    2.2760137576677e-07
  85    1.3753728175801e-05
  86    -6.5549928726305e-07
  87    -3.4283570746998e-08
  88    -9.0268108915455e-07
  89    -3.3105549441287e-06
  90    4.6785965327018e-06
  91    -3.4339093428214e-06
  92    -1.7409437559047e-07
  93    2.7757826800653e-07
  94    -3.5490441074298e-07
  95    -4.9580632801654e-08
  96    1.6288544909108e-07
  97    -6.5948248704959e-07
  98    -8.1529940722599e-07
  99    2.7447083132594e-09
 100    1.0510400846838e-06
 101    5.1558569495462e-08
 102    7.9791325277018e-07
 103    -1.2693405001945e-05
 104    -2.6499032161472e-07
 105    9.3787196125626e-07
 106    6.4488981133628e-07
 107    1.921743700033e-05
 108    -1.7871141600031e-05
 109    -3.1616614062106e-05
 110    5.9366388672035e-07
 111    5.5583253627091e-07
 112    -2.3468478956057e-07
 113    -3.0353964365668e-07
 114    5.1123853951833e-07
 115    4.8005498106946e-07
 116    4.4015459799044e-06
 117    -3.6336249735362e-05
 118    6.7155637784349e-07
 119    -9.8185824616527e-07
 120    -8.6559986540583e-07
 121    8.5901455351292e-06
 122    -1.3851498231593e-06
 123    -3.0739269610004e-06
 124    8.8180771824697e-08
 125    2.5276976589926e-07
 126    1.1130036679812e-07
 127    -1.2666852571068e-07
 128    3.773560681316e-07
 129    9.6061869528046e-07
 130    8.6650644698426e-06
 131    -5.277841470046e-05
 132    -1.7544825666662e-07
 133    1.2665483127758e-07
 134    -3.4080461002369e-06
 135    2.3727658102531e-05
 136    1.9236784570455e-07
 137    8.2978489997298e-05
 138    -2.5032688333645e-06
 139    -1.6068251166067e-06
 140    -2.3115387929915e-07
 141    -4.2273541763939e-07
 142    -4.9596002876164e-08
 143    4.4452453588488e-07
 144    4.1229559004298e-06
 145    -2.1238045101321e-05
 146    -2.1005213282718e-07
 147    -4.4010354920637e-07
 148    -3.9344825852826e-07
 149    -1.2611954130051e-05
 150    6.1877280625531e-06
 151    3.4451709175937e-06
 152    9.865119131093e-07
 153    3.9423285840166e-07
 154    1.2054166204247e-07
 155    -7.2263546468159e-07
 156    7.7346668706782e-07
 157    -1.0656147723032e-07
 158    -8.5963285337501e-07
 159    -2.337384783686e-07
 160    -6.8656146953067e-07
 161    7.0107185812845e-08
 162    1.1648267668489e-07
 163    6.4309157906374e-06
 164    -3.4605900293807e-07
 165    -8.3009333062965e-07
 166    -4.7196395616709e-07
 167    1.9642153508779e-07
 168    -2.158892658132e-08
 169    1.1063859560884e-07
 170    -3.0801488200705e-07
 171    -2.3384213519387e-08
 172    4.1485011739419e-07
 173    1.341282585926e-06
 174    6.1583225576681e-07
 175    1.6381078012781e-07
 176    -7.4495724529889e-07
 177    3.6282864803292e-07
 178    -1.7632391644972e-06
 179    1.6453247746717e-06
 180    -1.3558771175452e-07
 181    -2.1248276881758e-07
 182    -4.3718903551027e-08
 183    3.8144862328683e-07
 184    -1.798338614682e-07
 185    2.9119901730581e-07
 186    2.9950376374493e-06
 187    -1.8348537032549e-06
 188    2.1302073033301e-07
 189    -1.3513450655803e-07
 190    -1.1760530605558e-06
 191    -2.1833671340745e-06
 192    -7.3101225021981e-07
 193    5.3628661803742e-06
 194    -2.9295600187483e-07
 195    4.0313455036653e-08
 196    -1.9808356499195e-07
 197    -9.4737225938364e-08
 198     9.32454765393e-08
 199    7.1596286854717e-07
 200    1.1523034792919e-06
 201    -5.3944381120354e-08
 202    -3.2929106211521e-06
 203    1.6291538014766e-06
 204    1.7084262729807e-06
 205    3.1557623248342e-07
 206    2.3759637614146e-06
 207    -1.0451576496728e-06
 208    1.0884855446765e-05
 209    -1.1184523939792e-06
 210    4.3194829273616e-06
 211    -5.127863475196e-07
 212    -2.841055362006e-06
 213    2.2891789833595e-07
 214    2.1292632712016e-06
 215    4.7169531272527e-07
 216    -6.6232106561606e-07
 217    -2.6061799495775e-07
 218    -7.4278797520078e-07
 219    -2.8416274194578e-07
 220    -1.1207722202014e-06
 221    7.2530125319041e-07
 222    7.9341692161547e-06
 223    9.7449280886684e-06
 224    -5.0182548708485e-07
 225    9.7674230886588e-07
 226    -3.7289579655695e-06
 227    -9.960490865666e-06
 228    -2.7262642525239e-05
 229    9.6343677197635e-05
 230    1.1246974961237e-06
 231    4.1415242422443e-06
 232    1.8983338429611e-06
 233    -1.8381811644056e-06
 234    -2.7492700659249e-06
 235    9.9590625418208e-07
 236    1.0538214721827e-05
 237    -2.0324525893697e-05
 238    8.0843145154042e-07
 239    -2.8965100362475e-06
 240    -4.2779033427813e-06
 241    2.1510660683276e-05
 242    7.4879983690543e-06
 243    8.5016991345777e-05
 244    -1.2992977331695e-06
 245    -6.6583769742586e-06
 246    -1.7425616902243e-06
 247    -2.6106600249289e-06
 248    -1.2448357619431e-06
 249    4.308568762113e-06
 250    -1.0449480885517e-05
 251    3.9785468809153e-06
 252    3.2587523788795e-05
 253    -0.00026614884640173
 254    -2.2206821200765e-06
 255    9.0890471422813e-06
 256    -7.5263656055143e-06
 257    -0.00011352771390261
 258    -9.53242321211e-05
 259    0.00024417158306664
 260    -2.5733774208169e-06
 261    1.2214339923724e-05
 262    5.1446816715356e-06
 263    -7.9227496585015e-06
 264    -5.093032887085e-06
 265    4.158668612266e-06
 266    -2.7756028783344e-05
 267    8.3768828172506e-06
 268    -3.7223750815842e-05
 269    5.1176561590345e-05
 270    0.00012564009604164
 271    -0.0030390105577804
 272    -3.4013748032442e-05
 273    0.00018323975306209
 274    1.4247945575759e-06
 275    -0.0020934986413857
 276    -0.00057719223042648
 277    0.0032095010435516
 278    -0.00019346506621634
 279    0.00021706213953222