[Molden Format]
made by pyscf v[2.0.1]
[Atoms] (AU)
C   1   6     0.69100024066471     0.64692934207205    -3.48223131169301
H   2   1     2.68052439830868     1.13355088658700    -3.25784032593313
C   3   6    -0.36286361513219     0.85440132524594    -5.97030179418974
H   4   1    -2.35448549047279     0.36322488579172    -6.17995817793143
C   5   6     0.93697958957450     1.61209284601821    -8.05828437677121
H   6   1     0.91018176739439     3.60165715372829    -8.58918788754706
C   7   6     2.36275315943078    -0.07897264779665    -9.62791837868890
H   8   1     2.37293254336653    -2.06644965927173    -9.07154285055885
H   9   1     1.55630230933075    -1.92953025305990    12.99630010416247
C   10   6     0.75233899775814    -2.21270439606481    11.10705728102219
H   11   1    -0.43433408177274    -3.90944857546550    11.22216085340412
C   12   6     2.86362581178706    -2.63237380607947     9.17926416456045
H   13   1     4.39038949912609    -1.24955421540245     9.49899813497433
H   14   1     3.74629220191363    -4.48798724300892     9.47414880959024
C   15   6     2.02478325613682    -2.42177285709634     6.44560829588644
C   16   6     3.88048732735477    -3.58795445234514     4.61402886975252
C   17   6    -0.18412382258602    -1.30464291234259     5.76021113872346
C   18   6    -2.10044360464350    -0.26837831858460     7.71610340967100
C   19   6    -3.08956938670431     2.35282328359417     6.88693925039594
C   20   6    -4.37372924086464    -2.09766595989678     7.93610724222001
C   21   6    -0.83850430601230     0.06372213486173    10.33002307638377
H   22   1     0.38411922151109     1.74281358582432    10.27380136542181
H   23   1    -2.30980003007874     0.45460143924521    11.73986301809809
H   24   1     4.58527064644668    -5.38706904487420     5.36778158031719
H   25   1     5.54944938085014    -2.37631462192748     4.35398898413318
H   26   1     3.06633019150423    -3.94118377050688     2.75255466040884
H   27   1    -4.17727778763735     2.26573369139522     5.12914900961283
H   28   1    -1.52662344944051     3.68001877445626     6.59540397144508
H   29   1    -4.32916174397830     3.13643051467482     8.35225460090378
H   30   1    -5.32329548508442    -2.36691813602939     6.11583672749896
H   31   1    -5.77989366602257    -1.33896741843465     9.25748940450990
H   32   1    -3.79310905208926    -3.96389819310853     8.61386170102686
C   33   6    -1.01100794811226    -1.06331657314144     3.11929490449947
C   34   6     0.37686231036534    -0.33275864505552     1.09165013605873
H   35   1    -3.01671213906703    -1.40297922279997     2.77827895090944
C   36   6    -0.64382707979370    -0.11591880174385    -1.42063131251064
H   37   1     2.35569259782137     0.17174499283897     1.33641070251401
H   38   1    -2.63317482980319    -0.60229203511219    -1.66119700387645
C   39   6     3.68212070775393     0.58885978377309   -11.72315169981470
C   40   6     5.07620914500435    -1.27889558400184   -13.19794995736473
H   41   1     3.74999971153331     2.53578027550937   -12.38092170581109
O   42   8     6.29809885748056    -0.81150016580158   -15.09777920785750
H   43   1     4.95468191731404    -3.24735743289555   -12.45594726186437
[GTO]
1 0
 s    6 1.00
             3047.5249  0.0018347001629433
             457.36951    0.01403730124668
             103.94869   0.068842606114048
             29.210155    0.23218442062076
              9.286663    0.46794134155879
              3.163927    0.36231203217765
 s    3 1.00
             7.8682724   -0.11933240861517
             1.8812885   -0.16085421161283
             0.5442493     1.1434564825515
 s    1 1.00
             0.1687144                   1
 p    3 1.00
             7.8682724   0.068999095584993
             1.8812885    0.31642397975315
             0.5442493    0.74430825237435
 p    1 1.00
             0.1687144                   1
 d    1 1.00
                   0.8                   1

2 0
 s    3 1.00
             18.731137    0.03349459952309
             2.8253937    0.23472694665786
             0.6401217    0.81375731841339
 s    1 1.00
             0.1612778                   1

3 0
 s    6 1.00
             3047.5249  0.0018347001629433
             457.36951    0.01403730124668
             103.94869   0.068842606114048
             29.210155    0.23218442062076
              9.286663    0.46794134155879
              3.163927    0.36231203217765
 s    3 1.00
             7.8682724   -0.11933240861517
             1.8812885   -0.16085421161283
             0.5442493     1.1434564825515
 s    1 1.00
             0.1687144                   1
 p    3 1.00
             7.8682724   0.068999095584993
             1.8812885    0.31642397975315
             0.5442493    0.74430825237435
 p    1 1.00
             0.1687144                   1
 d    1 1.00
                   0.8                   1

4 0
 s    3 1.00
             18.731137    0.03349459952309
             2.8253937    0.23472694665786
             0.6401217    0.81375731841339
 s    1 1.00
             0.1612778                   1

5 0
 s    6 1.00
             3047.5249  0.0018347001629433
             457.36951    0.01403730124668
             103.94869   0.068842606114048
             29.210155    0.23218442062076
              9.286663    0.46794134155879
              3.163927    0.36231203217765
 s    3 1.00
             7.8682724   -0.11933240861517
             1.8812885   -0.16085421161283
             0.5442493     1.1434564825515
 s    1 1.00
             0.1687144                   1
 p    3 1.00
             7.8682724   0.068999095584993
             1.8812885    0.31642397975315
             0.5442493    0.74430825237435
 p    1 1.00
             0.1687144                   1
 d    1 1.00
                   0.8                   1

6 0
 s    3 1.00
             18.731137    0.03349459952309
             2.8253937    0.23472694665786
             0.6401217    0.81375731841339
 s    1 1.00
             0.1612778                   1

7 0
 s    6 1.00
             3047.5249  0.0018347001629433
             457.36951    0.01403730124668
             103.94869   0.068842606114048
             29.210155    0.23218442062076
              9.286663    0.46794134155879
              3.163927    0.36231203217765
 s    3 1.00
             7.8682724   -0.11933240861517
             1.8812885   -0.16085421161283
             0.5442493     1.1434564825515
 s    1 1.00
             0.1687144                   1
 p    3 1.00
             7.8682724   0.068999095584993
             1.8812885    0.31642397975315
             0.5442493    0.74430825237435
 p    1 1.00
             0.1687144                   1
 d    1 1.00
                   0.8                   1

8 0
 s    3 1.00
             18.731137    0.03349459952309
             2.8253937    0.23472694665786
             0.6401217    0.81375731841339
 s    1 1.00
             0.1612778                   1

9 0
 s    3 1.00
             18.731137    0.03349459952309
             2.8253937    0.23472694665786
             0.6401217    0.81375731841339
 s    1 1.00
             0.1612778                   1

10 0
 s    6 1.00
             3047.5249  0.0018347001629433
             457.36951    0.01403730124668
             103.94869   0.068842606114048
             29.210155    0.23218442062076
              9.286663    0.46794134155879
              3.163927    0.36231203217765
 s    3 1.00
             7.8682724   -0.11933240861517
             1.8812885   -0.16085421161283
             0.5442493     1.1434564825515
 s    1 1.00
             0.1687144                   1
 p    3 1.00
             7.8682724   0.068999095584993
             1.8812885    0.31642397975315
             0.5442493    0.74430825237435
 p    1 1.00
             0.1687144                   1
 d    1 1.00
                   0.8                   1

11 0
 s    3 1.00
             18.731137    0.03349459952309
             2.8253937    0.23472694665786
             0.6401217    0.81375731841339
 s    1 1.00
             0.1612778                   1

12 0
 s    6 1.00
             3047.5249  0.0018347001629433
             457.36951    0.01403730124668
             103.94869   0.068842606114048
             29.210155    0.23218442062076
              9.286663    0.46794134155879
              3.163927    0.36231203217765
 s    3 1.00
             7.8682724   -0.11933240861517
             1.8812885   -0.16085421161283
             0.5442493     1.1434564825515
 s    1 1.00
             0.1687144                   1
 p    3 1.00
             7.8682724   0.068999095584993
             1.8812885    0.31642397975315
             0.5442493    0.74430825237435
 p    1 1.00
             0.1687144                   1
 d    1 1.00
                   0.8                   1

13 0
 s    3 1.00
             18.731137    0.03349459952309
             2.8253937    0.23472694665786
             0.6401217    0.81375731841339
 s    1 1.00
             0.1612778                   1

14 0
 s    3 1.00
             18.731137    0.03349459952309
             2.8253937    0.23472694665786
             0.6401217    0.81375731841339
 s    1 1.00
             0.1612778                   1

15 0
 s    6 1.00
             3047.5249  0.0018347001629433
             457.36951    0.01403730124668
             103.94869   0.068842606114048
             29.210155    0.23218442062076
              9.286663    0.46794134155879
              3.163927    0.36231203217765
 s    3 1.00
             7.8682724   -0.11933240861517
             1.8812885   -0.16085421161283
             0.5442493     1.1434564825515
 s    1 1.00
             0.1687144                   1
 p    3 1.00
             7.8682724   0.068999095584993
             1.8812885    0.31642397975315
             0.5442493    0.74430825237435
 p    1 1.00
             0.1687144                   1
 d    1 1.00
                   0.8                   1

16 0
 s    6 1.00
             3047.5249  0.0018347001629433
             457.36951    0.01403730124668
             103.94869   0.068842606114048
             29.210155    0.23218442062076
              9.286663    0.46794134155879
              3.163927    0.36231203217765
 s    3 1.00
             7.8682724   -0.11933240861517
             1.8812885   -0.16085421161283
             0.5442493     1.1434564825515
 s    1 1.00
             0.1687144                   1
 p    3 1.00
             7.8682724   0.068999095584993
             1.8812885    0.31642397975315
             0.5442493    0.74430825237435
 p    1 1.00
             0.1687144                   1
 d    1 1.00
                   0.8                   1

17 0
 s    6 1.00
             3047.5249  0.0018347001629433
             457.36951    0.01403730124668
             103.94869   0.068842606114048
             29.210155    0.23218442062076
              9.286663    0.46794134155879
              3.163927    0.36231203217765
 s    3 1.00
             7.8682724   -0.11933240861517
             1.8812885   -0.16085421161283
             0.5442493     1.1434564825515
 s    1 1.00
             0.1687144                   1
 p    3 1.00
             7.8682724   0.068999095584993
             1.8812885    0.31642397975315
             0.5442493    0.74430825237435
 p    1 1.00
             0.1687144                   1
 d    1 1.00
                   0.8                   1

18 0
 s    6 1.00
             3047.5249  0.0018347001629433
             457.36951    0.01403730124668
             103.94869   0.068842606114048
             29.210155    0.23218442062076
              9.286663    0.46794134155879
              3.163927    0.36231203217765
 s    3 1.00
             7.8682724   -0.11933240861517
             1.8812885   -0.16085421161283
             0.5442493     1.1434564825515
 s    1 1.00
             0.1687144                   1
 p    3 1.00
             7.8682724   0.068999095584993
             1.8812885    0.31642397975315
             0.5442493    0.74430825237435
 p    1 1.00
             0.1687144                   1
 d    1 1.00
                   0.8                   1

19 0
 s    6 1.00
             3047.5249  0.0018347001629433
             457.36951    0.01403730124668
             103.94869   0.068842606114048
             29.210155    0.23218442062076
              9.286663    0.46794134155879
              3.163927    0.36231203217765
 s    3 1.00
             7.8682724   -0.11933240861517
             1.8812885   -0.16085421161283
             0.5442493     1.1434564825515
 s    1 1.00
             0.1687144                   1
 p    3 1.00
             7.8682724   0.068999095584993
             1.8812885    0.31642397975315
             0.5442493    0.74430825237435
 p    1 1.00
             0.1687144                   1
 d    1 1.00
                   0.8                   1

20 0
 s    6 1.00
             3047.5249  0.0018347001629433
             457.36951    0.01403730124668
             103.94869   0.068842606114048
             29.210155    0.23218442062076
              9.286663    0.46794134155879
              3.163927    0.36231203217765
 s    3 1.00
             7.8682724   -0.11933240861517
             1.8812885   -0.16085421161283
             0.5442493     1.1434564825515
 s    1 1.00
             0.1687144                   1
 p    3 1.00
             7.8682724   0.068999095584993
             1.8812885    0.31642397975315
             0.5442493    0.74430825237435
 p    1 1.00
             0.1687144                   1
 d    1 1.00
                   0.8                   1

21 0
 s    6 1.00
             3047.5249  0.0018347001629433
             457.36951    0.01403730124668
             103.94869   0.068842606114048
             29.210155    0.23218442062076
              9.286663    0.46794134155879
              3.163927    0.36231203217765
 s    3 1.00
             7.8682724   -0.11933240861517
             1.8812885   -0.16085421161283
             0.5442493     1.1434564825515
 s    1 1.00
             0.1687144                   1
 p    3 1.00
             7.8682724   0.068999095584993
             1.8812885    0.31642397975315
             0.5442493    0.74430825237435
 p    1 1.00
             0.1687144                   1
 d    1 1.00
                   0.8                   1

22 0
 s    3 1.00
             18.731137    0.03349459952309
             2.8253937    0.23472694665786
             0.6401217    0.81375731841339
 s    1 1.00
             0.1612778                   1

23 0
 s    3 1.00
             18.731137    0.03349459952309
             2.8253937    0.23472694665786
             0.6401217    0.81375731841339
 s    1 1.00
             0.1612778                   1

24 0
 s    3 1.00
             18.731137    0.03349459952309
             2.8253937    0.23472694665786
             0.6401217    0.81375731841339
 s    1 1.00
             0.1612778                   1

25 0
 s    3 1.00
             18.731137    0.03349459952309
             2.8253937    0.23472694665786
             0.6401217    0.81375731841339
 s    1 1.00
             0.1612778                   1

26 0
 s    3 1.00
             18.731137    0.03349459952309
             2.8253937    0.23472694665786
             0.6401217    0.81375731841339
 s    1 1.00
             0.1612778                   1

27 0
 s    3 1.00
             18.731137    0.03349459952309
             2.8253937    0.23472694665786
             0.6401217    0.81375731841339
 s    1 1.00
             0.1612778                   1

28 0
 s    3 1.00
             18.731137    0.03349459952309
             2.8253937    0.23472694665786
             0.6401217    0.81375731841339
 s    1 1.00
             0.1612778                   1

29 0
 s    3 1.00
             18.731137    0.03349459952309
             2.8253937    0.23472694665786
             0.6401217    0.81375731841339
 s    1 1.00
             0.1612778                   1

30 0
 s    3 1.00
             18.731137    0.03349459952309
             2.8253937    0.23472694665786
             0.6401217    0.81375731841339
 s    1 1.00
             0.1612778                   1

31 0
 s    3 1.00
             18.731137    0.03349459952309
             2.8253937    0.23472694665786
             0.6401217    0.81375731841339
 s    1 1.00
             0.1612778                   1

32 0
 s    3 1.00
             18.731137    0.03349459952309
             2.8253937    0.23472694665786
             0.6401217    0.81375731841339
 s    1 1.00
             0.1612778                   1

33 0
 s    6 1.00
             3047.5249  0.0018347001629433
             457.36951    0.01403730124668
             103.94869   0.068842606114048
             29.210155    0.23218442062076
              9.286663    0.46794134155879
              3.163927    0.36231203217765
 s    3 1.00
             7.8682724   -0.11933240861517
             1.8812885   -0.16085421161283
             0.5442493     1.1434564825515
 s    1 1.00
             0.1687144                   1
 p    3 1.00
             7.8682724   0.068999095584993
             1.8812885    0.31642397975315
             0.5442493    0.74430825237435
 p    1 1.00
             0.1687144                   1
 d    1 1.00
                   0.8                   1

34 0
 s    6 1.00
             3047.5249  0.0018347001629433
             457.36951    0.01403730124668
             103.94869   0.068842606114048
             29.210155    0.23218442062076
              9.286663    0.46794134155879
              3.163927    0.36231203217765
 s    3 1.00
             7.8682724   -0.11933240861517
             1.8812885   -0.16085421161283
             0.5442493     1.1434564825515
 s    1 1.00
             0.1687144                   1
 p    3 1.00
             7.8682724   0.068999095584993
             1.8812885    0.31642397975315
             0.5442493    0.74430825237435
 p    1 1.00
             0.1687144                   1
 d    1 1.00
                   0.8                   1

35 0
 s    3 1.00
             18.731137    0.03349459952309
             2.8253937    0.23472694665786
             0.6401217    0.81375731841339
 s    1 1.00
             0.1612778                   1

36 0
 s    6 1.00
             3047.5249  0.0018347001629433
             457.36951    0.01403730124668
             103.94869   0.068842606114048
             29.210155    0.23218442062076
              9.286663    0.46794134155879
              3.163927    0.36231203217765
 s    3 1.00
             7.8682724   -0.11933240861517
             1.8812885   -0.16085421161283
             0.5442493     1.1434564825515
 s    1 1.00
             0.1687144                   1
 p    3 1.00
             7.8682724   0.068999095584993
             1.8812885    0.31642397975315
             0.5442493    0.74430825237435
 p    1 1.00
             0.1687144                   1
 d    1 1.00
                   0.8                   1

37 0
 s    3 1.00
             18.731137    0.03349459952309
             2.8253937    0.23472694665786
             0.6401217    0.81375731841339
 s    1 1.00
             0.1612778                   1

38 0
 s    3 1.00
             18.731137    0.03349459952309
             2.8253937    0.23472694665786
             0.6401217    0.81375731841339
 s    1 1.00
             0.1612778                   1

39 0
 s    6 1.00
             3047.5249  0.0018347001629433
             457.36951    0.01403730124668
             103.94869   0.068842606114048
             29.210155    0.23218442062076
              9.286663    0.46794134155879
              3.163927    0.36231203217765
 s    3 1.00
             7.8682724   -0.11933240861517
             1.8812885   -0.16085421161283
             0.5442493     1.1434564825515
 s    1 1.00
             0.1687144                   1
 p    3 1.00
             7.8682724   0.068999095584993
             1.8812885    0.31642397975315
             0.5442493    0.74430825237435
 p    1 1.00
             0.1687144                   1
 d    1 1.00
                   0.8                   1

40 0
 s    6 1.00
             3047.5249  0.0018347001629433
             457.36951    0.01403730124668
             103.94869   0.068842606114048
             29.210155    0.23218442062076
              9.286663    0.46794134155879
              3.163927    0.36231203217765
 s    3 1.00
             7.8682724   -0.11933240861517
             1.8812885   -0.16085421161283
             0.5442493     1.1434564825515
 s    1 1.00
             0.1687144                   1
 p    3 1.00
             7.8682724   0.068999095584993
             1.8812885    0.31642397975315
             0.5442493    0.74430825237435
 p    1 1.00
             0.1687144                   1
 d    1 1.00
                   0.8                   1

41 0
 s    3 1.00
             18.731137    0.03349459952309
             2.8253937    0.23472694665786
             0.6401217    0.81375731841339
 s    1 1.00
             0.1612778                   1

42 0
 s    6 1.00
             5484.6717   0.001831099805527
             825.23495   0.013950098518422
             188.04696    0.06844509273075
               52.9645    0.23271427528445
              16.89757    0.47019295006289
             5.7996353    0.35852086192309
 s    3 1.00
             15.539616   -0.11077750382508
             3.5999336   -0.14802630511126
             1.0137618     1.1307670390447
 s    1 1.00
             0.2700058                   1
 p    3 1.00
             15.539616   0.070874299543311
             3.5999336    0.33975279781076
             1.0137618    0.72715859531445
 p    1 1.00
             0.2700058                   1
 d    1 1.00
                   0.8                   1

43 0
 s    3 1.00
             18.731137    0.03349459952309
             2.8253937    0.23472694665786
             0.6401217    0.81375731841339
 s    1 1.00
             0.1612778                   1

[5d]
[7f]
[9g]

[MO]
 Sym= A
 Ene=               0
 Spin= Alpha
 Occup=    1.00000
   1    -1.4999671440578e-06
   2    -1.5399988094894e-05
   3    -3.6878748260647e-05
   4    -4.1998149265613e-06
   5    -6.2522802995379e-06
   6    1.2414967398151e-05
   7    4.2059720325756e-05
   8    0.00012087665637201
   9    -0.00036229440279096
  10    -1.2038398000804e-07
  11    1.0405834064918e-05
  12    1.1575823539675e-06
  13    1.3672360877543e-05
  14    -7.7179540352038e-06
  15    -1.3891468591148e-05
  16    1.1951685869103e-05
  17    6.9431939352415e-06
  18    0.00015806539006148
  19    0.00042391110148362
  20    5.5289392103065e-05
  21    -6.2594691458701e-06
  22    -6.86838067839e-05
  23    0.00018949292869632
  24    -0.00010930542182759
  25    -0.00056277867824756
  26    2.1104349556314e-05
  27    -2.357609253152e-05
  28    1.3298280949821e-05
  29    4.0815672440358e-05
  30    1.9072937896294e-06
  31    -1.0723187397182e-05
  32    3.5526777393278e-05
  33    5.0924084431882e-05
  34    0.00034242981427677
  35    -0.0042815985955799
  36    -9.3457329981363e-05
  37    1.7698980148579e-05
  38    0.00014108359990723
  39    -0.00063624331807227
  40    0.0018584377140152
  41    0.00040853178322415
  42    -1.4761985965837e-05
  43    0.00010920252720043
  44    -5.706864529969e-05
  45    1.9403152917694e-05
  46    6.4705643647733e-05
  47    -1.799155426011e-05
  48    -0.00027306132092553
  49    4.7043573500578e-06
  50    0.00011679267529098
  51    0.0034436163052929
  52    0.00019491202191373
  53    -0.00021786667273821
  54    -0.00021797578399365
  55    -0.001912680321208
  56     0.002479741773346
  57    0.0020455330240383
  58    -3.6154389636221e-05
  59    3.0070269472844e-05
  60    0.00018656196888224
  61    3.5005927891033e-05
  62    -0.00011635813939891
  63    0.00028350152631839
  64    7.7033462059001e-05
  65    -2.0540641137791e-07
  66    -2.913443762677e-07
  67    -4.0492507185435e-08
  68    -5.6464277376175e-07
  69    2.7306698228229e-06
  70    2.2364461229913e-07
  71    -3.2921447428999e-07
  72    1.4099008498891e-07
  73    2.6428612091689e-07
  74    1.6417767621608e-06
  75    1.1004567516012e-08
  76    -5.7799191763581e-08
  77    -1.2133494388114e-07
  78    4.548339242957e-08
  79    6.6563422882082e-08
  80    -1.067308056856e-07
  81    9.4888249631905e-08
  82    2.0144763312183e-07
  83    1.7547920820201e-08
  84    -2.4338644971612e-07
  85    -1.3869721460403e-05
  86    6.6349439212855e-07
  87    2.6298741174435e-08
  88    9.0679320546218e-07
  89    3.2967511436409e-06
  90    -4.6390617727857e-06
  91    3.4959994408586e-06
  92    1.751121400548e-07
  93    -2.7699289570153e-07
  94    3.5461863854019e-07
  95    5.2816327759843e-08
  96    -1.6438079092535e-07
  97    6.583091510707e-07
  98    8.0483751346848e-07
  99    5.0636138926772e-09
 100    -1.036110908036e-06
 101    -4.5935810277366e-08
 102    -7.6047393014143e-07
 103    1.2156176863991e-05
 104    2.8202000343753e-07
 105    -9.4194013219285e-07
 106    -6.5081703375491e-07
 107    -1.9157414167523e-05
 108    1.7871846771909e-05
 109    3.2066027403741e-05
 110    -5.9761944839116e-07
 111    -5.6530191774124e-07
 112    2.3767780316511e-07
 113    2.914371874035e-07
 114    -5.0959486809417e-07
 115    -4.8090384240218e-07
 116    -4.4008233197368e-06
 117    3.6462013628409e-05
 118    -6.7495755853426e-07
 119    9.7278549653066e-07
 120    8.7311924136237e-07
 121    -8.7059851621418e-06
 122    1.5262821337873e-06
 123    3.175419411888e-06
 124    -9.3445978392201e-08
 125    -2.5996878900196e-07
 126    -1.0386413675943e-07
 127    1.3559876647403e-07
 128    -3.8336580855713e-07
 129    -9.6721936607691e-07
 130    -8.6892528017153e-06
 131    5.3454899624568e-05
 132    1.6235750046381e-07
 133    -8.7278710712572e-08
 134    3.4089589482572e-06
 135    -2.3326330692776e-05
 136    -5.4331065487951e-07
 137    -8.3810494240978e-05
 138    2.5213096755513e-06
 139    1.625404710916e-06
 140    2.2243498936114e-07
 141    4.2674254944361e-07
 142    3.7426902613617e-08
 143    -4.5602838225082e-07
 144    -4.2157941475378e-06
 145    2.1933886997541e-05
 146    2.0143218307782e-07
 147    4.2191667508713e-07
 148    3.8548245276115e-07
 149    1.2933868933878e-05
 150    -6.1687589277217e-06
 151    -3.5721676425964e-06
 152    -9.8286350695724e-07
 153    -4.0081318048036e-07
 154    -1.1880239013363e-07
 155    7.2702474802218e-07
 156    -7.8502841483346e-07
 157    1.0690567711072e-07
 158    8.5713439769719e-07
 159    1.6812208547843e-07
 160    6.809159530882e-07
 161    -6.294715949134e-08
 162    -1.2512551120584e-07
 163    -6.4919608209852e-06
 164    3.7639097526741e-07
 165    8.3000894681005e-07
 166    4.7878849062859e-07
 167    -2.058571421559e-07
 168    2.3470849440165e-08
 169    -1.1179215391269e-07
 170    3.1367415729531e-07
 171    2.2739442884857e-08
 172    -4.1856124849445e-07
 173    -1.2735938743947e-06
 174    -6.1021379643917e-07
 175    -1.6608567106998e-07
 176    7.4019985794179e-07
 177    -3.8855627927104e-07
 178    1.8039863232974e-06
 179    -1.6239330226592e-06
 180    1.3419249978038e-07
 181    2.1007607825134e-07
 182    4.8900978804012e-08
 183    -3.8444363703588e-07
 184    1.7872686631165e-07
 185    -2.8980547594599e-07
 186    -2.990348892088e-06
 187    1.692990645522e-06
 188    -2.076845155362e-07
 189    1.3667254404989e-07
 190    1.1893582544549e-06
 191    2.1764233872592e-06
 192    7.1640563057523e-07
 193    -5.2904088581193e-06
 194    2.8532938190186e-07
 195    -4.2791330577552e-08
 196    2.0203818092523e-07
 197    9.9298712650101e-08
 198    -9.53872749214e-08
 199    -7.0827368746882e-07
 200    -1.1363714007762e-06
 201    5.3336525448232e-08
 202    3.3019668025181e-06
 203    -1.6216254913554e-06
 204    -1.6611585513699e-06
 205    -3.2047107594263e-07
 206    -2.3829007990677e-06
 207    9.975908164481e-07
 208    -1.0678229187024e-05
 209    1.1256918979583e-06
 210    -4.3549241481406e-06
 211    5.2150871263536e-07
 212    2.8485685868098e-06
 213    -2.3344155905072e-07
 214    -2.128202364916e-06
 215    -4.6226045289098e-07
 216    6.3448687136188e-07
 217    2.5302853274265e-07
 218    7.2374475241132e-07
 219    2.8823147185655e-07
 220    1.1305435760458e-06
 221    -7.1257379690218e-07
 222    -7.843228610945e-06
 223    -1.1397049926894e-05
 224    5.3539374562484e-07
 225    -1.0533701416269e-06
 226    3.7753555229118e-06
 227    9.1807367802349e-06
 228    2.7321168973811e-05
 229    -9.6589263747096e-05
 230    -1.1469972195866e-06
 231    -4.1560958698046e-06
 232    -1.8720604347392e-06
 233    1.8404713243568e-06
 234    2.7390978113353e-06
 235    -9.8473816667913e-07
 236    -1.0438891604246e-05
 237    2.0758692473234e-05
 238    -7.676828620647e-07
 239    2.9261268549067e-06
 240    4.2387911363253e-06
 241    -2.2207136666358e-05
 242    -7.4660536883405e-06
 243    -8.388640010322e-05
 244    1.2430505749629e-06
 245    6.6340951412397e-06
 246    1.6642042916868e-06
 247    2.622075005652e-06
 248    1.1785170228337e-06
 249    -4.3755471927838e-06
 250    1.0404312050337e-05
 251    -4.008360569417e-06
 252    -3.2800443013044e-05
 253    0.00026984679066917
 254    2.1619420663374e-06
 255    -8.8271046389394e-06
 256    7.5433061385864e-06
 257    0.00011451331038753
 258    9.402182947034e-05
 259    -0.00024637057869849
 260    2.6895081221471e-06
 261    -1.2285068127946e-05
 262    -5.041903108563e-06
 263    8.0346046840071e-06
 264    4.9062855892574e-06
 265    -4.0567211382779e-06
 266    2.7834707268926e-05
 267    -8.4249108054995e-06
 268    3.6880516610549e-05
 269    -5.1167383845307e-05
 270    -0.00012559733904035
 271    0.0030382502794195
 272    3.6574463598278e-05
 273    -0.00018275102708626
 274    2.9560094569059e-07
 275    0.0021021612296908
 276    0.00057871614901243
 277    -0.0032038619239674
 278    0.00018906318318434
 279    -0.00021936841329355
 280    0.00016180843335604