[Molden Format]
made by pyscf v[2.0.1]
[Atoms] (AU)
C   1   6     0.69100024066471     0.64692934207205    -3.48223131169301
H   2   1     2.68052439830868     1.13355088658700    -3.25784032593313
C   3   6    -0.36286361513219     0.85440132524594    -5.97030179418974
H   4   1    -2.35448549047279     0.36322488579172    -6.17995817793143
C   5   6     0.93697958957450     1.61209284601821    -8.05828437677121
H   6   1     2.50035468987728     2.93484935641869    -7.84122146962088
C   7   6     0.36255105159660     0.76050131278393   -10.56848504450332
H   8   1    -1.20802221204617    -0.56532983436663   -10.75608465244450
H   9   1     1.55630230933075    -1.92953025305990    12.99630010416247
C   10   6     0.75233899775814    -2.21270439606481    11.10705728102219
H   11   1    -0.43433408177274    -3.90944857546550    11.22216085340412
C   12   6     2.86362581178706    -2.63237380607947     9.17926416456045
H   13   1     4.39038949912609    -1.24955421540245     9.49899813497433
H   14   1     3.74629220191363    -4.48798724300892     9.47414880959024
C   15   6     2.02478325613682    -2.42177285709634     6.44560829588644
C   16   6     3.88048732735477    -3.58795445234514     4.61402886975252
C   17   6    -0.18412382258602    -1.30464291234259     5.76021113872346
C   18   6    -2.10044360464350    -0.26837831858460     7.71610340967100
C   19   6    -3.08956938670431     2.35282328359417     6.88693925039594
C   20   6    -4.37372924086464    -2.09766595989678     7.93610724222001
C   21   6    -0.83850430601230     0.06372213486173    10.33002307638377
H   22   1     0.38411922151109     1.74281358582432    10.27380136542181
H   23   1    -2.30980003007874     0.45460143924521    11.73986301809809
H   24   1     4.58527064644668    -5.38706904487420     5.36778158031719
H   25   1     5.54944938085014    -2.37631462192748     4.35398898413318
H   26   1     3.06633019150423    -3.94118377050688     2.75255466040884
H   27   1    -4.17727778763735     2.26573369139522     5.12914900961283
H   28   1    -1.52662344944051     3.68001877445626     6.59540397144508
H   29   1    -4.32916174397830     3.13643051467482     8.35225460090378
H   30   1    -5.32329548508442    -2.36691813602939     6.11583672749896
H   31   1    -5.77989366602257    -1.33896741843465     9.25748940450990
H   32   1    -3.79310905208926    -3.96389819310853     8.61386170102686
C   33   6    -1.01100794811226    -1.06331657314144     3.11929490449947
C   34   6     0.37686231036534    -0.33275864505552     1.09165013605873
H   35   1    -3.01671213906703    -1.40297922279997     2.77827895090944
C   36   6    -0.64382707979370    -0.11591880174385    -1.42063131251064
H   37   1     2.35569259782137     0.17174499283897     1.33641070251401
H   38   1    -2.63317482980319    -0.60229203511219    -1.66119700387645
C   39   6     1.60144441070444     1.46482489722556   -12.70057441592292
C   40   6     0.86980516734608     0.48994136718256   -15.17470632539007
H   41   1     3.18180515535191     2.77908821383906   -12.64635086980665
O   42   8     1.89724046327418     1.04291297454121   -17.16453627851552
H   43   1    -0.75645459108880    -0.84958730954869   -15.14122439828819
[GTO]
1 0
 s    6 1.00
             3047.5249  0.0018347001629433
             457.36951    0.01403730124668
             103.94869   0.068842606114048
             29.210155    0.23218442062076
              9.286663    0.46794134155879
              3.163927    0.36231203217765
 s    3 1.00
             7.8682724   -0.11933240861517
             1.8812885   -0.16085421161283
             0.5442493     1.1434564825515
 s    1 1.00
             0.1687144                   1
 p    3 1.00
             7.8682724   0.068999095584993
             1.8812885    0.31642397975315
             0.5442493    0.74430825237435
 p    1 1.00
             0.1687144                   1
 d    1 1.00
                   0.8                   1

2 0
 s    3 1.00
             18.731137    0.03349459952309
             2.8253937    0.23472694665786
             0.6401217    0.81375731841339
 s    1 1.00
             0.1612778                   1

3 0
 s    6 1.00
             3047.5249  0.0018347001629433
             457.36951    0.01403730124668
             103.94869   0.068842606114048
             29.210155    0.23218442062076
              9.286663    0.46794134155879
              3.163927    0.36231203217765
 s    3 1.00
             7.8682724   -0.11933240861517
             1.8812885   -0.16085421161283
             0.5442493     1.1434564825515
 s    1 1.00
             0.1687144                   1
 p    3 1.00
             7.8682724   0.068999095584993
             1.8812885    0.31642397975315
             0.5442493    0.74430825237435
 p    1 1.00
             0.1687144                   1
 d    1 1.00
                   0.8                   1

4 0
 s    3 1.00
             18.731137    0.03349459952309
             2.8253937    0.23472694665786
             0.6401217    0.81375731841339
 s    1 1.00
             0.1612778                   1

5 0
 s    6 1.00
             3047.5249  0.0018347001629433
             457.36951    0.01403730124668
             103.94869   0.068842606114048
             29.210155    0.23218442062076
              9.286663    0.46794134155879
              3.163927    0.36231203217765
 s    3 1.00
             7.8682724   -0.11933240861517
             1.8812885   -0.16085421161283
             0.5442493     1.1434564825515
 s    1 1.00
             0.1687144                   1
 p    3 1.00
             7.8682724   0.068999095584993
             1.8812885    0.31642397975315
             0.5442493    0.74430825237435
 p    1 1.00
             0.1687144                   1
 d    1 1.00
                   0.8                   1

6 0
 s    3 1.00
             18.731137    0.03349459952309
             2.8253937    0.23472694665786
             0.6401217    0.81375731841339
 s    1 1.00
             0.1612778                   1

7 0
 s    6 1.00
             3047.5249  0.0018347001629433
             457.36951    0.01403730124668
             103.94869   0.068842606114048
             29.210155    0.23218442062076
              9.286663    0.46794134155879
              3.163927    0.36231203217765
 s    3 1.00
             7.8682724   -0.11933240861517
             1.8812885   -0.16085421161283
             0.5442493     1.1434564825515
 s    1 1.00
             0.1687144                   1
 p    3 1.00
             7.8682724   0.068999095584993
             1.8812885    0.31642397975315
             0.5442493    0.74430825237435
 p    1 1.00
             0.1687144                   1
 d    1 1.00
                   0.8                   1

8 0
 s    3 1.00
             18.731137    0.03349459952309
             2.8253937    0.23472694665786
             0.6401217    0.81375731841339
 s    1 1.00
             0.1612778                   1

9 0
 s    3 1.00
             18.731137    0.03349459952309
             2.8253937    0.23472694665786
             0.6401217    0.81375731841339
 s    1 1.00
             0.1612778                   1

10 0
 s    6 1.00
             3047.5249  0.0018347001629433
             457.36951    0.01403730124668
             103.94869   0.068842606114048
             29.210155    0.23218442062076
              9.286663    0.46794134155879
              3.163927    0.36231203217765
 s    3 1.00
             7.8682724   -0.11933240861517
             1.8812885   -0.16085421161283
             0.5442493     1.1434564825515
 s    1 1.00
             0.1687144                   1
 p    3 1.00
             7.8682724   0.068999095584993
             1.8812885    0.31642397975315
             0.5442493    0.74430825237435
 p    1 1.00
             0.1687144                   1
 d    1 1.00
                   0.8                   1

11 0
 s    3 1.00
             18.731137    0.03349459952309
             2.8253937    0.23472694665786
             0.6401217    0.81375731841339
 s    1 1.00
             0.1612778                   1

12 0
 s    6 1.00
             3047.5249  0.0018347001629433
             457.36951    0.01403730124668
             103.94869   0.068842606114048
             29.210155    0.23218442062076
              9.286663    0.46794134155879
              3.163927    0.36231203217765
 s    3 1.00
             7.8682724   -0.11933240861517
             1.8812885   -0.16085421161283
             0.5442493     1.1434564825515
 s    1 1.00
             0.1687144                   1
 p    3 1.00
             7.8682724   0.068999095584993
             1.8812885    0.31642397975315
             0.5442493    0.74430825237435
 p    1 1.00
             0.1687144                   1
 d    1 1.00
                   0.8                   1

13 0
 s    3 1.00
             18.731137    0.03349459952309
             2.8253937    0.23472694665786
             0.6401217    0.81375731841339
 s    1 1.00
             0.1612778                   1

14 0
 s    3 1.00
             18.731137    0.03349459952309
             2.8253937    0.23472694665786
             0.6401217    0.81375731841339
 s    1 1.00
             0.1612778                   1

15 0
 s    6 1.00
             3047.5249  0.0018347001629433
             457.36951    0.01403730124668
             103.94869   0.068842606114048
             29.210155    0.23218442062076
              9.286663    0.46794134155879
              3.163927    0.36231203217765
 s    3 1.00
             7.8682724   -0.11933240861517
             1.8812885   -0.16085421161283
             0.5442493     1.1434564825515
 s    1 1.00
             0.1687144                   1
 p    3 1.00
             7.8682724   0.068999095584993
             1.8812885    0.31642397975315
             0.5442493    0.74430825237435
 p    1 1.00
             0.1687144                   1
 d    1 1.00
                   0.8                   1

16 0
 s    6 1.00
             3047.5249  0.0018347001629433
             457.36951    0.01403730124668
             103.94869   0.068842606114048
             29.210155    0.23218442062076
              9.286663    0.46794134155879
              3.163927    0.36231203217765
 s    3 1.00
             7.8682724   -0.11933240861517
             1.8812885   -0.16085421161283
             0.5442493     1.1434564825515
 s    1 1.00
             0.1687144                   1
 p    3 1.00
             7.8682724   0.068999095584993
             1.8812885    0.31642397975315
             0.5442493    0.74430825237435
 p    1 1.00
             0.1687144                   1
 d    1 1.00
                   0.8                   1

17 0
 s    6 1.00
             3047.5249  0.0018347001629433
             457.36951    0.01403730124668
             103.94869   0.068842606114048
             29.210155    0.23218442062076
              9.286663    0.46794134155879
              3.163927    0.36231203217765
 s    3 1.00
             7.8682724   -0.11933240861517
             1.8812885   -0.16085421161283
             0.5442493     1.1434564825515
 s    1 1.00
             0.1687144                   1
 p    3 1.00
             7.8682724   0.068999095584993
             1.8812885    0.31642397975315
             0.5442493    0.74430825237435
 p    1 1.00
             0.1687144                   1
 d    1 1.00
                   0.8                   1

18 0
 s    6 1.00
             3047.5249  0.0018347001629433
             457.36951    0.01403730124668
             103.94869   0.068842606114048
             29.210155    0.23218442062076
              9.286663    0.46794134155879
              3.163927    0.36231203217765
 s    3 1.00
             7.8682724   -0.11933240861517
             1.8812885   -0.16085421161283
             0.5442493     1.1434564825515
 s    1 1.00
             0.1687144                   1
 p    3 1.00
             7.8682724   0.068999095584993
             1.8812885    0.31642397975315
             0.5442493    0.74430825237435
 p    1 1.00
             0.1687144                   1
 d    1 1.00
                   0.8                   1

19 0
 s    6 1.00
             3047.5249  0.0018347001629433
             457.36951    0.01403730124668
             103.94869   0.068842606114048
             29.210155    0.23218442062076
              9.286663    0.46794134155879
              3.163927    0.36231203217765
 s    3 1.00
             7.8682724   -0.11933240861517
             1.8812885   -0.16085421161283
             0.5442493     1.1434564825515
 s    1 1.00
             0.1687144                   1
 p    3 1.00
             7.8682724   0.068999095584993
             1.8812885    0.31642397975315
             0.5442493    0.74430825237435
 p    1 1.00
             0.1687144                   1
 d    1 1.00
                   0.8                   1

20 0
 s    6 1.00
             3047.5249  0.0018347001629433
             457.36951    0.01403730124668
             103.94869   0.068842606114048
             29.210155    0.23218442062076
              9.286663    0.46794134155879
              3.163927    0.36231203217765
 s    3 1.00
             7.8682724   -0.11933240861517
             1.8812885   -0.16085421161283
             0.5442493     1.1434564825515
 s    1 1.00
             0.1687144                   1
 p    3 1.00
             7.8682724   0.068999095584993
             1.8812885    0.31642397975315
             0.5442493    0.74430825237435
 p    1 1.00
             0.1687144                   1
 d    1 1.00
                   0.8                   1

21 0
 s    6 1.00
             3047.5249  0.0018347001629433
             457.36951    0.01403730124668
             103.94869   0.068842606114048
             29.210155    0.23218442062076
              9.286663    0.46794134155879
              3.163927    0.36231203217765
 s    3 1.00
             7.8682724   -0.11933240861517
             1.8812885   -0.16085421161283
             0.5442493     1.1434564825515
 s    1 1.00
             0.1687144                   1
 p    3 1.00
             7.8682724   0.068999095584993
             1.8812885    0.31642397975315
             0.5442493    0.74430825237435
 p    1 1.00
             0.1687144                   1
 d    1 1.00
                   0.8                   1

22 0
 s    3 1.00
             18.731137    0.03349459952309
             2.8253937    0.23472694665786
             0.6401217    0.81375731841339
 s    1 1.00
             0.1612778                   1

23 0
 s    3 1.00
             18.731137    0.03349459952309
             2.8253937    0.23472694665786
             0.6401217    0.81375731841339
 s    1 1.00
             0.1612778                   1

24 0
 s    3 1.00
             18.731137    0.03349459952309
             2.8253937    0.23472694665786
             0.6401217    0.81375731841339
 s    1 1.00
             0.1612778                   1

25 0
 s    3 1.00
             18.731137    0.03349459952309
             2.8253937    0.23472694665786
             0.6401217    0.81375731841339
 s    1 1.00
             0.1612778                   1

26 0
 s    3 1.00
             18.731137    0.03349459952309
             2.8253937    0.23472694665786
             0.6401217    0.81375731841339
 s    1 1.00
             0.1612778                   1

27 0
 s    3 1.00
             18.731137    0.03349459952309
             2.8253937    0.23472694665786
             0.6401217    0.81375731841339
 s    1 1.00
             0.1612778                   1

28 0
 s    3 1.00
             18.731137    0.03349459952309
             2.8253937    0.23472694665786
             0.6401217    0.81375731841339
 s    1 1.00
             0.1612778                   1

29 0
 s    3 1.00
             18.731137    0.03349459952309
             2.8253937    0.23472694665786
             0.6401217    0.81375731841339
 s    1 1.00
             0.1612778                   1

30 0
 s    3 1.00
             18.731137    0.03349459952309
             2.8253937    0.23472694665786
             0.6401217    0.81375731841339
 s    1 1.00
             0.1612778                   1

31 0
 s    3 1.00
             18.731137    0.03349459952309
             2.8253937    0.23472694665786
             0.6401217    0.81375731841339
 s    1 1.00
             0.1612778                   1

32 0
 s    3 1.00
             18.731137    0.03349459952309
             2.8253937    0.23472694665786
             0.6401217    0.81375731841339
 s    1 1.00
             0.1612778                   1

33 0
 s    6 1.00
             3047.5249  0.0018347001629433
             457.36951    0.01403730124668
             103.94869   0.068842606114048
             29.210155    0.23218442062076
              9.286663    0.46794134155879
              3.163927    0.36231203217765
 s    3 1.00
             7.8682724   -0.11933240861517
             1.8812885   -0.16085421161283
             0.5442493     1.1434564825515
 s    1 1.00
             0.1687144                   1
 p    3 1.00
             7.8682724   0.068999095584993
             1.8812885    0.31642397975315
             0.5442493    0.74430825237435
 p    1 1.00
             0.1687144                   1
 d    1 1.00
                   0.8                   1

34 0
 s    6 1.00
             3047.5249  0.0018347001629433
             457.36951    0.01403730124668
             103.94869   0.068842606114048
             29.210155    0.23218442062076
              9.286663    0.46794134155879
              3.163927    0.36231203217765
 s    3 1.00
             7.8682724   -0.11933240861517
             1.8812885   -0.16085421161283
             0.5442493     1.1434564825515
 s    1 1.00
             0.1687144                   1
 p    3 1.00
             7.8682724   0.068999095584993
             1.8812885    0.31642397975315
             0.5442493    0.74430825237435
 p    1 1.00
             0.1687144                   1
 d    1 1.00
                   0.8                   1

35 0
 s    3 1.00
             18.731137    0.03349459952309
             2.8253937    0.23472694665786
             0.6401217    0.81375731841339
 s    1 1.00
             0.1612778                   1

36 0
 s    6 1.00
             3047.5249  0.0018347001629433
             457.36951    0.01403730124668
             103.94869   0.068842606114048
             29.210155    0.23218442062076
              9.286663    0.46794134155879
              3.163927    0.36231203217765
 s    3 1.00
             7.8682724   -0.11933240861517
             1.8812885   -0.16085421161283
             0.5442493     1.1434564825515
 s    1 1.00
             0.1687144                   1
 p    3 1.00
             7.8682724   0.068999095584993
             1.8812885    0.31642397975315
             0.5442493    0.74430825237435
 p    1 1.00
             0.1687144                   1
 d    1 1.00
                   0.8                   1

37 0
 s    3 1.00
             18.731137    0.03349459952309
             2.8253937    0.23472694665786
             0.6401217    0.81375731841339
 s    1 1.00
             0.1612778                   1

38 0
 s    3 1.00
             18.731137    0.03349459952309
             2.8253937    0.23472694665786
             0.6401217    0.81375731841339
 s    1 1.00
             0.1612778                   1

39 0
 s    6 1.00
             3047.5249  0.0018347001629433
             457.36951    0.01403730124668
             103.94869   0.068842606114048
             29.210155    0.23218442062076
              9.286663    0.46794134155879
              3.163927    0.36231203217765
 s    3 1.00
             7.8682724   -0.11933240861517
             1.8812885   -0.16085421161283
             0.5442493     1.1434564825515
 s    1 1.00
             0.1687144                   1
 p    3 1.00
             7.8682724   0.068999095584993
             1.8812885    0.31642397975315
             0.5442493    0.74430825237435
 p    1 1.00
             0.1687144                   1
 d    1 1.00
                   0.8                   1

40 0
 s    6 1.00
             3047.5249  0.0018347001629433
             457.36951    0.01403730124668
             103.94869   0.068842606114048
             29.210155    0.23218442062076
              9.286663    0.46794134155879
              3.163927    0.36231203217765
 s    3 1.00
             7.8682724   -0.11933240861517
             1.8812885   -0.16085421161283
             0.5442493     1.1434564825515
 s    1 1.00
             0.1687144                   1
 p    3 1.00
             7.8682724   0.068999095584993
             1.8812885    0.31642397975315
             0.5442493    0.74430825237435
 p    1 1.00
             0.1687144                   1
 d    1 1.00
                   0.8                   1

41 0
 s    3 1.00
             18.731137    0.03349459952309
             2.8253937    0.23472694665786
             0.6401217    0.81375731841339
 s    1 1.00
             0.1612778                   1

42 0
 s    6 1.00
             5484.6717   0.001831099805527
             825.23495   0.013950098518422
             188.04696    0.06844509273075
               52.9645    0.23271427528445
              16.89757    0.47019295006289
             5.7996353    0.35852086192309
 s    3 1.00
             15.539616   -0.11077750382508
             3.5999336   -0.14802630511126
             1.0137618     1.1307670390447
 s    1 1.00
             0.2700058                   1
 p    3 1.00
             15.539616   0.070874299543311
             3.5999336    0.33975279781076
             1.0137618    0.72715859531445
 p    1 1.00
             0.2700058                   1
 d    1 1.00
                   0.8                   1

43 0
 s    3 1.00
             18.731137    0.03349459952309
             2.8253937    0.23472694665786
             0.6401217    0.81375731841339
 s    1 1.00
             0.1612778                   1

[5d]
[7f]
[9g]

[MO]
 Sym= A
 Ene=               0
 Spin= Alpha
 Occup=    1.00000
   1    -3.9884326659617e-06
   2    -2.6993891791745e-05
   3    -0.00012276120536797
   4    -9.3262556884626e-06
   5    -3.3922821389241e-05
   6    1.9878750186871e-05
   7    0.00020816888272638
   8    0.00024594641921081
   9    -0.00059959192448284
  10    1.5688459100274e-05
  11    2.0826793073265e-05
  12    2.1587881155663e-08
  13    9.1004964839478e-07
  14    7.7264706619477e-07
  15    -3.4609827841442e-05
  16    -3.3001610904492e-05
  17    1.232978311282e-05
  18    2.6380449994749e-05
  19    -0.0016383095299903
  20    -2.0472837645849e-05
  21    8.4078966357967e-06
  22    6.3030425342619e-05
  23    -0.00035072613546519
  24    -0.00012629024443927
  25    0.0007070916148085
  26    -4.7956498212064e-05
  27    1.7797388963173e-05
  28    2.0386752595367e-05
  29    -2.111787127455e-05
  30    2.8614617327036e-05
  31    4.1366372881598e-06
  32    6.9907063528449e-05
  33    -5.5413248123791e-05
  34    -0.00034046926594425
  35    0.0049937437769498
  36    4.6085124228608e-05
  37    6.4708308614065e-07
  38    -0.00012223218057449
  39    -0.0013743907049894
  40    -0.0012597223557751
  41    -0.0012927995436146
  42    0.00014501500369308
  43    1.1776523640444e-05
  44    6.1288180314754e-05
  45    2.0679149779003e-06
  46    4.8709896203121e-05
  47    3.6023693423424e-05
  48    0.00031137072436443
  49    1.1030952536373e-07
  50    -8.9244874835836e-05
  51    -0.0038249392722116
  52    6.5880963237171e-05
  53    0.00011415463505869
  54    0.00033526660462455
  55    -0.00098876282060474
  56    -0.0014004075615253
  57    -0.0035669230340361
  58    -9.6077813093177e-05
  59    -0.00013977039908475
  60    -0.00012967790288832
  61    4.289760858639e-05
  62    9.3876674258431e-05
  63    -0.00028114227245359
  64    -0.00010217580742954
  65    -2.2496669185613e-08
  66    1.4090778526499e-06
  67    -7.7770014921436e-08
  68    -8.5847264979319e-07
  69    -9.6192677239682e-07
  70    5.101011631147e-07
  71    -5.9016881475417e-07
  72    3.0755020874717e-07
  73    1.5231623429637e-06
  74    1.0767866661902e-07
  75    -1.9919345752154e-06
  76    1.7926517279979e-07
  77    7.8365123444715e-08
  78    9.111354319507e-08
  79    5.7924411811612e-08
  80    7.3294785531885e-08
  81    9.1623386665871e-08
  82    4.7641365512395e-07
  83    1.8431949752158e-07
  84    1.2850769745444e-06
  85    -5.8122234008565e-06
  86    2.5458286686657e-07
  87    -1.2616502866077e-08
  88    4.0522719300564e-07
  89    3.0313571699909e-06
  90    -5.0263950885113e-06
  91    1.4049423030429e-07
  92    -1.0294432140862e-07
  93    -2.9937383915286e-07
  94    6.0067086986368e-07
  95    -2.1553154160085e-07
  96    1.4766297121227e-08
  97    8.6129135780807e-07
  98    2.4687925723637e-07
  99    -1.7278501969084e-07
 100    -8.5955163104432e-07
 101    -3.9080522525272e-07
 102    -1.3487164082292e-06
 103    5.2139407503858e-05
 104    -6.2106193445326e-07
 105    2.5852203328968e-07
 106    -1.6189851656614e-06
 107    -2.0640237216622e-05
 108    2.1714985644663e-05
 109    -5.2035162332457e-06
 110    5.6039356543257e-07
 111    8.5905956478631e-07
 112    -3.8320920017677e-07
 113    -5.6135764039442e-07
 114    -1.0746318957067e-06
 115     3.36715585259e-07
 116    3.7259187556242e-06
 117    -1.0426541632257e-05
 118    -2.1562182837802e-07
 119    8.8652399328804e-07
 120    -1.097270406846e-06
 121    3.0183729068704e-06
 122    -6.5721707568551e-06
 123    1.2314210247174e-05
 124    3.6254387501858e-07
 125    -4.612881328958e-07
 126    -3.8296918080462e-07
 127    -2.375406345554e-08
 128    -1.1882678099971e-07
 129    3.5888137804584e-07
 130    3.5618102197898e-06
 131    2.941397024401e-05
 132    3.8097615586443e-06
 133    1.4329517463683e-06
 134    -3.2744105896677e-06
 135    -7.2801542245009e-05
 136    3.776493378348e-06
 137    -1.6191930380192e-05
 138    4.4995734224509e-07
 139    5.7527325142361e-07
 140    1.7352076212489e-06
 141    -2.8931962432993e-07
 142    1.1547826108806e-06
 143    -3.9918673021197e-08
 144    -1.6587765120808e-06
 145    -2.2672818742713e-05
 146    -3.6081101427845e-07
 147    -1.1445317074586e-06
 148    3.4922401182521e-06
 149    -7.6561181050945e-06
 150    2.713514956684e-05
 151    -1.3202087532433e-05
 152    -4.8225332831953e-07
 153    1.2414712444146e-07
 154    -1.4079657290461e-06
 155    -1.8129779709474e-07
 156    -6.9153491834854e-07
 157    4.4369822956958e-07
 158    3.5056291046836e-06
 159    -2.2857478815357e-05
 160    1.1157435329171e-07
 161    6.7879679059455e-07
 162    -7.6941591083101e-07
 163    -6.8130108158636e-06
 164    8.7896396720381e-06
 165    1.2811120867496e-06
 166    7.4836742265755e-07
 167    -2.7835692950306e-07
 168    1.5794461958279e-07
 169    3.3804437954146e-07
 170    5.6417372502754e-07
 171    3.1846708730573e-08
 172    2.2281835781868e-07
 173    3.3130168842956e-06
 174    1.7664649182529e-08
 175    -1.6215905499224e-07
 176    8.858516408009e-07
 177    8.3803232167094e-06
 178    2.8804269090716e-06
 179    4.3334637166865e-06
 180    -2.6973756328676e-07
 181    9.4006564155336e-07
 182    6.180380110332e-08
 183    5.5780769448726e-07
 184    7.0064823620953e-07
 185    -4.3805935871059e-07
 186    -3.6574016692301e-06
 187    1.8596648814036e-05
 188    -7.2135427334525e-07
 189    -6.7062658565779e-08
 190    -1.9336814782541e-07
 191    -8.7364068665437e-07
 192    -7.2067955552583e-06
 193    -8.0384912406408e-06
 194    2.9231511808452e-07
 195    5.5348991054407e-07
 196    1.0738510995942e-06
 197    -3.0342758600483e-07
 198    2.4748230017738e-07
 199    -1.0616642545122e-06
 200    1.4093976540521e-06
 201    -3.2393422663724e-07
 202    6.0208405954895e-07
 203    -2.9643894386551e-07
 204    -3.8284462821829e-06
 205    2.0536514429873e-06
 206    7.4479131071321e-07
 207    -9.1734251291181e-07
 208    1.5649133324054e-05
 209    1.514317028058e-06
 210    6.2819906886841e-07
 211    1.3486153077758e-06
 212    1.9731391479751e-06
 213    3.7317503821013e-07
 214    -2.0295139550357e-06
 215    -1.7840123868046e-06
 216    1.1924532940729e-05
 217    4.2831153854513e-07
 218    -1.4123247624185e-07
 219    5.2904544630993e-07
 220    -1.7336839945158e-06
 221    -2.3089465343171e-06
 222    -1.3638228154265e-05
 223    0.00016520131465134
 224    4.6496506462827e-06
 225    -3.8543743418678e-07
 226    6.662648254852e-08
 227    2.214045940805e-05
 228    3.3042598825288e-05
 229    -0.00017758241005602
 230    4.152110114204e-06
 231    -5.8520136756642e-06
 232    -3.8677124651764e-06
 233    2.0408972953801e-06
 234    1.0609247988666e-06
 235    5.4909363967751e-06
 236    3.2537116081752e-05
 237    -0.00051819836720691
 238    -2.6003931637769e-06
 239    -5.1960978070875e-06
 240    1.2110332635388e-05
 241    0.00016005039917655
 242    4.4040118732214e-05
 243    9.634151076631e-05
 244    -1.4780161595603e-05
 245    1.1025760503807e-06
 246    2.9735796574174e-06
 247    -1.2712486524143e-06
 248    -3.5569635632813e-06
 249    -7.4461988614308e-06
 250    -1.6379566908007e-05
 251    -5.4893838085909e-06
 252    -3.2918132806358e-05
 253    0.00074124140484863
 254    -1.0516754903745e-05
 255    1.3067562483079e-05
 256    -2.4557866811059e-05
 257    0.00032687912832802
 258    1.2676273128056e-05
 259    9.3514677902615e-05
 260    1.4315171004721e-05
 261    -2.6014236579526e-06
 262    -2.3885539942613e-06
 263    4.5449934381581e-06
 264    -1.8185787289129e-06
 265    -4.4534093691808e-06
 266    -9.3822142226374e-06
 267    1.9868786721396e-05
 268    3.9473240826237e-05
 269    4.9953982500107e-05
 270    0.0001180156345241
 271    -0.0029971619954796
 272    0.00012281835646045
 273    0.00011145390690129
 274    7.2894232629398e-05
 275    -0.0015785600313994
 276    -0.00075687834646979
 277    0.0035601928392504
 278    -0.00035431690333037
 279    8.8166257928162e-05
 280    6.5229189870301e-06