[Molden Format]
made by pyscf v[2.0.1]
[Atoms] (AU)
C   1   6     0.69100024066471     0.64692934207205    -3.48223131169301
H   2   1     2.68052439830868     1.13355088658700    -3.25784032593313
C   3   6    -0.36286361513219     0.85440132524594    -5.97030179418974
H   4   1    -2.35448549047279     0.36322488579172    -6.17995817793143
C   5   6     0.93697958957450     1.61209284601821    -8.05828437677121
H   6   1     0.96138501035509     3.61074187827952    -8.55401536893531
C   7   6     2.29833572157337    -0.09037665740906    -9.67215882917863
H   8   1     2.25763405404964    -2.08692321364337    -9.15074973557782
H   9   1     1.55630230933075    -1.92953025305990    12.99630010416247
C   10   6     0.75233899775814    -2.21270439606481    11.10705728102219
H   11   1    -0.43433408177274    -3.90944857546550    11.22216085340412
C   12   6     2.86362581178706    -2.63237380607947     9.17926416456045
H   13   1     4.39038949912609    -1.24955421540245     9.49899813497433
H   14   1     3.74629220191363    -4.48798724300892     9.47414880959024
C   15   6     2.02478325613682    -2.42177285709634     6.44560829588644
C   16   6     3.88048732735477    -3.58795445234514     4.61402886975252
C   17   6    -0.18412382258602    -1.30464291234259     5.76021113872346
C   18   6    -2.10044360464350    -0.26837831858460     7.71610340967100
C   19   6    -3.08956938670431     2.35282328359417     6.88693925039594
C   20   6    -4.37372924086464    -2.09766595989678     7.93610724222001
C   21   6    -0.83850430601230     0.06372213486173    10.33002307638377
H   22   1     0.38411922151109     1.74281358582432    10.27380136542181
H   23   1    -2.30980003007874     0.45460143924521    11.73986301809809
H   24   1     4.58527064644668    -5.38706904487420     5.36778158031719
H   25   1     5.54944938085014    -2.37631462192748     4.35398898413318
H   26   1     3.06633019150423    -3.94118377050688     2.75255466040884
H   27   1    -4.17727778763735     2.26573369139522     5.12914900961283
H   28   1    -1.52662344944051     3.68001877445626     6.59540397144508
H   29   1    -4.32916174397830     3.13643051467482     8.35225460090378
H   30   1    -5.32329548508442    -2.36691813602939     6.11583672749896
H   31   1    -5.77989366602257    -1.33896741843465     9.25748940450990
H   32   1    -3.79310905208926    -3.96389819310853     8.61386170102686
C   33   6    -1.01100794811226    -1.06331657314144     3.11929490449947
C   34   6     0.37686231036534    -0.33275864505552     1.09165013605873
H   35   1    -3.01671213906703    -1.40297922279997     2.77827895090944
C   36   6    -0.64382707979370    -0.11591880174385    -1.42063131251064
H   37   1     2.35569259782137     0.17174499283897     1.33641070251401
H   38   1    -2.63317482980319    -0.60229203511219    -1.66119700387645
C   39   6     3.61506927759443     0.57708357993929   -11.76916696671870
C   40   6     4.94068653136927    -1.30276865816170   -13.29098070185656
H   41   1     3.73162541044975     2.53269508104841   -12.39347992177894
O   42   8     6.15625203764207    -0.83635548426311   -15.19510343410387
H   43   1     4.77073908343657    -3.27989237609552   -12.58226454806003
[GTO]
1 0
 s    6 1.00
             3047.5249  0.0018347001629433
             457.36951    0.01403730124668
             103.94869   0.068842606114048
             29.210155    0.23218442062076
              9.286663    0.46794134155879
              3.163927    0.36231203217765
 s    3 1.00
             7.8682724   -0.11933240861517
             1.8812885   -0.16085421161283
             0.5442493     1.1434564825515
 s    1 1.00
             0.1687144                   1
 p    3 1.00
             7.8682724   0.068999095584993
             1.8812885    0.31642397975315
             0.5442493    0.74430825237435
 p    1 1.00
             0.1687144                   1
 d    1 1.00
                   0.8                   1

2 0
 s    3 1.00
             18.731137    0.03349459952309
             2.8253937    0.23472694665786
             0.6401217    0.81375731841339
 s    1 1.00
             0.1612778                   1

3 0
 s    6 1.00
             3047.5249  0.0018347001629433
             457.36951    0.01403730124668
             103.94869   0.068842606114048
             29.210155    0.23218442062076
              9.286663    0.46794134155879
              3.163927    0.36231203217765
 s    3 1.00
             7.8682724   -0.11933240861517
             1.8812885   -0.16085421161283
             0.5442493     1.1434564825515
 s    1 1.00
             0.1687144                   1
 p    3 1.00
             7.8682724   0.068999095584993
             1.8812885    0.31642397975315
             0.5442493    0.74430825237435
 p    1 1.00
             0.1687144                   1
 d    1 1.00
                   0.8                   1

4 0
 s    3 1.00
             18.731137    0.03349459952309
             2.8253937    0.23472694665786
             0.6401217    0.81375731841339
 s    1 1.00
             0.1612778                   1

5 0
 s    6 1.00
             3047.5249  0.0018347001629433
             457.36951    0.01403730124668
             103.94869   0.068842606114048
             29.210155    0.23218442062076
              9.286663    0.46794134155879
              3.163927    0.36231203217765
 s    3 1.00
             7.8682724   -0.11933240861517
             1.8812885   -0.16085421161283
             0.5442493     1.1434564825515
 s    1 1.00
             0.1687144                   1
 p    3 1.00
             7.8682724   0.068999095584993
             1.8812885    0.31642397975315
             0.5442493    0.74430825237435
 p    1 1.00
             0.1687144                   1
 d    1 1.00
                   0.8                   1

6 0
 s    3 1.00
             18.731137    0.03349459952309
             2.8253937    0.23472694665786
             0.6401217    0.81375731841339
 s    1 1.00
             0.1612778                   1

7 0
 s    6 1.00
             3047.5249  0.0018347001629433
             457.36951    0.01403730124668
             103.94869   0.068842606114048
             29.210155    0.23218442062076
              9.286663    0.46794134155879
              3.163927    0.36231203217765
 s    3 1.00
             7.8682724   -0.11933240861517
             1.8812885   -0.16085421161283
             0.5442493     1.1434564825515
 s    1 1.00
             0.1687144                   1
 p    3 1.00
             7.8682724   0.068999095584993
             1.8812885    0.31642397975315
             0.5442493    0.74430825237435
 p    1 1.00
             0.1687144                   1
 d    1 1.00
                   0.8                   1

8 0
 s    3 1.00
             18.731137    0.03349459952309
             2.8253937    0.23472694665786
             0.6401217    0.81375731841339
 s    1 1.00
             0.1612778                   1

9 0
 s    3 1.00
             18.731137    0.03349459952309
             2.8253937    0.23472694665786
             0.6401217    0.81375731841339
 s    1 1.00
             0.1612778                   1

10 0
 s    6 1.00
             3047.5249  0.0018347001629433
             457.36951    0.01403730124668
             103.94869   0.068842606114048
             29.210155    0.23218442062076
              9.286663    0.46794134155879
              3.163927    0.36231203217765
 s    3 1.00
             7.8682724   -0.11933240861517
             1.8812885   -0.16085421161283
             0.5442493     1.1434564825515
 s    1 1.00
             0.1687144                   1
 p    3 1.00
             7.8682724   0.068999095584993
             1.8812885    0.31642397975315
             0.5442493    0.74430825237435
 p    1 1.00
             0.1687144                   1
 d    1 1.00
                   0.8                   1

11 0
 s    3 1.00
             18.731137    0.03349459952309
             2.8253937    0.23472694665786
             0.6401217    0.81375731841339
 s    1 1.00
             0.1612778                   1

12 0
 s    6 1.00
             3047.5249  0.0018347001629433
             457.36951    0.01403730124668
             103.94869   0.068842606114048
             29.210155    0.23218442062076
              9.286663    0.46794134155879
              3.163927    0.36231203217765
 s    3 1.00
             7.8682724   -0.11933240861517
             1.8812885   -0.16085421161283
             0.5442493     1.1434564825515
 s    1 1.00
             0.1687144                   1
 p    3 1.00
             7.8682724   0.068999095584993
             1.8812885    0.31642397975315
             0.5442493    0.74430825237435
 p    1 1.00
             0.1687144                   1
 d    1 1.00
                   0.8                   1

13 0
 s    3 1.00
             18.731137    0.03349459952309
             2.8253937    0.23472694665786
             0.6401217    0.81375731841339
 s    1 1.00
             0.1612778                   1

14 0
 s    3 1.00
             18.731137    0.03349459952309
             2.8253937    0.23472694665786
             0.6401217    0.81375731841339
 s    1 1.00
             0.1612778                   1

15 0
 s    6 1.00
             3047.5249  0.0018347001629433
             457.36951    0.01403730124668
             103.94869   0.068842606114048
             29.210155    0.23218442062076
              9.286663    0.46794134155879
              3.163927    0.36231203217765
 s    3 1.00
             7.8682724   -0.11933240861517
             1.8812885   -0.16085421161283
             0.5442493     1.1434564825515
 s    1 1.00
             0.1687144                   1
 p    3 1.00
             7.8682724   0.068999095584993
             1.8812885    0.31642397975315
             0.5442493    0.74430825237435
 p    1 1.00
             0.1687144                   1
 d    1 1.00
                   0.8                   1

16 0
 s    6 1.00
             3047.5249  0.0018347001629433
             457.36951    0.01403730124668
             103.94869   0.068842606114048
             29.210155    0.23218442062076
              9.286663    0.46794134155879
              3.163927    0.36231203217765
 s    3 1.00
             7.8682724   -0.11933240861517
             1.8812885   -0.16085421161283
             0.5442493     1.1434564825515
 s    1 1.00
             0.1687144                   1
 p    3 1.00
             7.8682724   0.068999095584993
             1.8812885    0.31642397975315
             0.5442493    0.74430825237435
 p    1 1.00
             0.1687144                   1
 d    1 1.00
                   0.8                   1

17 0
 s    6 1.00
             3047.5249  0.0018347001629433
             457.36951    0.01403730124668
             103.94869   0.068842606114048
             29.210155    0.23218442062076
              9.286663    0.46794134155879
              3.163927    0.36231203217765
 s    3 1.00
             7.8682724   -0.11933240861517
             1.8812885   -0.16085421161283
             0.5442493     1.1434564825515
 s    1 1.00
             0.1687144                   1
 p    3 1.00
             7.8682724   0.068999095584993
             1.8812885    0.31642397975315
             0.5442493    0.74430825237435
 p    1 1.00
             0.1687144                   1
 d    1 1.00
                   0.8                   1

18 0
 s    6 1.00
             3047.5249  0.0018347001629433
             457.36951    0.01403730124668
             103.94869   0.068842606114048
             29.210155    0.23218442062076
              9.286663    0.46794134155879
              3.163927    0.36231203217765
 s    3 1.00
             7.8682724   -0.11933240861517
             1.8812885   -0.16085421161283
             0.5442493     1.1434564825515
 s    1 1.00
             0.1687144                   1
 p    3 1.00
             7.8682724   0.068999095584993
             1.8812885    0.31642397975315
             0.5442493    0.74430825237435
 p    1 1.00
             0.1687144                   1
 d    1 1.00
                   0.8                   1

19 0
 s    6 1.00
             3047.5249  0.0018347001629433
             457.36951    0.01403730124668
             103.94869   0.068842606114048
             29.210155    0.23218442062076
              9.286663    0.46794134155879
              3.163927    0.36231203217765
 s    3 1.00
             7.8682724   -0.11933240861517
             1.8812885   -0.16085421161283
             0.5442493     1.1434564825515
 s    1 1.00
             0.1687144                   1
 p    3 1.00
             7.8682724   0.068999095584993
             1.8812885    0.31642397975315
             0.5442493    0.74430825237435
 p    1 1.00
             0.1687144                   1
 d    1 1.00
                   0.8                   1

20 0
 s    6 1.00
             3047.5249  0.0018347001629433
             457.36951    0.01403730124668
             103.94869   0.068842606114048
             29.210155    0.23218442062076
              9.286663    0.46794134155879
              3.163927    0.36231203217765
 s    3 1.00
             7.8682724   -0.11933240861517
             1.8812885   -0.16085421161283
             0.5442493     1.1434564825515
 s    1 1.00
             0.1687144                   1
 p    3 1.00
             7.8682724   0.068999095584993
             1.8812885    0.31642397975315
             0.5442493    0.74430825237435
 p    1 1.00
             0.1687144                   1
 d    1 1.00
                   0.8                   1

21 0
 s    6 1.00
             3047.5249  0.0018347001629433
             457.36951    0.01403730124668
             103.94869   0.068842606114048
             29.210155    0.23218442062076
              9.286663    0.46794134155879
              3.163927    0.36231203217765
 s    3 1.00
             7.8682724   -0.11933240861517
             1.8812885   -0.16085421161283
             0.5442493     1.1434564825515
 s    1 1.00
             0.1687144                   1
 p    3 1.00
             7.8682724   0.068999095584993
             1.8812885    0.31642397975315
             0.5442493    0.74430825237435
 p    1 1.00
             0.1687144                   1
 d    1 1.00
                   0.8                   1

22 0
 s    3 1.00
             18.731137    0.03349459952309
             2.8253937    0.23472694665786
             0.6401217    0.81375731841339
 s    1 1.00
             0.1612778                   1

23 0
 s    3 1.00
             18.731137    0.03349459952309
             2.8253937    0.23472694665786
             0.6401217    0.81375731841339
 s    1 1.00
             0.1612778                   1

24 0
 s    3 1.00
             18.731137    0.03349459952309
             2.8253937    0.23472694665786
             0.6401217    0.81375731841339
 s    1 1.00
             0.1612778                   1

25 0
 s    3 1.00
             18.731137    0.03349459952309
             2.8253937    0.23472694665786
             0.6401217    0.81375731841339
 s    1 1.00
             0.1612778                   1

26 0
 s    3 1.00
             18.731137    0.03349459952309
             2.8253937    0.23472694665786
             0.6401217    0.81375731841339
 s    1 1.00
             0.1612778                   1

27 0
 s    3 1.00
             18.731137    0.03349459952309
             2.8253937    0.23472694665786
             0.6401217    0.81375731841339
 s    1 1.00
             0.1612778                   1

28 0
 s    3 1.00
             18.731137    0.03349459952309
             2.8253937    0.23472694665786
             0.6401217    0.81375731841339
 s    1 1.00
             0.1612778                   1

29 0
 s    3 1.00
             18.731137    0.03349459952309
             2.8253937    0.23472694665786
             0.6401217    0.81375731841339
 s    1 1.00
             0.1612778                   1

30 0
 s    3 1.00
             18.731137    0.03349459952309
             2.8253937    0.23472694665786
             0.6401217    0.81375731841339
 s    1 1.00
             0.1612778                   1

31 0
 s    3 1.00
             18.731137    0.03349459952309
             2.8253937    0.23472694665786
             0.6401217    0.81375731841339
 s    1 1.00
             0.1612778                   1

32 0
 s    3 1.00
             18.731137    0.03349459952309
             2.8253937    0.23472694665786
             0.6401217    0.81375731841339
 s    1 1.00
             0.1612778                   1

33 0
 s    6 1.00
             3047.5249  0.0018347001629433
             457.36951    0.01403730124668
             103.94869   0.068842606114048
             29.210155    0.23218442062076
              9.286663    0.46794134155879
              3.163927    0.36231203217765
 s    3 1.00
             7.8682724   -0.11933240861517
             1.8812885   -0.16085421161283
             0.5442493     1.1434564825515
 s    1 1.00
             0.1687144                   1
 p    3 1.00
             7.8682724   0.068999095584993
             1.8812885    0.31642397975315
             0.5442493    0.74430825237435
 p    1 1.00
             0.1687144                   1
 d    1 1.00
                   0.8                   1

34 0
 s    6 1.00
             3047.5249  0.0018347001629433
             457.36951    0.01403730124668
             103.94869   0.068842606114048
             29.210155    0.23218442062076
              9.286663    0.46794134155879
              3.163927    0.36231203217765
 s    3 1.00
             7.8682724   -0.11933240861517
             1.8812885   -0.16085421161283
             0.5442493     1.1434564825515
 s    1 1.00
             0.1687144                   1
 p    3 1.00
             7.8682724   0.068999095584993
             1.8812885    0.31642397975315
             0.5442493    0.74430825237435
 p    1 1.00
             0.1687144                   1
 d    1 1.00
                   0.8                   1

35 0
 s    3 1.00
             18.731137    0.03349459952309
             2.8253937    0.23472694665786
             0.6401217    0.81375731841339
 s    1 1.00
             0.1612778                   1

36 0
 s    6 1.00
             3047.5249  0.0018347001629433
             457.36951    0.01403730124668
             103.94869   0.068842606114048
             29.210155    0.23218442062076
              9.286663    0.46794134155879
              3.163927    0.36231203217765
 s    3 1.00
             7.8682724   -0.11933240861517
             1.8812885   -0.16085421161283
             0.5442493     1.1434564825515
 s    1 1.00
             0.1687144                   1
 p    3 1.00
             7.8682724   0.068999095584993
             1.8812885    0.31642397975315
             0.5442493    0.74430825237435
 p    1 1.00
             0.1687144                   1
 d    1 1.00
                   0.8                   1

37 0
 s    3 1.00
             18.731137    0.03349459952309
             2.8253937    0.23472694665786
             0.6401217    0.81375731841339
 s    1 1.00
             0.1612778                   1

38 0
 s    3 1.00
             18.731137    0.03349459952309
             2.8253937    0.23472694665786
             0.6401217    0.81375731841339
 s    1 1.00
             0.1612778                   1

39 0
 s    6 1.00
             3047.5249  0.0018347001629433
             457.36951    0.01403730124668
             103.94869   0.068842606114048
             29.210155    0.23218442062076
              9.286663    0.46794134155879
              3.163927    0.36231203217765
 s    3 1.00
             7.8682724   -0.11933240861517
             1.8812885   -0.16085421161283
             0.5442493     1.1434564825515
 s    1 1.00
             0.1687144                   1
 p    3 1.00
             7.8682724   0.068999095584993
             1.8812885    0.31642397975315
             0.5442493    0.74430825237435
 p    1 1.00
             0.1687144                   1
 d    1 1.00
                   0.8                   1

40 0
 s    6 1.00
             3047.5249  0.0018347001629433
             457.36951    0.01403730124668
             103.94869   0.068842606114048
             29.210155    0.23218442062076
              9.286663    0.46794134155879
              3.163927    0.36231203217765
 s    3 1.00
             7.8682724   -0.11933240861517
             1.8812885   -0.16085421161283
             0.5442493     1.1434564825515
 s    1 1.00
             0.1687144                   1
 p    3 1.00
             7.8682724   0.068999095584993
             1.8812885    0.31642397975315
             0.5442493    0.74430825237435
 p    1 1.00
             0.1687144                   1
 d    1 1.00
                   0.8                   1

41 0
 s    3 1.00
             18.731137    0.03349459952309
             2.8253937    0.23472694665786
             0.6401217    0.81375731841339
 s    1 1.00
             0.1612778                   1

42 0
 s    6 1.00
             5484.6717   0.001831099805527
             825.23495   0.013950098518422
             188.04696    0.06844509273075
               52.9645    0.23271427528445
              16.89757    0.47019295006289
             5.7996353    0.35852086192309
 s    3 1.00
             15.539616   -0.11077750382508
             3.5999336   -0.14802630511126
             1.0137618     1.1307670390447
 s    1 1.00
             0.2700058                   1
 p    3 1.00
             15.539616   0.070874299543311
             3.5999336    0.33975279781076
             1.0137618    0.72715859531445
 p    1 1.00
             0.2700058                   1
 d    1 1.00
                   0.8                   1

43 0
 s    3 1.00
             18.731137    0.03349459952309
             2.8253937    0.23472694665786
             0.6401217    0.81375731841339
 s    1 1.00
             0.1612778                   1

[5d]
[7f]
[9g]

[MO]
 Sym= A
 Ene=               0
 Spin= Alpha
 Occup=    1.00000
   1    -1.631229064482e-06
   2    -1.6909155147571e-05
   3    -1.7643662095882e-05
   4    -4.626636550258e-06
   5    -4.3089371798021e-06
   6    1.2802181379472e-05
   7    3.5962470581283e-05
   8    0.00011215939286359
   9    -0.00036712880423035
  10    2.5357092129426e-08
  11    1.075795279456e-05
  12    1.5474968908848e-06
  13    1.3734137827002e-05
  14    -7.694878846147e-06
  15    -1.4072267008832e-05
  16    1.3773356759088e-05
  17    7.0835807541813e-06
  18    0.00015929822218343
  19    0.00041634829495088
  20    5.4804635137705e-05
  21    -7.1365358786704e-06
  22    -6.9013204076361e-05
  23    0.00017807577788044
  24    -0.00010455574344207
  25    -0.00057809396286952
  26    2.1147198164107e-05
  27    -2.3380541199151e-05
  28    1.2286648869836e-05
  29    4.118537293495e-05
  30    1.6057898091531e-07
  31    -1.0797808939582e-05
  32    3.2980980808196e-05
  33    5.091507292795e-05
  34    0.00034238699791804
  35    -0.0042841919717651
  36    -9.1673889159887e-05
  37    1.8136113572389e-05
  38    0.00014232582912314
  39    -0.00057532957535043
  40    0.0018663155747696
  41    0.00044637228666916
  42    -1.8264533109702e-05
  43    0.00010821919600781
  44    -6.079106895997e-05
  45    2.2981569984329e-05
  46    6.0577898223771e-05
  47    -1.7646349187998e-05
  48    -0.0002722224491169
  49    4.7341305826452e-06
  50    0.00011682128828241
  51    0.0034406291003175
  52    0.00018635250933309
  53    -0.00021937206526951
  54    -0.00022408703095003
  55    -0.0018202884917592
  56    0.0024947587751407
  57    0.0021088207825874
  58    -3.1082142357154e-05
  59    3.2495702045529e-05
  60    0.00018724267805801
  61    3.2011344211509e-05
  62    -0.00011697670740237
  63    0.00028342591118161
  64    7.6787338085633e-05
  65    -2.1183091839784e-07
  66    -2.9336685987445e-07
  67    -4.1295648734083e-08
  68    -5.6707514030042e-07
  69    2.768832318487e-06
  70    2.3020881234567e-07
  71    -3.3380102835572e-07
  72    1.3312646190667e-07
  73    2.6907907986834e-07
  74    1.6512828518134e-06
  75    3.1249157761714e-08
  76    -5.5546600340292e-08
  77    -1.2079045026644e-07
  78    4.7080174341518e-08
  79    6.9199493552219e-08
  80    -1.0478180992142e-07
  81    9.3172844266668e-08
  82    2.0457000854338e-07
  83    1.9854054001275e-08
  84    -2.1255290349633e-07
  85    -1.362433248619e-05
  86    6.4607642557387e-07
  87    4.1475190518759e-08
  88    8.9707681985973e-07
  89    3.3195569681433e-06
  90    -4.7091401933057e-06
  91    3.3688262976997e-06
  92    1.7314392672382e-07
  93    -2.7802354870193e-07
  94    3.5423565491988e-07
  95    4.641822642683e-08
  96    -1.6153944610774e-07
  97    6.5766714298807e-07
  98    8.2046594040143e-07
  99    -9.3090369862142e-09
 100    -1.0620033165676e-06
 101    -5.6192104418778e-08
 102    -8.3452447797394e-07
 103    1.3174414435679e-05
 104    2.542598602036e-07
 105    -9.2630900468421e-07
 106    -6.3727050493916e-07
 107    -1.9246874288678e-05
 108    1.7850727702755e-05
 109    3.1156987992165e-05
 110    -5.8957887133139e-07
 111    -5.4666094355242e-07
 112    2.3185653186484e-07
 113    3.1557219369244e-07
 114    -5.1188869045161e-07
 115    -4.7892213216711e-07
 116    -4.4017811386868e-06
 117    3.6193277051305e-05
 118    -6.6755416394912e-07
 119    9.8925226346052e-07
 120    8.5881195719392e-07
 121    -8.4729221552214e-06
 122    1.2501035609375e-06
 123    2.9662707837065e-06
 124    -8.3165668361295e-08
 125    -2.4496174356244e-07
 126    -1.1810201810486e-07
 127    1.1754238156318e-07
 128    -3.713563236261e-07
 129    -9.5372730087318e-07
 130    -8.6375959051482e-06
 131    5.2065363145044e-05
 132    1.8473345610605e-07
 133    -1.6621996487596e-07
 134    3.4070124775946e-06
 135    -2.4059023202803e-05
 136    1.5027769900093e-07
 137    -8.2099962965586e-05
 138    2.4841422483497e-06
 139    1.5867922350874e-06
 140    2.3929880239792e-07
 141    4.1892414624326e-07
 142    6.1069417918289e-08
 143    -4.3347264921638e-07
 144    -4.0264521991504e-06
 145    2.055921778681e-05
 146    2.2015460922992e-07
 147    4.5807510308486e-07
 148    3.9590586415408e-07
 149    1.2296077617798e-05
 150    -6.2189845002547e-06
 151    -3.3082551652345e-06
 152    -9.8928243999781e-07
 153    -3.8749144253701e-07
 154    -1.2119847778277e-07
 155    7.1798621601176e-07
 156    -7.6121756350627e-07
 157    1.0544056663355e-07
 158    8.5986334944269e-07
 159    3.1597200159858e-07
 160    6.9135179058298e-07
 161    -7.7951215107449e-08
 162    -1.0871634619951e-07
 163    -6.363606985017e-06
 164    3.1058007683224e-07
 165    8.2766787751421e-07
 166    4.6428890293017e-07
 167    -1.8664810315932e-07
 168    1.9604090925802e-08
 169    -1.0972275633948e-07
 170    3.0191493416118e-07
 171    2.404833205502e-08
 172    -4.1105057341537e-07
 173    -1.4076240613462e-06
 174    -6.210914412699e-07
 175    -1.6163702871251e-07
 176    7.4868377932327e-07
 177    -3.4343948304892e-07
 178    1.720067359631e-06
 179    -1.6678950233998e-06
 180    1.3701375548684e-07
 181    2.1386724636937e-07
 182    3.8505844940958e-08
 183    -3.7862251563082e-07
 184    1.8028492154693e-07
 185    -2.9191355929573e-07
 186    -2.99553088683e-06
 187    1.9584758181616e-06
 188    -2.1748477167628e-07
 189    1.3371119443505e-07
 190    1.1634993677259e-06
 191    2.1913025075858e-06
 192    7.4893248435255e-07
 193    -5.423490213765e-06
 194     3.00096548164e-07
 195    -3.8403430981525e-08
 196    1.9337633665113e-07
 197    9.0407319760619e-08
 198    -9.1331487404624e-08
 199    -7.2263012389898e-07
 200    -1.1686302657035e-06
 201    5.5583268669028e-08
 202    3.2835310292839e-06
 203    -1.6340407278574e-06
 204    -1.7488555516975e-06
 205    -3.133362564531e-07
 206    -2.370195123319e-06
 207    1.0920072945313e-06
 208    -1.1087479454425e-05
 209    1.1100804382033e-06
 210    -4.2831390656335e-06
 211    5.0305529935158e-07
 212    2.8299885664345e-06
 213    -2.2525988573667e-07
 214    -2.1292273583837e-06
 215    -4.7963285055627e-07
 216    6.8008829532737e-07
 217    2.6799207819725e-07
 218    7.6155048439497e-07
 219    2.7965249324433e-07
 220    1.1112089125614e-06
 221    -7.3539572082874e-07
 222    -8.006722918017e-06
 223    -8.2593900895487e-06
 224    4.6981998745663e-07
 225    -9.1886476676282e-07
 226    3.6780040012784e-06
 227    1.0693605200589e-05
 228    2.7143893438076e-05
 229    -9.5919778375275e-05
 230    -1.1052316050838e-06
 231    -4.1201160991915e-06
 232    -1.9201656349627e-06
 233    1.8329069221936e-06
 234    2.7563493250982e-06
 235    -1.0093514373246e-06
 236    -1.0647509131354e-05
 237    2.0228941022419e-05
 238    -8.4715563147586e-07
 239    2.8744940107661e-06
 240    4.3057348443529e-06
 241    -2.0924586952648e-05
 242    -7.5399917330457e-06
 243    -8.6098271338389e-05
 244    1.3619018374578e-06
 245    6.6760669081575e-06
 246    1.8144291156558e-06
 247     2.59762229244e-06
 248    1.3113172560468e-06
 249    -4.2359824251456e-06
 250    1.049567701228e-05
 251    -3.9439485996288e-06
 252    -3.2337228011162e-05
 253    0.00026187236197266
 254    2.2712041678032e-06
 255    -9.3102165985101e-06
 256    7.5267545482667e-06
 257    0.00011225215706306
 258    9.655934303985e-05
 259    -0.00024189859656938
 260    2.449781159104e-06
 261    -1.2134600838989e-05
 262    -5.2421415318575e-06
 263    7.8031133101991e-06
 264    5.2746036528017e-06
 265    -4.2505201103158e-06
 266    2.7664306169951e-05
 267    -8.335981005535e-06
 268    3.7496686830385e-05
 269    -5.1182941389596e-05
 270    -0.00012566580217484
 271    0.0030395891227268
 272    3.1483479703533e-05
 273    -0.00018367330099752
 274    -3.1061856770522e-06
 275    0.0020848836273427
 276    0.00057588380871252
 277    -0.0032151822348305
 278    0.00019782153976378
 279    -0.000214756336239
 280    0.00015881299196409