[Molden Format]
made by pyscf v[2.0.1]
[Atoms] (AU)
C   1   6    -0.00491185910195    -0.00302299034612    -6.30478139015019
O   2   8    -0.00302499062123    -0.00226824280266    -4.17507277885027
[GTO]
1 0
 s    5 1.00
          1238.4016938  0.0055173650481097
          186.29004992   0.041088828555946
          42.251176346     0.1822538212649
          11.676557932    0.46828459437429
          3.5930506482    0.44575817336002
 s    1 1.00
         0.40245147363                   1
 s    1 1.00
         0.13090182668                   1
 p    3 1.00
          9.4680970621   0.056888332011037
          2.0103545142    0.31294059336471
         0.54771004707    0.76065016509135
 p    1 1.00
         0.15268613795                   1
 d    1 1.00
                   0.8                   1

2 0
 s    5 1.00
          2266.1767785  -0.0053893503921743
          340.87010191   -0.04023472138896
          77.363135167   -0.18008184205526
           21.47964494   -0.46828857657651
          6.6589433124   -0.44692617160187
 s    1 1.00
         0.80975975668                   1
 s    1 1.00
         0.25530772234                   1
 p    3 1.00
          17.721504317   0.062630248763161
           3.863550544    0.33331138482352
          1.0480920883    0.74148638308122
 p    1 1.00
         0.27641544411                   1
 d    1 1.00
                   1.2                   1

[5d]
[7f]
[9g]

[MO]
 Sym= A
 Ene=               0
 Spin= Alpha
 Occup=    1.00000
   1    -0.00046105880408385
   2    -0.00024464386514837
   3     -0.01041291216805
   4    2.0144433457407e-06
   5    8.0577749763318e-07
   6    0.0022737354198473
   7    -6.578051744923e-06
   8    -2.6312212233522e-06
   9    -0.0074246504320267
  10    0.0024296636100362
  11    3.7283955804027e-06
  12    1.4913585271071e-06
  13    1.3874057899801e-09
  14    1.3212008675597e-09
  15       0.9883637874402
  16    -0.043175110712993
  17     0.028222788027813
  18    2.9965985232069e-06
  19    1.1986396798473e-06
  20     0.003381887567457
  21    -4.6741296419827e-06
  22    -1.869652239122e-06
  23    -0.0052756422955504
  24    -0.00089903899961815
  25    -1.379753952239e-06
  26    -5.5190170333632e-07
  27    -5.1539279531118e-10
  28    -4.8798178246472e-10
 Sym= A
 Ene=               1
 Spin= Alpha
 Occup=    1.00000
   1      -0.9885768488405
   2    -0.045227337598103
   3    0.0087844942374665
   4    -5.5775880417843e-06
   5    -2.2310357048014e-06
   6    -0.0062955039101533
   7    -3.79078623005e-06
   8    -1.5163147844854e-06
   9    -0.0042785714336317
  10    -0.0029516515635911
  11    -4.5294300179795e-06
  12    -1.811772387268e-06
  13    -1.6859373745669e-09
  14    -1.6046978181202e-09
  15    -0.00027224478392574
  16    0.0010464220554078
  17     0.010938494919717
  18    -1.3984482155145e-06
  19    -5.5937939276831e-07
  20    -0.0015785477742351
  21    -7.3468861473889e-06
  22    -2.9387550418088e-06
  23    -0.0082924326763188
  24    0.00028095610899775
  25    4.3086374351767e-07
  26    1.723455149816e-07
  27    1.6116004287743e-10
  28    1.5185813018721e-10
 Sym= A
 Ene=               2
 Spin= Alpha
 Occup=    1.00000
   1      0.14949835136067
   2     -0.28551763749001
   3    -0.030434253177987
   4    -0.00020166038517922
   5    -8.0664170395677e-05
   6     -0.22761427587148
   7    -1.2442509696711e-05
   8    -4.9770048335483e-06
   9    -0.014044142906969
  10    -0.032077915930805
  11    -4.9223411790848e-05
  12    -1.9689368716911e-05
  13    -1.8355087579881e-08
  14    -1.7425821357211e-08
  15     -0.26456881718984
  16     -0.52555415586809
  17     -0.22473025014154
  18    0.00016773602056149
  19    6.7094421506705e-05
  20      0.18932575249914
  21    1.4497153710796e-05
  22    5.7988626650195e-06
  23     0.016362998013017
  24    -0.014962409910916
  25    -2.2960920010788e-05
  26    -9.1843698873009e-06
  27    -8.5390567183813e-09
  28    -8.1421459303808e-09
 Sym= A
 Ene=               3
 Spin= Alpha
 Occup=    1.00000
   1       0.1695291549348
   2     -0.38206866304974
   3    -0.098826129989168
   4    -0.00011252253926046
   5    -4.500902468628e-05
   6     -0.12700379644005
   7    2.4840516540515e-05
   8    9.9362087335083e-06
   9     0.028036010003743
  10    -0.0048285739106474
  11    -7.4104310473839e-06
  12    -2.9641730827356e-06
  13    -2.7916754026286e-09
  14    -2.6141811744639e-09
  15      0.15630816462224
  16      0.33046013222019
  17      0.36881479516265
  18    0.00043350289807943
  19    0.00017340119484835
  20      0.48928258223455
  21     0.000205721225623
  22    8.228850712817e-05
  23       0.2321911761288
  24    -0.023369017602411
  25    -3.5863495714709e-05
  26    -1.4345401264703e-05
  27    -1.3330459421685e-08
  28    -1.2718056735678e-08
 Sym= A
 Ene=               4
 Spin= Alpha
 Occup=    1.00000
   1    7.0399440363972e-09
   2    -1.8861785424846e-08
   3    -3.8697795618512e-09
   4     -0.33604055035973
   5    0.0071327947924737
   6    0.00029520532233262
   7     -0.13207814881722
   8    0.0028034900167189
   9    0.00011602871577513
  10    6.6740069956977e-05
  11    -0.043861248687653
  12    0.00093101300613624
  13    -3.9192489147277e-05
  14    -1.471878135529e-05
  15    2.6903125334974e-09
  16    4.6233070593296e-09
  17    2.1979836836038e-09
  18     -0.55931167509076
  19     0.011871946311548
  20    0.00049132947010292
  21     -0.32913186953438
  22    0.0069861511244529
  23    0.00028912886383339
  24    -4.0031524226244e-05
  25     0.026311363519087
  26    -0.00055849346037035
  27    2.3510942217687e-05
  28    8.828412449664e-06
 Sym= A
 Ene=               5
 Spin= Alpha
 Occup=    1.00000
   1    -2.9909781276351e-09
   2    8.0137868740361e-09
   3    1.6440052056045e-09
   4    0.0071326868472663
   5      0.33604065882748
   6    -0.00012541292768458
   7    0.0028034476145962
   8      0.13207819151931
   9    -4.9292813896087e-05
  10    -2.8353376149231e-05
  11    0.00093097073001701
  12     0.043861291110417
  13    -1.4720137018399e-05
  14    3.9188933824612e-05
  15    -1.1431673181421e-09
  16    -1.9645235977512e-09
  17    -9.3462110214015e-10
  18     0.011871766831842
  19        0.559311855681
  20    -0.00020873291586394
  21     0.006986045499991
  22      0.32913197598481
  23    -0.00012283144900986
  24    1.7006707697743e-05
  25    -0.00055846815152431
  26     -0.02631138905918
  27    8.8303726396375e-06
  28    -2.3505755067074e-05
 Sym= A
 Ene=               6
 Spin= Alpha
 Occup=    1.00000
   1       0.1846831891493
   2     -0.39347358801466
   3     -0.50196616555506
   4    0.00039411380783641
   5    0.00015764555490473
   6      0.44484042309353
   7    0.00012138949561099
   8    4.8555808001615e-05
   9      0.13700576421723
  10     0.033371639574604
  11    5.1205825425957e-05
  12    2.0482334285305e-05
  13    1.9075654014982e-08
  14    1.8131075239043e-08
  15      0.02037620014553
  16     0.054339464640475
  17    0.0074550621749619
  18    -0.00023672508088683
  19    -9.4690051623521e-05
  20     -0.26720979711403
  21    -0.00011560043121345
  22    -4.6240181897152e-05
  23     -0.13049085229193
  24    0.0048102147504095
  25    7.3811707540458e-06
  26    2.9524689476876e-06
  27    2.7346861560404e-09
  28    2.6227480668933e-09
