[Molden Format]
made by pyscf v[2.0.1]
[Atoms] (AU)
O   1   8     0.00000000000000     0.00000000000000    11.31969581038057
H   2   1     0.00000000000000     0.00000000000000     9.49629398847960
H   3   1    -0.05031916615174     1.78353065140343    11.69556750684724
O   4   8     0.00000000000000     0.00000000000000     2.31533471513237
C   5   6     0.00000000000000     0.00000000000000     0.00000000000000
C   6   6     2.01118073026938    -1.40227222164369    -1.50774939176400
C   7   6    -2.01249334291722     1.41331050329955    -1.50315905028694
H   8   1     3.32037363730244    -2.26721897153159    -0.13599698591495
C   9   6     3.45899267434009     0.28739631745591    -3.37437943254505
H   10   1     1.07662969841332    -2.94725144642667    -2.56541439481080
H   11   1    -2.67503415753480     0.18421555839588    -3.06194479365997
H   12   1    -1.07974048864772     3.03851734677796    -2.43674295017013
C   13   6    -4.21607110578555     2.32938802552922     0.11994162256091
H   14   1     4.24440173074564     1.93368664142019    -2.34976285512790
H   15   1     2.15020713235517     1.04714335134846    -4.81494497423699
C   16   6     5.60746363007797    -1.12419643481196    -4.70268606082550
H   17   1    -3.46838323670267     3.50951302338067     1.66946842715333
H   18   1    -5.11873485366228     0.68575958301209     1.04047743976495
C   19   6    -6.18314754751344     3.80909592987882    -1.39656589068747
H   20   1     6.93011263717176    -1.87550812453645    -3.26656317360070
C   21   6     7.06356622236532     0.52877932406334    -6.57829775293605
H   22   1     4.82318879258361    -2.78573437948532    -5.70504560381835
H   23   1    -6.91582688743803     2.61304780074712    -2.95074552451969
H   24   1    -5.26532430573853     5.45420349051338    -2.31005832200284
C   25   6    -8.39941882261433     4.73263980500213     0.21800571437956
H   26   1     7.83338371486801     2.19084139882824    -5.57093109900697
H   27   1     5.73544244039420     1.27376866537418    -8.01071492370229
C   28   6     9.21124858443101    -0.89699110072176    -7.88926949186242
H   29   1    -7.66272760055236     5.92277078003992     1.77035591474408
H   30   1    -9.31497248082589     3.08753015622020     1.12614408368786
C   31   6   -10.35481709231879     6.21833079391143    -1.30905206253246
H   32   1    10.58815905329501    -1.61074586756696    -6.49512691622620
H   33   1    10.23506248045667     0.32468009384095    -9.23072870921204
H   34   1     8.47665842847139    -2.53598436989925    -8.94921964622535
H   35   1    -9.48948872868064     7.90013588951020    -2.18823918416067
H   36   1   -11.93332513000955     6.86460487874102    -0.11255798845995
H   37   1   -11.15126291841033     5.04495968327630    -2.83849898862534
[GTO]
1 0
 s    8 1.00
                 11720  0.00070964594651845
                  1759  0.0054672722921914
                 400.8   0.027823118610189
                 113.7    0.10474773971146
                 37.03    0.28292084635691
                 13.27    0.44849523869833
                 5.025    0.27081688521277
                 1.013    0.01545029160744
 s    8 1.00
                 11720  -0.00031444341168873
                  1759  -0.0024821376810179
                 400.8  -0.012316355381583
                 113.7  -0.050538917343672
                 37.03   -0.13938490331632
                 13.27   -0.32507749481778
                 5.025   -0.22984830758785
                 1.013     1.0953793467883
 s    1 1.00
                0.3023                   1
 p    3 1.00
                  17.7   0.062679166281506
                 3.854    0.33353656587936
                 1.046    0.74123964163973
 p    1 1.00
                0.2753                   1
 d    1 1.00
                 1.185                   1

2 0
 s    3 1.00
                 13.01   0.033498726389998
                 1.962    0.23480080117413
                0.4446     0.8136829578829
 s    1 1.00
                 0.122                   1
 p    1 1.00
                 0.727                   1

3 0
 s    3 1.00
                 13.01   0.033498726389998
                 1.962    0.23480080117413
                0.4446     0.8136829578829
 s    1 1.00
                 0.122                   1
 p    1 1.00
                 0.727                   1

4 0
 s    8 1.00
                 11720  0.00070964594651845
                  1759  0.0054672722921914
                 400.8   0.027823118610189
                 113.7    0.10474773971146
                 37.03    0.28292084635691
                 13.27    0.44849523869833
                 5.025    0.27081688521277
                 1.013    0.01545029160744
 s    8 1.00
                 11720  -0.00031444341168873
                  1759  -0.0024821376810179
                 400.8  -0.012316355381583
                 113.7  -0.050538917343672
                 37.03   -0.13938490331632
                 13.27   -0.32507749481778
                 5.025   -0.22984830758785
                 1.013     1.0953793467883
 s    1 1.00
                0.3023                   1
 p    3 1.00
                  17.7   0.062679166281506
                 3.854    0.33353656587936
                 1.046    0.74123964163973
 p    1 1.00
                0.2753                   1
 d    1 1.00
                 1.185                   1

5 0
 s    8 1.00
                  6665  0.00069158396281299
                  1000  0.0053257961529341
                   228   0.027060721042034
                 64.71    0.10165684614077
                 21.06     0.2745748236174
                 7.495    0.44829431892377
                 2.797    0.28490261071525
                0.5215   0.015194859206082
 s    8 1.00
                  6665  -0.00029326965268655
                  1000  -0.0023180354739745
                   228  -0.011499786038565
                 64.71  -0.046826727009787
                 21.06   -0.12846616875047
                 7.495   -0.30126627246289
                 2.797   -0.25563070233011
                0.5215      1.093793361012
 s    1 1.00
                0.1596                   1
 p    3 1.00
                 9.439   0.056979251590039
                 2.002    0.31320721150073
                0.5456    0.76037674173753
 p    1 1.00
                0.1517                   1
 d    1 1.00
                  0.55                   1

6 0
 s    8 1.00
                  6665  0.00069158396281299
                  1000  0.0053257961529341
                   228   0.027060721042034
                 64.71    0.10165684614077
                 21.06     0.2745748236174
                 7.495    0.44829431892377
                 2.797    0.28490261071525
                0.5215   0.015194859206082
 s    8 1.00
                  6665  -0.00029326965268655
                  1000  -0.0023180354739745
                   228  -0.011499786038565
                 64.71  -0.046826727009787
                 21.06   -0.12846616875047
                 7.495   -0.30126627246289
                 2.797   -0.25563070233011
                0.5215      1.093793361012
 s    1 1.00
                0.1596                   1
 p    3 1.00
                 9.439   0.056979251590039
                 2.002    0.31320721150073
                0.5456    0.76037674173753
 p    1 1.00
                0.1517                   1
 d    1 1.00
                  0.55                   1

7 0
 s    8 1.00
                  6665  0.00069158396281299
                  1000  0.0053257961529341
                   228   0.027060721042034
                 64.71    0.10165684614077
                 21.06     0.2745748236174
                 7.495    0.44829431892377
                 2.797    0.28490261071525
                0.5215   0.015194859206082
 s    8 1.00
                  6665  -0.00029326965268655
                  1000  -0.0023180354739745
                   228  -0.011499786038565
                 64.71  -0.046826727009787
                 21.06   -0.12846616875047
                 7.495   -0.30126627246289
                 2.797   -0.25563070233011
                0.5215      1.093793361012
 s    1 1.00
                0.1596                   1
 p    3 1.00
                 9.439   0.056979251590039
                 2.002    0.31320721150073
                0.5456    0.76037674173753
 p    1 1.00
                0.1517                   1
 d    1 1.00
                  0.55                   1

8 0
 s    3 1.00
                 13.01   0.033498726389998
                 1.962    0.23480080117413
                0.4446     0.8136829578829
 s    1 1.00
                 0.122                   1
 p    1 1.00
                 0.727                   1

9 0
 s    8 1.00
                  6665  0.00069158396281299
                  1000  0.0053257961529341
                   228   0.027060721042034
                 64.71    0.10165684614077
                 21.06     0.2745748236174
                 7.495    0.44829431892377
                 2.797    0.28490261071525
                0.5215   0.015194859206082
 s    8 1.00
                  6665  -0.00029326965268655
                  1000  -0.0023180354739745
                   228  -0.011499786038565
                 64.71  -0.046826727009787
                 21.06   -0.12846616875047
                 7.495   -0.30126627246289
                 2.797   -0.25563070233011
                0.5215      1.093793361012
 s    1 1.00
                0.1596                   1
 p    3 1.00
                 9.439   0.056979251590039
                 2.002    0.31320721150073
                0.5456    0.76037674173753
 p    1 1.00
                0.1517                   1
 d    1 1.00
                  0.55                   1

10 0
 s    3 1.00
                 13.01   0.033498726389998
                 1.962    0.23480080117413
                0.4446     0.8136829578829
 s    1 1.00
                 0.122                   1
 p    1 1.00
                 0.727                   1

11 0
 s    3 1.00
                 13.01   0.033498726389998
                 1.962    0.23480080117413
                0.4446     0.8136829578829
 s    1 1.00
                 0.122                   1
 p    1 1.00
                 0.727                   1

12 0
 s    3 1.00
                 13.01   0.033498726389998
                 1.962    0.23480080117413
                0.4446     0.8136829578829
 s    1 1.00
                 0.122                   1
 p    1 1.00
                 0.727                   1

13 0
 s    8 1.00
                  6665  0.00069158396281299
                  1000  0.0053257961529341
                   228   0.027060721042034
                 64.71    0.10165684614077
                 21.06     0.2745748236174
                 7.495    0.44829431892377
                 2.797    0.28490261071525
                0.5215   0.015194859206082
 s    8 1.00
                  6665  -0.00029326965268655
                  1000  -0.0023180354739745
                   228  -0.011499786038565
                 64.71  -0.046826727009787
                 21.06   -0.12846616875047
                 7.495   -0.30126627246289
                 2.797   -0.25563070233011
                0.5215      1.093793361012
 s    1 1.00
                0.1596                   1
 p    3 1.00
                 9.439   0.056979251590039
                 2.002    0.31320721150073
                0.5456    0.76037674173753
 p    1 1.00
                0.1517                   1
 d    1 1.00
                  0.55                   1

14 0
 s    3 1.00
                 13.01   0.033498726389998
                 1.962    0.23480080117413
                0.4446     0.8136829578829
 s    1 1.00
                 0.122                   1
 p    1 1.00
                 0.727                   1

15 0
 s    3 1.00
                 13.01   0.033498726389998
                 1.962    0.23480080117413
                0.4446     0.8136829578829
 s    1 1.00
                 0.122                   1
 p    1 1.00
                 0.727                   1

16 0
 s    8 1.00
                  6665  0.00069158396281299
                  1000  0.0053257961529341
                   228   0.027060721042034
                 64.71    0.10165684614077
                 21.06     0.2745748236174
                 7.495    0.44829431892377
                 2.797    0.28490261071525
                0.5215   0.015194859206082
 s    8 1.00
                  6665  -0.00029326965268655
                  1000  -0.0023180354739745
                   228  -0.011499786038565
                 64.71  -0.046826727009787
                 21.06   -0.12846616875047
                 7.495   -0.30126627246289
                 2.797   -0.25563070233011
                0.5215      1.093793361012
 s    1 1.00
                0.1596                   1
 p    3 1.00
                 9.439   0.056979251590039
                 2.002    0.31320721150073
                0.5456    0.76037674173753
 p    1 1.00
                0.1517                   1
 d    1 1.00
                  0.55                   1

17 0
 s    3 1.00
                 13.01   0.033498726389998
                 1.962    0.23480080117413
                0.4446     0.8136829578829
 s    1 1.00
                 0.122                   1
 p    1 1.00
                 0.727                   1

18 0
 s    3 1.00
                 13.01   0.033498726389998
                 1.962    0.23480080117413
                0.4446     0.8136829578829
 s    1 1.00
                 0.122                   1
 p    1 1.00
                 0.727                   1

19 0
 s    8 1.00
                  6665  0.00069158396281299
                  1000  0.0053257961529341
                   228   0.027060721042034
                 64.71    0.10165684614077
                 21.06     0.2745748236174
                 7.495    0.44829431892377
                 2.797    0.28490261071525
                0.5215   0.015194859206082
 s    8 1.00
                  6665  -0.00029326965268655
                  1000  -0.0023180354739745
                   228  -0.011499786038565
                 64.71  -0.046826727009787
                 21.06   -0.12846616875047
                 7.495   -0.30126627246289
                 2.797   -0.25563070233011
                0.5215      1.093793361012
 s    1 1.00
                0.1596                   1
 p    3 1.00
                 9.439   0.056979251590039
                 2.002    0.31320721150073
                0.5456    0.76037674173753
 p    1 1.00
                0.1517                   1
 d    1 1.00
                  0.55                   1

20 0
 s    3 1.00
                 13.01   0.033498726389998
                 1.962    0.23480080117413
                0.4446     0.8136829578829
 s    1 1.00
                 0.122                   1
 p    1 1.00
                 0.727                   1

21 0
 s    8 1.00
                  6665  0.00069158396281299
                  1000  0.0053257961529341
                   228   0.027060721042034
                 64.71    0.10165684614077
                 21.06     0.2745748236174
                 7.495    0.44829431892377
                 2.797    0.28490261071525
                0.5215   0.015194859206082
 s    8 1.00
                  6665  -0.00029326965268655
                  1000  -0.0023180354739745
                   228  -0.011499786038565
                 64.71  -0.046826727009787
                 21.06   -0.12846616875047
                 7.495   -0.30126627246289
                 2.797   -0.25563070233011
                0.5215      1.093793361012
 s    1 1.00
                0.1596                   1
 p    3 1.00
                 9.439   0.056979251590039
                 2.002    0.31320721150073
                0.5456    0.76037674173753
 p    1 1.00
                0.1517                   1
 d    1 1.00
                  0.55                   1

22 0
 s    3 1.00
                 13.01   0.033498726389998
                 1.962    0.23480080117413
                0.4446     0.8136829578829
 s    1 1.00
                 0.122                   1
 p    1 1.00
                 0.727                   1

23 0
 s    3 1.00
                 13.01   0.033498726389998
                 1.962    0.23480080117413
                0.4446     0.8136829578829
 s    1 1.00
                 0.122                   1
 p    1 1.00
                 0.727                   1

24 0
 s    3 1.00
                 13.01   0.033498726389998
                 1.962    0.23480080117413
                0.4446     0.8136829578829
 s    1 1.00
                 0.122                   1
 p    1 1.00
                 0.727                   1

25 0
 s    8 1.00
                  6665  0.00069158396281299
                  1000  0.0053257961529341
                   228   0.027060721042034
                 64.71    0.10165684614077
                 21.06     0.2745748236174
                 7.495    0.44829431892377
                 2.797    0.28490261071525
                0.5215   0.015194859206082
 s    8 1.00
                  6665  -0.00029326965268655
                  1000  -0.0023180354739745
                   228  -0.011499786038565
                 64.71  -0.046826727009787
                 21.06   -0.12846616875047
                 7.495   -0.30126627246289
                 2.797   -0.25563070233011
                0.5215      1.093793361012
 s    1 1.00
                0.1596                   1
 p    3 1.00
                 9.439   0.056979251590039
                 2.002    0.31320721150073
                0.5456    0.76037674173753
 p    1 1.00
                0.1517                   1
 d    1 1.00
                  0.55                   1

26 0
 s    3 1.00
                 13.01   0.033498726389998
                 1.962    0.23480080117413
                0.4446     0.8136829578829
 s    1 1.00
                 0.122                   1
 p    1 1.00
                 0.727                   1

27 0
 s    3 1.00
                 13.01   0.033498726389998
                 1.962    0.23480080117413
                0.4446     0.8136829578829
 s    1 1.00
                 0.122                   1
 p    1 1.00
                 0.727                   1

28 0
 s    8 1.00
                  6665  0.00069158396281299
                  1000  0.0053257961529341
                   228   0.027060721042034
                 64.71    0.10165684614077
                 21.06     0.2745748236174
                 7.495    0.44829431892377
                 2.797    0.28490261071525
                0.5215   0.015194859206082
 s    8 1.00
                  6665  -0.00029326965268655
                  1000  -0.0023180354739745
                   228  -0.011499786038565
                 64.71  -0.046826727009787
                 21.06   -0.12846616875047
                 7.495   -0.30126627246289
                 2.797   -0.25563070233011
                0.5215      1.093793361012
 s    1 1.00
                0.1596                   1
 p    3 1.00
                 9.439   0.056979251590039
                 2.002    0.31320721150073
                0.5456    0.76037674173753
 p    1 1.00
                0.1517                   1
 d    1 1.00
                  0.55                   1

29 0
 s    3 1.00
                 13.01   0.033498726389998
                 1.962    0.23480080117413
                0.4446     0.8136829578829
 s    1 1.00
                 0.122                   1
 p    1 1.00
                 0.727                   1

30 0
 s    3 1.00
                 13.01   0.033498726389998
                 1.962    0.23480080117413
                0.4446     0.8136829578829
 s    1 1.00
                 0.122                   1
 p    1 1.00
                 0.727                   1

31 0
 s    8 1.00
                  6665  0.00069158396281299
                  1000  0.0053257961529341
                   228   0.027060721042034
                 64.71    0.10165684614077
                 21.06     0.2745748236174
                 7.495    0.44829431892377
                 2.797    0.28490261071525
                0.5215   0.015194859206082
 s    8 1.00
                  6665  -0.00029326965268655
                  1000  -0.0023180354739745
                   228  -0.011499786038565
                 64.71  -0.046826727009787
                 21.06   -0.12846616875047
                 7.495   -0.30126627246289
                 2.797   -0.25563070233011
                0.5215      1.093793361012
 s    1 1.00
                0.1596                   1
 p    3 1.00
                 9.439   0.056979251590039
                 2.002    0.31320721150073
                0.5456    0.76037674173753
 p    1 1.00
                0.1517                   1
 d    1 1.00
                  0.55                   1

32 0
 s    3 1.00
                 13.01   0.033498726389998
                 1.962    0.23480080117413
                0.4446     0.8136829578829
 s    1 1.00
                 0.122                   1
 p    1 1.00
                 0.727                   1

33 0
 s    3 1.00
                 13.01   0.033498726389998
                 1.962    0.23480080117413
                0.4446     0.8136829578829
 s    1 1.00
                 0.122                   1
 p    1 1.00
                 0.727                   1

34 0
 s    3 1.00
                 13.01   0.033498726389998
                 1.962    0.23480080117413
                0.4446     0.8136829578829
 s    1 1.00
                 0.122                   1
 p    1 1.00
                 0.727                   1

35 0
 s    3 1.00
                 13.01   0.033498726389998
                 1.962    0.23480080117413
                0.4446     0.8136829578829
 s    1 1.00
                 0.122                   1
 p    1 1.00
                 0.727                   1

36 0
 s    3 1.00
                 13.01   0.033498726389998
                 1.962    0.23480080117413
                0.4446     0.8136829578829
 s    1 1.00
                 0.122                   1
 p    1 1.00
                 0.727                   1

37 0
 s    3 1.00
                 13.01   0.033498726389998
                 1.962    0.23480080117413
                0.4446     0.8136829578829
 s    1 1.00
                 0.122                   1
 p    1 1.00
                 0.727                   1

[5d]
[7f]
[9g]

[MO]
 Sym= A
 Ene=               0
 Spin= Alpha
 Occup=    1.00000
   1    -2.3398986262966e-05
   2    -1.1550561016474e-05
   3    4.6081432282498e-05
   4    -4.4546922279961e-08
   5    1.7393974963394e-06
   6    -4.1831790763245e-07
   7    3.0220718814119e-07
   8    -1.0969314227969e-05
   9    -3.5209517065356e-05
  10    6.6802969128401e-06
  11     1.20108279485e-08
  12    -5.1236546294739e-07
  13    5.1016997229471e-07
  14    2.8137149699116e-08
  15    -5.3561996188405e-06
  16    -6.9337471257365e-05
  17    -2.7810559382329e-08
  18    6.8623556743984e-07
  19    -2.1342541906587e-05
  20    -2.5050339346746e-06
  21    2.9057024466924e-05
  22    1.0715229781822e-07
  23    -3.7150269542795e-06
  24    9.7014962822553e-07
  25       1.0013578412703
  26    0.0019430981158902
  27    -0.0067541021059938
  28    -4.4305032879426e-06
  29    7.3233548389906e-06
  30    -0.0016609823528814
  31    -4.3610533355949e-07
  32    -9.6304964423682e-07
  33    0.0018053173545246
  34    0.00013107453902124
  35    -3.0414517330508e-06
  36    1.3033363948226e-06
  37    6.7750176906975e-05
  38    -0.00017646369936085
  39    0.00027105075595891
  40    0.00036660897276352
  41    0.0013862174193154
  42    1.4755297628177e-05
  43    -9.9185276727571e-06
  44    -1.6289210156357e-05
  45    8.5780845315674e-05
  46    -6.5148752361051e-05
  47    0.0035259342677704
  48    -0.00054168786791121
  49    -8.7557071309459e-06
  50    2.5205755934071e-06
  51    2.8359533144418e-05
  52    -0.00010644730336781
  53    -8.4962919097347e-05
  54    -0.00016620233868956
  55    0.0013627605028558
  56    7.803073910708e-05
  57    -7.5181441892781e-06
  58    -3.6374910565499e-05
  59    -0.00042278307051345
  60    0.00047462070503311
  61    -0.00091886609767845
  62    -0.00011806152703421
  63    0.00015032112904254
  64    -0.00014284732207887
  65    5.5323678273898e-05
  66    -0.00013079706251683
  67    -4.0041107086912e-05
  68    -9.8753637390865e-05
  69    0.00051668280013899
  70    -6.0535600402557e-05
  71    3.9682133348493e-05
  72    -6.2850968193161e-05
  73    0.00099816028445227
  74    -0.00077007833546713
  75    -0.00062967361400284
  76    -0.00014129878999338
  77    -0.00012029212598081
  78    8.9128984240739e-05
  79    5.9091319556287e-05
  80    -0.00015214030716086
  81    -6.5503241538045e-05
  82    0.00020573394577798
  83    6.5840850363784e-05
  84    -4.8330414665867e-05
  85    4.9267930826974e-05
  86    2.5015624075609e-05
  87    4.8822501074387e-05
  88    -0.00059969931701988
  89    -1.6051083531466e-05
  90    -1.7061059300756e-05
  91    1.2303233281091e-05
  92    0.00025602378342348
  93    0.00062013855209699
  94    -1.9187480823452e-05
  95    1.7928841395498e-05
  96    1.1051285971805e-05
  97    7.0238883607166e-06
  98    -2.0738037565692e-05
  99    -4.5283053700917e-05
 100    -3.6423808900181e-05
 101    -0.00015707637335038
 102    9.7517135275322e-06
 103    -9.6461081109963e-06
 104    7.3989906210942e-05
 105    -1.7821603548907e-05
 106    -0.0002005859810037
 107    -6.4686563045173e-05
 108    1.1868026791456e-05
 109    7.4348107853503e-05
 110    7.8185695323896e-05
 111    -5.6386165413832e-05
 112    -4.6014250971614e-05
 113    1.8236284374707e-05
 114    6.9340454570078e-05
 115      0.00022583626632
 116    -0.00012073469932137
 117    0.00082255249500726
 118    -1.2933313447717e-05
 119    -2.3804187059197e-05
 120    3.7081969646869e-05
 121    0.00030152211582806
 122    2.3996165356977e-05
 123    -0.00012830268507184
 124    -5.8717382886603e-06
 125    9.606446812686e-06
 126    1.7038557633417e-05
 127    -3.3703803283348e-05
 128    5.2316819870722e-05
 129    -1.9171015945052e-05
 130    -0.00032013317857951
 131    7.3471262908768e-06
 132    5.8657130913719e-06
 133    2.9107726313558e-05
 134    2.6273848981713e-05
 135    -0.00011783084201471
 136    -1.3356886954611e-05
 137    -2.3867186097866e-05
 138    -2.6463846399384e-05
 139    4.7083931738088e-05
 140    -3.2642494719097e-05
 141    0.00028511852554762
 142    1.1541873645141e-05
 143    -3.3644410707606e-06
 144    -7.3841725749309e-06
 145    -0.00022792539722256
 146    5.0020819033331e-05
 147    6.4220078114246e-05
 148    -1.5472297411944e-06
 149    2.9437237698168e-06
 150    -3.6747537007413e-06
 151     1.21364541197e-05
 152    -5.5218526473672e-06
 153    -0.00010797679589678
 154    -0.00011874436611237
 155    -2.4982438367922e-05
 156    3.0964896189549e-05
 157    2.1722443051384e-05
 158    -2.7635935936438e-05
 159    -8.5941823844601e-05
 160    -6.0052517408035e-05
 161    -8.1126554140585e-06
 162    6.1543910396461e-06
 163    -4.7836555078601e-05
 164    -9.9206482715157e-05
 165    -0.00029591430499153
 166    1.416410830875e-05
 167    1.822938425894e-05
 168    3.3481652707738e-06
 169    0.00025607490464433
 170    -0.00021363490250397
 171    -0.00013403995160559
 172    -3.0671257853457e-06
 173    1.0713442147513e-05
 174    -1.5281448592792e-05
 175    1.547669232544e-06
 176    -1.6136140366454e-05
 177    -1.086296743935e-05
 178    8.554391326978e-05
 179    -8.3092305522532e-07
 180    2.2277140852948e-06
 181    -5.3180716490114e-06
 182    -3.2094625431947e-06
 183    2.478503257118e-05
 184    -6.3031861977314e-05
 185    -1.2125117592132e-05
 186    -1.3736770559264e-05
 187    -6.5138368961163e-06
 188    0.00012243107168469
 189    -0.00011075865577323
 190    -8.9114558783539e-05
 191    1.3342405348969e-06
 192    1.7961187452394e-06
 193    -8.9767371737345e-06
 194    -2.5447756496363e-06
 195    -5.9260238121807e-06
 196    -1.3209252154112e-05
 197    -2.1044716359408e-05
 198    5.8132573231971e-06
 199    2.1682422742302e-06
 200    -3.4067495690286e-06
 201    -6.8955396670973e-05
 202    -6.1704387481596e-06
 203    -1.4716069555981e-05
 204    6.2934947000967e-06
 205    6.8914798592547e-06
 206    -1.8073398351012e-05
 207    7.2529745433464e-05
 208    -1.3541173333356e-05
 209    7.7278893228585e-06
 210    1.3915359692015e-05
 211    -2.0895929786797e-05
 212    -5.7067913123308e-05
 213     0.000234682557889
 214    -3.2070626487601e-05
 215    7.7452278454037e-06
 216    3.5131486385498e-05
 217    0.0001822644561777
 218    -5.1437482227963e-05
 219    -5.6403112133284e-05
 220    -1.8574921914183e-06
 221    -1.1791336284547e-05
 222     2.78378552874e-06
 223    6.3536898633234e-06
 224    2.4228339467395e-06
 225    3.3196550706759e-06
 226    4.4121238662512e-05
 227    -1.1669604663049e-05
 228    -7.0178272210192e-07
 229    -4.58312939876e-07
 230    1.6153779675416e-05
 231    5.8622843082916e-05
 232    -3.8690171642453e-06
 233    5.5955172871119e-06
 234    1.1823851233027e-05
 235    5.743781814841e-06
 236    -2.6330438877708e-06
 237    -8.0132990063947e-05
 238    -2.819201423039e-06
 239    2.6120031186257e-06
 240    7.6901332789458e-06
 241    3.2976922656652e-05
 242    -6.1677304730328e-05
 243    2.3022320090587e-05
 244    1.6078494664104e-06
 245    1.9097911188618e-06
 246    -2.3645783280116e-06
 247    1.2233948969518e-06
 248    2.5099482035908e-07
 249    -1.0622667780107e-05
 250    1.9299279687168e-05
 251    -5.4737694206284e-06
 252    -8.9549801295876e-07
 253    4.031513162081e-07
 254    -2.9553769201585e-06
 255    6.6848306750163e-05
 256    -6.9182165425752e-07
 257    4.8476529592788e-06
 258    -3.9280201941808e-07
 259    -7.4667217924225e-06
 260    -2.2701108624435e-05
 261    8.4407664464167e-05
 262    1.470753442845e-06