[Molden Format]
made by pyscf v[2.0.1]
[Atoms] (AU)
O   1   8     0.00000000000000     0.00000000000000     6.40640788651141
H   2   1     0.00000000000000     0.00000000000000     4.58300606461044
H   3   1    -0.05031916615174     1.78353439551780     6.78227958297808
O   4   8     0.00000000000000     0.00000000000000     2.31533471513237
C   5   6     0.00000000000000     0.00000000000000     0.00000000000000
C   6   6     2.01118073026938    -1.40227222164369    -1.50774939176400
C   7   6    -2.01249334291722     1.41331050329955    -1.50319235519811
H   8   1     3.32037363730244    -2.26721897153159    -0.13599698591495
C   9   6     3.45899267434009     0.28739631745591    -3.37437943254505
H   10   1     1.07662969841332    -2.94725144642667    -2.56541439481080
H   11   1    -2.67503415753480     0.18421555839588    -3.06194479365997
H   12   1    -1.08005520873877     3.03851734677796    -2.43674295017013
C   13   6    -4.21607110578555     2.32938802552922     0.11994192435017
H   14   1     4.24440173074564     1.93368664387684    -2.34976285512790
H   15   1     2.18907033049676     1.04714335134846    -4.81494497423699
C   16   6     5.60746363007797    -1.12419643481196    -4.70268606082550
H   17   1    -3.46838323670267     3.50951302338067     1.66946842715333
H   18   1    -5.11873485366228     0.68575958301209     1.04047743976495
C   19   6    -6.18314754751344     3.80909592987882    -1.39656589068747
H   20   1     6.93011263717176    -1.87550812453645    -3.26656317360070
C   21   6     7.10306991577580     0.52877932406334    -6.57829775293605
H   22   1     4.82318879258361    -2.78573437948532    -5.70504560381835
H   23   1    -6.91582688743803     2.61304780074712    -2.95074552451969
H   24   1    -5.26532430573853     5.45420349051338    -2.31005832200284
C   25   6    -8.39941882261433     4.73263980500213     0.21800571437956
H   26   1     7.83338371486801     2.19084139882824    -5.57093109900697
H   27   1     5.73544244039420     1.27376866537418    -8.01071492370229
C   28   6     9.21124858443101    -0.89699110072176    -7.88926949186242
H   29   1    -7.66272760055236     5.92277078003992     1.77035591474408
H   30   1    -9.31497248082589     3.08753015622020     1.12614408368786
C   31   6   -10.35481709231879     6.21833079391143    -1.30905206253246
H   32   1    10.58815905329501    -1.61099162890610    -6.52093739071026
H   33   1    10.23506248045667     0.32468009384095    -9.23072870921204
H   34   1     8.47665842847139    -2.53598436989925    -8.94921964622535
H   35   1    -9.48948872868064     7.90013588951020    -2.18823918416067
H   36   1   -11.93332774482359     6.86460487874102    -0.11255798845995
H   37   1   -11.15126291841033     5.04495968327630    -2.83849898862534
[GTO]
1 0
 s    8 1.00
                 11720  0.00070964594651845
                  1759  0.0054672722921914
                 400.8   0.027823118610189
                 113.7    0.10474773971146
                 37.03    0.28292084635691
                 13.27    0.44849523869833
                 5.025    0.27081688521277
                 1.013    0.01545029160744
 s    8 1.00
                 11720  -0.00031444341168873
                  1759  -0.0024821376810179
                 400.8  -0.012316355381583
                 113.7  -0.050538917343672
                 37.03   -0.13938490331632
                 13.27   -0.32507749481778
                 5.025   -0.22984830758785
                 1.013     1.0953793467883
 s    1 1.00
                0.3023                   1
 p    3 1.00
                  17.7   0.062679166281506
                 3.854    0.33353656587936
                 1.046    0.74123964163973
 p    1 1.00
                0.2753                   1
 d    1 1.00
                 1.185                   1

2 0
 s    3 1.00
                 13.01   0.033498726389998
                 1.962    0.23480080117413
                0.4446     0.8136829578829
 s    1 1.00
                 0.122                   1
 p    1 1.00
                 0.727                   1

3 0
 s    3 1.00
                 13.01   0.033498726389998
                 1.962    0.23480080117413
                0.4446     0.8136829578829
 s    1 1.00
                 0.122                   1
 p    1 1.00
                 0.727                   1

4 0
 s    8 1.00
                 11720  0.00070964594651845
                  1759  0.0054672722921914
                 400.8   0.027823118610189
                 113.7    0.10474773971146
                 37.03    0.28292084635691
                 13.27    0.44849523869833
                 5.025    0.27081688521277
                 1.013    0.01545029160744
 s    8 1.00
                 11720  -0.00031444341168873
                  1759  -0.0024821376810179
                 400.8  -0.012316355381583
                 113.7  -0.050538917343672
                 37.03   -0.13938490331632
                 13.27   -0.32507749481778
                 5.025   -0.22984830758785
                 1.013     1.0953793467883
 s    1 1.00
                0.3023                   1
 p    3 1.00
                  17.7   0.062679166281506
                 3.854    0.33353656587936
                 1.046    0.74123964163973
 p    1 1.00
                0.2753                   1
 d    1 1.00
                 1.185                   1

5 0
 s    8 1.00
                  6665  0.00069158396281299
                  1000  0.0053257961529341
                   228   0.027060721042034
                 64.71    0.10165684614077
                 21.06     0.2745748236174
                 7.495    0.44829431892377
                 2.797    0.28490261071525
                0.5215   0.015194859206082
 s    8 1.00
                  6665  -0.00029326965268655
                  1000  -0.0023180354739745
                   228  -0.011499786038565
                 64.71  -0.046826727009787
                 21.06   -0.12846616875047
                 7.495   -0.30126627246289
                 2.797   -0.25563070233011
                0.5215      1.093793361012
 s    1 1.00
                0.1596                   1
 p    3 1.00
                 9.439   0.056979251590039
                 2.002    0.31320721150073
                0.5456    0.76037674173753
 p    1 1.00
                0.1517                   1
 d    1 1.00
                  0.55                   1

6 0
 s    8 1.00
                  6665  0.00069158396281299
                  1000  0.0053257961529341
                   228   0.027060721042034
                 64.71    0.10165684614077
                 21.06     0.2745748236174
                 7.495    0.44829431892377
                 2.797    0.28490261071525
                0.5215   0.015194859206082
 s    8 1.00
                  6665  -0.00029326965268655
                  1000  -0.0023180354739745
                   228  -0.011499786038565
                 64.71  -0.046826727009787
                 21.06   -0.12846616875047
                 7.495   -0.30126627246289
                 2.797   -0.25563070233011
                0.5215      1.093793361012
 s    1 1.00
                0.1596                   1
 p    3 1.00
                 9.439   0.056979251590039
                 2.002    0.31320721150073
                0.5456    0.76037674173753
 p    1 1.00
                0.1517                   1
 d    1 1.00
                  0.55                   1

7 0
 s    8 1.00
                  6665  0.00069158396281299
                  1000  0.0053257961529341
                   228   0.027060721042034
                 64.71    0.10165684614077
                 21.06     0.2745748236174
                 7.495    0.44829431892377
                 2.797    0.28490261071525
                0.5215   0.015194859206082
 s    8 1.00
                  6665  -0.00029326965268655
                  1000  -0.0023180354739745
                   228  -0.011499786038565
                 64.71  -0.046826727009787
                 21.06   -0.12846616875047
                 7.495   -0.30126627246289
                 2.797   -0.25563070233011
                0.5215      1.093793361012
 s    1 1.00
                0.1596                   1
 p    3 1.00
                 9.439   0.056979251590039
                 2.002    0.31320721150073
                0.5456    0.76037674173753
 p    1 1.00
                0.1517                   1
 d    1 1.00
                  0.55                   1

8 0
 s    3 1.00
                 13.01   0.033498726389998
                 1.962    0.23480080117413
                0.4446     0.8136829578829
 s    1 1.00
                 0.122                   1
 p    1 1.00
                 0.727                   1

9 0
 s    8 1.00
                  6665  0.00069158396281299
                  1000  0.0053257961529341
                   228   0.027060721042034
                 64.71    0.10165684614077
                 21.06     0.2745748236174
                 7.495    0.44829431892377
                 2.797    0.28490261071525
                0.5215   0.015194859206082
 s    8 1.00
                  6665  -0.00029326965268655
                  1000  -0.0023180354739745
                   228  -0.011499786038565
                 64.71  -0.046826727009787
                 21.06   -0.12846616875047
                 7.495   -0.30126627246289
                 2.797   -0.25563070233011
                0.5215      1.093793361012
 s    1 1.00
                0.1596                   1
 p    3 1.00
                 9.439   0.056979251590039
                 2.002    0.31320721150073
                0.5456    0.76037674173753
 p    1 1.00
                0.1517                   1
 d    1 1.00
                  0.55                   1

10 0
 s    3 1.00
                 13.01   0.033498726389998
                 1.962    0.23480080117413
                0.4446     0.8136829578829
 s    1 1.00
                 0.122                   1
 p    1 1.00
                 0.727                   1

11 0
 s    3 1.00
                 13.01   0.033498726389998
                 1.962    0.23480080117413
                0.4446     0.8136829578829
 s    1 1.00
                 0.122                   1
 p    1 1.00
                 0.727                   1

12 0
 s    3 1.00
                 13.01   0.033498726389998
                 1.962    0.23480080117413
                0.4446     0.8136829578829
 s    1 1.00
                 0.122                   1
 p    1 1.00
                 0.727                   1

13 0
 s    8 1.00
                  6665  0.00069158396281299
                  1000  0.0053257961529341
                   228   0.027060721042034
                 64.71    0.10165684614077
                 21.06     0.2745748236174
                 7.495    0.44829431892377
                 2.797    0.28490261071525
                0.5215   0.015194859206082
 s    8 1.00
                  6665  -0.00029326965268655
                  1000  -0.0023180354739745
                   228  -0.011499786038565
                 64.71  -0.046826727009787
                 21.06   -0.12846616875047
                 7.495   -0.30126627246289
                 2.797   -0.25563070233011
                0.5215      1.093793361012
 s    1 1.00
                0.1596                   1
 p    3 1.00
                 9.439   0.056979251590039
                 2.002    0.31320721150073
                0.5456    0.76037674173753
 p    1 1.00
                0.1517                   1
 d    1 1.00
                  0.55                   1

14 0
 s    3 1.00
                 13.01   0.033498726389998
                 1.962    0.23480080117413
                0.4446     0.8136829578829
 s    1 1.00
                 0.122                   1
 p    1 1.00
                 0.727                   1

15 0
 s    3 1.00
                 13.01   0.033498726389998
                 1.962    0.23480080117413
                0.4446     0.8136829578829
 s    1 1.00
                 0.122                   1
 p    1 1.00
                 0.727                   1

16 0
 s    8 1.00
                  6665  0.00069158396281299
                  1000  0.0053257961529341
                   228   0.027060721042034
                 64.71    0.10165684614077
                 21.06     0.2745748236174
                 7.495    0.44829431892377
                 2.797    0.28490261071525
                0.5215   0.015194859206082
 s    8 1.00
                  6665  -0.00029326965268655
                  1000  -0.0023180354739745
                   228  -0.011499786038565
                 64.71  -0.046826727009787
                 21.06   -0.12846616875047
                 7.495   -0.30126627246289
                 2.797   -0.25563070233011
                0.5215      1.093793361012
 s    1 1.00
                0.1596                   1
 p    3 1.00
                 9.439   0.056979251590039
                 2.002    0.31320721150073
                0.5456    0.76037674173753
 p    1 1.00
                0.1517                   1
 d    1 1.00
                  0.55                   1

17 0
 s    3 1.00
                 13.01   0.033498726389998
                 1.962    0.23480080117413
                0.4446     0.8136829578829
 s    1 1.00
                 0.122                   1
 p    1 1.00
                 0.727                   1

18 0
 s    3 1.00
                 13.01   0.033498726389998
                 1.962    0.23480080117413
                0.4446     0.8136829578829
 s    1 1.00
                 0.122                   1
 p    1 1.00
                 0.727                   1

19 0
 s    8 1.00
                  6665  0.00069158396281299
                  1000  0.0053257961529341
                   228   0.027060721042034
                 64.71    0.10165684614077
                 21.06     0.2745748236174
                 7.495    0.44829431892377
                 2.797    0.28490261071525
                0.5215   0.015194859206082
 s    8 1.00
                  6665  -0.00029326965268655
                  1000  -0.0023180354739745
                   228  -0.011499786038565
                 64.71  -0.046826727009787
                 21.06   -0.12846616875047
                 7.495   -0.30126627246289
                 2.797   -0.25563070233011
                0.5215      1.093793361012
 s    1 1.00
                0.1596                   1
 p    3 1.00
                 9.439   0.056979251590039
                 2.002    0.31320721150073
                0.5456    0.76037674173753
 p    1 1.00
                0.1517                   1
 d    1 1.00
                  0.55                   1

20 0
 s    3 1.00
                 13.01   0.033498726389998
                 1.962    0.23480080117413
                0.4446     0.8136829578829
 s    1 1.00
                 0.122                   1
 p    1 1.00
                 0.727                   1

21 0
 s    8 1.00
                  6665  0.00069158396281299
                  1000  0.0053257961529341
                   228   0.027060721042034
                 64.71    0.10165684614077
                 21.06     0.2745748236174
                 7.495    0.44829431892377
                 2.797    0.28490261071525
                0.5215   0.015194859206082
 s    8 1.00
                  6665  -0.00029326965268655
                  1000  -0.0023180354739745
                   228  -0.011499786038565
                 64.71  -0.046826727009787
                 21.06   -0.12846616875047
                 7.495   -0.30126627246289
                 2.797   -0.25563070233011
                0.5215      1.093793361012
 s    1 1.00
                0.1596                   1
 p    3 1.00
                 9.439   0.056979251590039
                 2.002    0.31320721150073
                0.5456    0.76037674173753
 p    1 1.00
                0.1517                   1
 d    1 1.00
                  0.55                   1

22 0
 s    3 1.00
                 13.01   0.033498726389998
                 1.962    0.23480080117413
                0.4446     0.8136829578829
 s    1 1.00
                 0.122                   1
 p    1 1.00
                 0.727                   1

23 0
 s    3 1.00
                 13.01   0.033498726389998
                 1.962    0.23480080117413
                0.4446     0.8136829578829
 s    1 1.00
                 0.122                   1
 p    1 1.00
                 0.727                   1

24 0
 s    3 1.00
                 13.01   0.033498726389998
                 1.962    0.23480080117413
                0.4446     0.8136829578829
 s    1 1.00
                 0.122                   1
 p    1 1.00
                 0.727                   1

25 0
 s    8 1.00
                  6665  0.00069158396281299
                  1000  0.0053257961529341
                   228   0.027060721042034
                 64.71    0.10165684614077
                 21.06     0.2745748236174
                 7.495    0.44829431892377
                 2.797    0.28490261071525
                0.5215   0.015194859206082
 s    8 1.00
                  6665  -0.00029326965268655
                  1000  -0.0023180354739745
                   228  -0.011499786038565
                 64.71  -0.046826727009787
                 21.06   -0.12846616875047
                 7.495   -0.30126627246289
                 2.797   -0.25563070233011
                0.5215      1.093793361012
 s    1 1.00
                0.1596                   1
 p    3 1.00
                 9.439   0.056979251590039
                 2.002    0.31320721150073
                0.5456    0.76037674173753
 p    1 1.00
                0.1517                   1
 d    1 1.00
                  0.55                   1

26 0
 s    3 1.00
                 13.01   0.033498726389998
                 1.962    0.23480080117413
                0.4446     0.8136829578829
 s    1 1.00
                 0.122                   1
 p    1 1.00
                 0.727                   1

27 0
 s    3 1.00
                 13.01   0.033498726389998
                 1.962    0.23480080117413
                0.4446     0.8136829578829
 s    1 1.00
                 0.122                   1
 p    1 1.00
                 0.727                   1

28 0
 s    8 1.00
                  6665  0.00069158396281299
                  1000  0.0053257961529341
                   228   0.027060721042034
                 64.71    0.10165684614077
                 21.06     0.2745748236174
                 7.495    0.44829431892377
                 2.797    0.28490261071525
                0.5215   0.015194859206082
 s    8 1.00
                  6665  -0.00029326965268655
                  1000  -0.0023180354739745
                   228  -0.011499786038565
                 64.71  -0.046826727009787
                 21.06   -0.12846616875047
                 7.495   -0.30126627246289
                 2.797   -0.25563070233011
                0.5215      1.093793361012
 s    1 1.00
                0.1596                   1
 p    3 1.00
                 9.439   0.056979251590039
                 2.002    0.31320721150073
                0.5456    0.76037674173753
 p    1 1.00
                0.1517                   1
 d    1 1.00
                  0.55                   1

29 0
 s    3 1.00
                 13.01   0.033498726389998
                 1.962    0.23480080117413
                0.4446     0.8136829578829
 s    1 1.00
                 0.122                   1
 p    1 1.00
                 0.727                   1

30 0
 s    3 1.00
                 13.01   0.033498726389998
                 1.962    0.23480080117413
                0.4446     0.8136829578829
 s    1 1.00
                 0.122                   1
 p    1 1.00
                 0.727                   1

31 0
 s    8 1.00
                  6665  0.00069158396281299
                  1000  0.0053257961529341
                   228   0.027060721042034
                 64.71    0.10165684614077
                 21.06     0.2745748236174
                 7.495    0.44829431892377
                 2.797    0.28490261071525
                0.5215   0.015194859206082
 s    8 1.00
                  6665  -0.00029326965268655
                  1000  -0.0023180354739745
                   228  -0.011499786038565
                 64.71  -0.046826727009787
                 21.06   -0.12846616875047
                 7.495   -0.30126627246289
                 2.797   -0.25563070233011
                0.5215      1.093793361012
 s    1 1.00
                0.1596                   1
 p    3 1.00
                 9.439   0.056979251590039
                 2.002    0.31320721150073
                0.5456    0.76037674173753
 p    1 1.00
                0.1517                   1
 d    1 1.00
                  0.55                   1

32 0
 s    3 1.00
                 13.01   0.033498726389998
                 1.962    0.23480080117413
                0.4446     0.8136829578829
 s    1 1.00
                 0.122                   1
 p    1 1.00
                 0.727                   1

33 0
 s    3 1.00
                 13.01   0.033498726389998
                 1.962    0.23480080117413
                0.4446     0.8136829578829
 s    1 1.00
                 0.122                   1
 p    1 1.00
                 0.727                   1

34 0
 s    3 1.00
                 13.01   0.033498726389998
                 1.962    0.23480080117413
                0.4446     0.8136829578829
 s    1 1.00
                 0.122                   1
 p    1 1.00
                 0.727                   1

35 0
 s    3 1.00
                 13.01   0.033498726389998
                 1.962    0.23480080117413
                0.4446     0.8136829578829
 s    1 1.00
                 0.122                   1
 p    1 1.00
                 0.727                   1

36 0
 s    3 1.00
                 13.01   0.033498726389998
                 1.962    0.23480080117413
                0.4446     0.8136829578829
 s    1 1.00
                 0.122                   1
 p    1 1.00
                 0.727                   1

37 0
 s    3 1.00
                 13.01   0.033498726389998
                 1.962    0.23480080117413
                0.4446     0.8136829578829
 s    1 1.00
                 0.122                   1
 p    1 1.00
                 0.727                   1

[5d]
[7f]
[9g]

[MO]
 Sym= A
 Ene=               0
 Spin= Alpha
 Occup=    1.00000
   1    -0.00010647691716184
   2    -2.7891693844008e-05
   3    -0.00029615226438326
   4    1.5307686174278e-06
   5    -8.1444907237478e-07
   6    0.00012373523842209
   7    -3.3601264289779e-06
   8    -9.1784591324242e-06
   9    0.00024159602980301
  10    -0.00010944657908486
  11    -1.1477536953593e-07
  12    1.6201969638621e-06
  13    5.0492777662531e-06
  14    2.7368857260052e-07
  15    5.8175820692574e-05
  16    -7.3527718291034e-05
  17    -1.3268640227332e-06
  18    5.4041675072911e-06
  19    0.00039339390591342
  20    3.7963804698541e-05
  21    -3.403792554941e-05
  22    2.4961690010389e-07
  23    8.7772388842137e-06
  24    -5.6755888332464e-06
  25       1.0014277361483
  26    0.0022198208972804
  27    -0.006884143788664
  28    -4.3856263199121e-06
  29    1.8627611045587e-05
  30    -0.0014800144452636
  31    1.5540952774183e-06
  32    -4.7339145101912e-06
  33     0.002234696435913
  34    0.0002333844559829
  35    -2.6152787696452e-06
  36    5.5145715748944e-07
  37    5.9635057417068e-05
  38    -0.00015792012508761
  39    0.00030026082962372
  40    0.00042220700979615
  41    0.0018187979060553
  42    1.5987807427475e-05
  43    -1.0982258299568e-05
  44    4.7315706512111e-05
  45    5.9513129130184e-05
  46    -5.0906867086702e-05
  47    0.0036355269267209
  48    -0.00051850882420016
  49    -7.5229158611164e-06
  50    9.8023850930006e-07
  51    3.6127902791334e-05
  52    -0.00012558530824585
  53    -8.5196809277758e-05
  54    -0.00016775983350961
  55    0.0013402736600134
  56    8.3096382693708e-05
  57    -1.1050373446628e-05
  58    -3.9189820106624e-05
  59    -0.00037399957429356
  60    0.0004571886757057
  61    -0.00096856366689141
  62    -0.00011129411905142
  63    0.00015799661262041
  64    -0.00014981383639656
  65    5.3770321004289e-05
  66    -0.00012599382772506
  67    -3.6697614868427e-05
  68    -9.3082302300629e-05
  69    0.00041737706037188
  70    -6.6785829256953e-05
  71    4.3721098366214e-05
  72    -6.7235647837951e-05
  73    0.00096806448034143
  74    -0.00073764837427387
  75    -0.0006880347497856
  76    -0.00013414541672659
  77    -0.00012922778775802
  78    9.454284340565e-05
  79    5.738835021903e-05
  80    -0.00014657758580743
  81    -6.6975093885459e-05
  82    0.00019555526271082
  83    6.7973619210777e-05
  84    -5.0274525247728e-05
  85     5.19120823183e-05
  86    2.5880597696328e-05
  87     5.02155749434e-05
  88    -0.00060220996794061
  89    -1.5607555793087e-05
  90    -1.6249746983586e-05
  91    1.2826052906077e-05
  92    0.00026778106214813
  93    0.00062905888244808
  94    -3.8024212982838e-05
  95    1.8962439348405e-05
  96    1.1077069475501e-05
  97    6.9796836345735e-06
  98    -2.0037745663414e-05
  99    -5.0243584171343e-05
 100    -3.4978140030533e-05
 101    -0.0001637334587511
 102    5.7187757772145e-06
 103    -9.9545457956002e-06
 104    7.6152056327591e-05
 105    -1.5958517743055e-05
 106    -0.00020219050062542
 107    -6.2372874264284e-05
 108    6.1718906343175e-06
 109    7.6774502549459e-05
 110    8.0886254950167e-05
 111    -7.5445278340816e-05
 112    -4.2955882187467e-05
 113    2.0025433648441e-05
 114    7.0685974068969e-05
 115    0.00016348858653544
 116    -0.00010791081544058
 117    0.00090869301573943
 118    -2.910010089757e-05
 119    -8.7652407936036e-06
 120    3.2808556924374e-05
 121    0.00026220910086276
 122    4.6818964025906e-05
 123    -0.00017582833667108
 124    -7.1976224613512e-06
 125    1.352722491213e-05
 126    1.356258186737e-05
 127    -3.181975600083e-05
 128    4.8159920767743e-05
 129    -1.3871584413836e-05
 130    -0.00033019764030632
 131    7.6065281559658e-06
 132    5.4454488858477e-06
 133    3.0274828640794e-05
 134    2.0901110032805e-05
 135    -0.00010965801512618
 136    -1.7884620562794e-05
 137    -2.5369181896942e-05
 138    -2.3930102250832e-05
 139    2.4473855734532e-05
 140    -3.6078942551797e-05
 141    0.00027121259492253
 142    4.9494422178588e-06
 143    -5.2860565755469e-06
 144    -3.2976340809804e-06
 145    -0.00019996158860964
 146    5.9518316295578e-05
 147    5.4820286220496e-05
 148    -2.1247874058383e-06
 149    4.8331030684869e-06
 150    -4.8511162823833e-06
 151    1.0967142827947e-05
 152    -3.6890133196859e-06
 153    -0.00010022815680104
 154    -0.00010182646915069
 155    -2.5537926415962e-05
 156    2.7862619420794e-05
 157    2.0290335247416e-05
 158    -2.8473326878955e-05
 159    -9.9402092620329e-05
 160    -5.8453598714755e-05
 161    -8.8128429746324e-06
 162    8.505108442571e-06
 163    0.0001347221237551
 164    -4.4394899055374e-06
 165    -0.00030852138023029
 166    -4.5812909686545e-05
 167    2.0626571857941e-05
 168    5.2628789513454e-05
 169    0.00018524487964998
 170    -0.0001838895360453
 171    -0.00011987274201684
 172    -2.4053760879344e-06
 173    5.7944781895807e-06
 174    -1.1314766801806e-05
 175    4.9952442195467e-06
 176    -1.8880766270656e-05
 177    -1.5339474551695e-05
 178    8.4510388868837e-05
 179    -2.4321728962471e-06
 180    9.0532186571005e-07
 181    -3.9958035334908e-06
 182    6.6546712577421e-06
 183    2.6201695575166e-05
 184    -7.4310468238998e-05
 185    -1.5669561515391e-05
 186    1.627211994717e-05
 187    4.0951087474367e-06
 188    0.00013039620024124
 189    -9.9726577604482e-05
 190    -0.0001050519470332
 191    6.0365746464888e-07
 192    3.3249830537572e-06
 193    -6.9401315770719e-06
 194    -2.6639831270431e-06
 195    -5.4840289831786e-06
 196    -9.044263442873e-06
 197    -1.4516528486096e-05
 198    4.5787791269916e-06
 199    1.8530372305955e-06
 200    -2.919751748634e-06
 201    -4.1919699317351e-05
 202    -1.3385768422544e-05
 203    -1.3602062705744e-05
 204    7.1133781154022e-06
 205    1.0202509758783e-05
 206    -1.9846834653336e-05
 207    5.5493214730667e-05
 208    -1.3567621277965e-05
 209    5.2476913227134e-06
 210    1.552434754273e-05
 211    3.0622225961507e-05
 212    9.5007957495728e-06
 213    0.00028437345332659
 214    1.0804606563884e-05
 215    4.5068313267115e-06
 216    -4.7872221170789e-05
 217    0.00019328103444891
 218    -4.8343223059673e-05
 219    -9.9565295651052e-05
 220    -3.0265545353292e-06
 221    -1.6448913438011e-05
 222    4.8963012371605e-06
 223    1.0879145525895e-05
 224    -4.937795361198e-06
 225    3.1283164702795e-05
 226    6.2051323888911e-05
 227    -1.3298005424038e-05
 228    -1.9972325636722e-06
 229    -7.4080737986217e-07
 230    2.145205141868e-05
 231    5.3834120179348e-05
 232    -3.666997809264e-06
 233    6.7880719928357e-06
 234    1.2864550449991e-05
 235    6.9844211752815e-06
 236    4.3746470805457e-07
 237    -9.7424567915005e-05
 238    1.2525565067111e-05
 239    -7.3815426464122e-06
 240    -6.1404756327666e-06
 241    4.8475287948704e-05
 242    -6.9334088962406e-05
 243    1.1231027716896e-05
 244    1.9485667482706e-06
 245    3.449219278957e-06
 246    -2.2260033327142e-06
 247    -5.030365968078e-07
 248    1.6189163892951e-06
 249    -2.3227495471895e-05
 250    1.0727735808394e-06
 251    -4.4751960324217e-06
 252    -8.0528103516327e-07
 253    -1.547051765051e-06
 254    -2.196304324616e-05
 255    4.7944520229832e-05
 256    5.8207436362254e-07
 257    4.8565166473163e-06
 258    -2.2817429473585e-06
 259    -3.1771484680137e-05
 260    -3.1749844136375e-05
 261    6.2850671180485e-05
 262    3.1706015934647e-05