[Molden Format]
made by pyscf v[2.0.1]
[Atoms] (AU)
O   1   8     0.00000000000000     0.00000000000000     9.80791491072852
H   2   1     0.00000000000000     0.00000000000000     7.98451308882755
H   3   1    -0.05031916615174     1.78353065140343    10.18378660719519
O   4   8     0.00000000000000     0.00000000000000     2.31533471513237
C   5   6     0.00000000000000     0.00000000000000     0.00000000000000
C   6   6     2.01118073026938    -1.40227222164369    -1.50774939176400
C   7   6    -2.01249334291722     1.41331050329955    -1.50315905028694
H   8   1     3.32037363730244    -2.26721897153159    -0.13599698591495
C   9   6     3.45899267434009     0.28739631745591    -3.37437943254505
H   10   1     1.07662969841332    -2.94725144642667    -2.56541439481080
H   11   1    -2.67503415753480     0.18421555839588    -3.06194479365997
H   12   1    -1.07974048864772     3.03851734677796    -2.43674295017013
C   13   6    -4.21607110578555     2.32938802552922     0.11994162256091
H   14   1     4.24440173074564     1.93368664142019    -2.34976285512790
H   15   1     2.15020713235517     1.04714335134846    -4.81494497423699
C   16   6     5.60746363007797    -1.12419643481196    -4.70268606082550
H   17   1    -3.46838323670267     3.50951302338067     1.66946842715333
H   18   1    -5.11873485366228     0.68575958301209     1.04047743976495
C   19   6    -6.18314754751344     3.80909592987882    -1.39656589068747
H   20   1     6.93011263717176    -1.87550812453645    -3.26656317360070
C   21   6     7.06356622236532     0.52877932406334    -6.57829775293605
H   22   1     4.82318879258361    -2.78573437948532    -5.70504560381835
H   23   1    -6.91582688743803     2.61304780074712    -2.95074552451969
H   24   1    -5.26532430573853     5.45420349051338    -2.31005832200284
C   25   6    -8.39941882261433     4.73263980500213     0.21800571437956
H   26   1     7.83338371486801     2.19084139882824    -5.57093109900697
H   27   1     5.73544244039420     1.27376866537418    -8.01071492370229
C   28   6     9.21124858443101    -0.89699110072176    -7.88926949186242
H   29   1    -7.66272760055236     5.92277078003992     1.77035591474408
H   30   1    -9.31497248082589     3.08753015622020     1.12614408368786
C   31   6   -10.35481709231879     6.21833079391143    -1.30905206253246
H   32   1    10.58815905329501    -1.61074586756696    -6.49512691622620
H   33   1    10.23506248045667     0.32468009384095    -9.23072870921204
H   34   1     8.47665842847139    -2.53598436989925    -8.94921964622535
H   35   1    -9.48948872868064     7.90013588951020    -2.18823918416067
H   36   1   -11.93332513000955     6.86460487874102    -0.11255798845995
H   37   1   -11.15126291841033     5.04495968327630    -2.83849898862534
[GTO]
1 0
 s    8 1.00
                 11720  0.00070964594651845
                  1759  0.0054672722921914
                 400.8   0.027823118610189
                 113.7    0.10474773971146
                 37.03    0.28292084635691
                 13.27    0.44849523869833
                 5.025    0.27081688521277
                 1.013    0.01545029160744
 s    8 1.00
                 11720  -0.00031444341168873
                  1759  -0.0024821376810179
                 400.8  -0.012316355381583
                 113.7  -0.050538917343672
                 37.03   -0.13938490331632
                 13.27   -0.32507749481778
                 5.025   -0.22984830758785
                 1.013     1.0953793467883
 s    1 1.00
                0.3023                   1
 p    3 1.00
                  17.7   0.062679166281506
                 3.854    0.33353656587936
                 1.046    0.74123964163973
 p    1 1.00
                0.2753                   1
 d    1 1.00
                 1.185                   1

2 0
 s    3 1.00
                 13.01   0.033498726389998
                 1.962    0.23480080117413
                0.4446     0.8136829578829
 s    1 1.00
                 0.122                   1
 p    1 1.00
                 0.727                   1

3 0
 s    3 1.00
                 13.01   0.033498726389998
                 1.962    0.23480080117413
                0.4446     0.8136829578829
 s    1 1.00
                 0.122                   1
 p    1 1.00
                 0.727                   1

4 0
 s    8 1.00
                 11720  0.00070964594651845
                  1759  0.0054672722921914
                 400.8   0.027823118610189
                 113.7    0.10474773971146
                 37.03    0.28292084635691
                 13.27    0.44849523869833
                 5.025    0.27081688521277
                 1.013    0.01545029160744
 s    8 1.00
                 11720  -0.00031444341168873
                  1759  -0.0024821376810179
                 400.8  -0.012316355381583
                 113.7  -0.050538917343672
                 37.03   -0.13938490331632
                 13.27   -0.32507749481778
                 5.025   -0.22984830758785
                 1.013     1.0953793467883
 s    1 1.00
                0.3023                   1
 p    3 1.00
                  17.7   0.062679166281506
                 3.854    0.33353656587936
                 1.046    0.74123964163973
 p    1 1.00
                0.2753                   1
 d    1 1.00
                 1.185                   1

5 0
 s    8 1.00
                  6665  0.00069158396281299
                  1000  0.0053257961529341
                   228   0.027060721042034
                 64.71    0.10165684614077
                 21.06     0.2745748236174
                 7.495    0.44829431892377
                 2.797    0.28490261071525
                0.5215   0.015194859206082
 s    8 1.00
                  6665  -0.00029326965268655
                  1000  -0.0023180354739745
                   228  -0.011499786038565
                 64.71  -0.046826727009787
                 21.06   -0.12846616875047
                 7.495   -0.30126627246289
                 2.797   -0.25563070233011
                0.5215      1.093793361012
 s    1 1.00
                0.1596                   1
 p    3 1.00
                 9.439   0.056979251590039
                 2.002    0.31320721150073
                0.5456    0.76037674173753
 p    1 1.00
                0.1517                   1
 d    1 1.00
                  0.55                   1

6 0
 s    8 1.00
                  6665  0.00069158396281299
                  1000  0.0053257961529341
                   228   0.027060721042034
                 64.71    0.10165684614077
                 21.06     0.2745748236174
                 7.495    0.44829431892377
                 2.797    0.28490261071525
                0.5215   0.015194859206082
 s    8 1.00
                  6665  -0.00029326965268655
                  1000  -0.0023180354739745
                   228  -0.011499786038565
                 64.71  -0.046826727009787
                 21.06   -0.12846616875047
                 7.495   -0.30126627246289
                 2.797   -0.25563070233011
                0.5215      1.093793361012
 s    1 1.00
                0.1596                   1
 p    3 1.00
                 9.439   0.056979251590039
                 2.002    0.31320721150073
                0.5456    0.76037674173753
 p    1 1.00
                0.1517                   1
 d    1 1.00
                  0.55                   1

7 0
 s    8 1.00
                  6665  0.00069158396281299
                  1000  0.0053257961529341
                   228   0.027060721042034
                 64.71    0.10165684614077
                 21.06     0.2745748236174
                 7.495    0.44829431892377
                 2.797    0.28490261071525
                0.5215   0.015194859206082
 s    8 1.00
                  6665  -0.00029326965268655
                  1000  -0.0023180354739745
                   228  -0.011499786038565
                 64.71  -0.046826727009787
                 21.06   -0.12846616875047
                 7.495   -0.30126627246289
                 2.797   -0.25563070233011
                0.5215      1.093793361012
 s    1 1.00
                0.1596                   1
 p    3 1.00
                 9.439   0.056979251590039
                 2.002    0.31320721150073
                0.5456    0.76037674173753
 p    1 1.00
                0.1517                   1
 d    1 1.00
                  0.55                   1

8 0
 s    3 1.00
                 13.01   0.033498726389998
                 1.962    0.23480080117413
                0.4446     0.8136829578829
 s    1 1.00
                 0.122                   1
 p    1 1.00
                 0.727                   1

9 0
 s    8 1.00
                  6665  0.00069158396281299
                  1000  0.0053257961529341
                   228   0.027060721042034
                 64.71    0.10165684614077
                 21.06     0.2745748236174
                 7.495    0.44829431892377
                 2.797    0.28490261071525
                0.5215   0.015194859206082
 s    8 1.00
                  6665  -0.00029326965268655
                  1000  -0.0023180354739745
                   228  -0.011499786038565
                 64.71  -0.046826727009787
                 21.06   -0.12846616875047
                 7.495   -0.30126627246289
                 2.797   -0.25563070233011
                0.5215      1.093793361012
 s    1 1.00
                0.1596                   1
 p    3 1.00
                 9.439   0.056979251590039
                 2.002    0.31320721150073
                0.5456    0.76037674173753
 p    1 1.00
                0.1517                   1
 d    1 1.00
                  0.55                   1

10 0
 s    3 1.00
                 13.01   0.033498726389998
                 1.962    0.23480080117413
                0.4446     0.8136829578829
 s    1 1.00
                 0.122                   1
 p    1 1.00
                 0.727                   1

11 0
 s    3 1.00
                 13.01   0.033498726389998
                 1.962    0.23480080117413
                0.4446     0.8136829578829
 s    1 1.00
                 0.122                   1
 p    1 1.00
                 0.727                   1

12 0
 s    3 1.00
                 13.01   0.033498726389998
                 1.962    0.23480080117413
                0.4446     0.8136829578829
 s    1 1.00
                 0.122                   1
 p    1 1.00
                 0.727                   1

13 0
 s    8 1.00
                  6665  0.00069158396281299
                  1000  0.0053257961529341
                   228   0.027060721042034
                 64.71    0.10165684614077
                 21.06     0.2745748236174
                 7.495    0.44829431892377
                 2.797    0.28490261071525
                0.5215   0.015194859206082
 s    8 1.00
                  6665  -0.00029326965268655
                  1000  -0.0023180354739745
                   228  -0.011499786038565
                 64.71  -0.046826727009787
                 21.06   -0.12846616875047
                 7.495   -0.30126627246289
                 2.797   -0.25563070233011
                0.5215      1.093793361012
 s    1 1.00
                0.1596                   1
 p    3 1.00
                 9.439   0.056979251590039
                 2.002    0.31320721150073
                0.5456    0.76037674173753
 p    1 1.00
                0.1517                   1
 d    1 1.00
                  0.55                   1

14 0
 s    3 1.00
                 13.01   0.033498726389998
                 1.962    0.23480080117413
                0.4446     0.8136829578829
 s    1 1.00
                 0.122                   1
 p    1 1.00
                 0.727                   1

15 0
 s    3 1.00
                 13.01   0.033498726389998
                 1.962    0.23480080117413
                0.4446     0.8136829578829
 s    1 1.00
                 0.122                   1
 p    1 1.00
                 0.727                   1

16 0
 s    8 1.00
                  6665  0.00069158396281299
                  1000  0.0053257961529341
                   228   0.027060721042034
                 64.71    0.10165684614077
                 21.06     0.2745748236174
                 7.495    0.44829431892377
                 2.797    0.28490261071525
                0.5215   0.015194859206082
 s    8 1.00
                  6665  -0.00029326965268655
                  1000  -0.0023180354739745
                   228  -0.011499786038565
                 64.71  -0.046826727009787
                 21.06   -0.12846616875047
                 7.495   -0.30126627246289
                 2.797   -0.25563070233011
                0.5215      1.093793361012
 s    1 1.00
                0.1596                   1
 p    3 1.00
                 9.439   0.056979251590039
                 2.002    0.31320721150073
                0.5456    0.76037674173753
 p    1 1.00
                0.1517                   1
 d    1 1.00
                  0.55                   1

17 0
 s    3 1.00
                 13.01   0.033498726389998
                 1.962    0.23480080117413
                0.4446     0.8136829578829
 s    1 1.00
                 0.122                   1
 p    1 1.00
                 0.727                   1

18 0
 s    3 1.00
                 13.01   0.033498726389998
                 1.962    0.23480080117413
                0.4446     0.8136829578829
 s    1 1.00
                 0.122                   1
 p    1 1.00
                 0.727                   1

19 0
 s    8 1.00
                  6665  0.00069158396281299
                  1000  0.0053257961529341
                   228   0.027060721042034
                 64.71    0.10165684614077
                 21.06     0.2745748236174
                 7.495    0.44829431892377
                 2.797    0.28490261071525
                0.5215   0.015194859206082
 s    8 1.00
                  6665  -0.00029326965268655
                  1000  -0.0023180354739745
                   228  -0.011499786038565
                 64.71  -0.046826727009787
                 21.06   -0.12846616875047
                 7.495   -0.30126627246289
                 2.797   -0.25563070233011
                0.5215      1.093793361012
 s    1 1.00
                0.1596                   1
 p    3 1.00
                 9.439   0.056979251590039
                 2.002    0.31320721150073
                0.5456    0.76037674173753
 p    1 1.00
                0.1517                   1
 d    1 1.00
                  0.55                   1

20 0
 s    3 1.00
                 13.01   0.033498726389998
                 1.962    0.23480080117413
                0.4446     0.8136829578829
 s    1 1.00
                 0.122                   1
 p    1 1.00
                 0.727                   1

21 0
 s    8 1.00
                  6665  0.00069158396281299
                  1000  0.0053257961529341
                   228   0.027060721042034
                 64.71    0.10165684614077
                 21.06     0.2745748236174
                 7.495    0.44829431892377
                 2.797    0.28490261071525
                0.5215   0.015194859206082
 s    8 1.00
                  6665  -0.00029326965268655
                  1000  -0.0023180354739745
                   228  -0.011499786038565
                 64.71  -0.046826727009787
                 21.06   -0.12846616875047
                 7.495   -0.30126627246289
                 2.797   -0.25563070233011
                0.5215      1.093793361012
 s    1 1.00
                0.1596                   1
 p    3 1.00
                 9.439   0.056979251590039
                 2.002    0.31320721150073
                0.5456    0.76037674173753
 p    1 1.00
                0.1517                   1
 d    1 1.00
                  0.55                   1

22 0
 s    3 1.00
                 13.01   0.033498726389998
                 1.962    0.23480080117413
                0.4446     0.8136829578829
 s    1 1.00
                 0.122                   1
 p    1 1.00
                 0.727                   1

23 0
 s    3 1.00
                 13.01   0.033498726389998
                 1.962    0.23480080117413
                0.4446     0.8136829578829
 s    1 1.00
                 0.122                   1
 p    1 1.00
                 0.727                   1

24 0
 s    3 1.00
                 13.01   0.033498726389998
                 1.962    0.23480080117413
                0.4446     0.8136829578829
 s    1 1.00
                 0.122                   1
 p    1 1.00
                 0.727                   1

25 0
 s    8 1.00
                  6665  0.00069158396281299
                  1000  0.0053257961529341
                   228   0.027060721042034
                 64.71    0.10165684614077
                 21.06     0.2745748236174
                 7.495    0.44829431892377
                 2.797    0.28490261071525
                0.5215   0.015194859206082
 s    8 1.00
                  6665  -0.00029326965268655
                  1000  -0.0023180354739745
                   228  -0.011499786038565
                 64.71  -0.046826727009787
                 21.06   -0.12846616875047
                 7.495   -0.30126627246289
                 2.797   -0.25563070233011
                0.5215      1.093793361012
 s    1 1.00
                0.1596                   1
 p    3 1.00
                 9.439   0.056979251590039
                 2.002    0.31320721150073
                0.5456    0.76037674173753
 p    1 1.00
                0.1517                   1
 d    1 1.00
                  0.55                   1

26 0
 s    3 1.00
                 13.01   0.033498726389998
                 1.962    0.23480080117413
                0.4446     0.8136829578829
 s    1 1.00
                 0.122                   1
 p    1 1.00
                 0.727                   1

27 0
 s    3 1.00
                 13.01   0.033498726389998
                 1.962    0.23480080117413
                0.4446     0.8136829578829
 s    1 1.00
                 0.122                   1
 p    1 1.00
                 0.727                   1

28 0
 s    8 1.00
                  6665  0.00069158396281299
                  1000  0.0053257961529341
                   228   0.027060721042034
                 64.71    0.10165684614077
                 21.06     0.2745748236174
                 7.495    0.44829431892377
                 2.797    0.28490261071525
                0.5215   0.015194859206082
 s    8 1.00
                  6665  -0.00029326965268655
                  1000  -0.0023180354739745
                   228  -0.011499786038565
                 64.71  -0.046826727009787
                 21.06   -0.12846616875047
                 7.495   -0.30126627246289
                 2.797   -0.25563070233011
                0.5215      1.093793361012
 s    1 1.00
                0.1596                   1
 p    3 1.00
                 9.439   0.056979251590039
                 2.002    0.31320721150073
                0.5456    0.76037674173753
 p    1 1.00
                0.1517                   1
 d    1 1.00
                  0.55                   1

29 0
 s    3 1.00
                 13.01   0.033498726389998
                 1.962    0.23480080117413
                0.4446     0.8136829578829
 s    1 1.00
                 0.122                   1
 p    1 1.00
                 0.727                   1

30 0
 s    3 1.00
                 13.01   0.033498726389998
                 1.962    0.23480080117413
                0.4446     0.8136829578829
 s    1 1.00
                 0.122                   1
 p    1 1.00
                 0.727                   1

31 0
 s    8 1.00
                  6665  0.00069158396281299
                  1000  0.0053257961529341
                   228   0.027060721042034
                 64.71    0.10165684614077
                 21.06     0.2745748236174
                 7.495    0.44829431892377
                 2.797    0.28490261071525
                0.5215   0.015194859206082
 s    8 1.00
                  6665  -0.00029326965268655
                  1000  -0.0023180354739745
                   228  -0.011499786038565
                 64.71  -0.046826727009787
                 21.06   -0.12846616875047
                 7.495   -0.30126627246289
                 2.797   -0.25563070233011
                0.5215      1.093793361012
 s    1 1.00
                0.1596                   1
 p    3 1.00
                 9.439   0.056979251590039
                 2.002    0.31320721150073
                0.5456    0.76037674173753
 p    1 1.00
                0.1517                   1
 d    1 1.00
                  0.55                   1

32 0
 s    3 1.00
                 13.01   0.033498726389998
                 1.962    0.23480080117413
                0.4446     0.8136829578829
 s    1 1.00
                 0.122                   1
 p    1 1.00
                 0.727                   1

33 0
 s    3 1.00
                 13.01   0.033498726389998
                 1.962    0.23480080117413
                0.4446     0.8136829578829
 s    1 1.00
                 0.122                   1
 p    1 1.00
                 0.727                   1

34 0
 s    3 1.00
                 13.01   0.033498726389998
                 1.962    0.23480080117413
                0.4446     0.8136829578829
 s    1 1.00
                 0.122                   1
 p    1 1.00
                 0.727                   1

35 0
 s    3 1.00
                 13.01   0.033498726389998
                 1.962    0.23480080117413
                0.4446     0.8136829578829
 s    1 1.00
                 0.122                   1
 p    1 1.00
                 0.727                   1

36 0
 s    3 1.00
                 13.01   0.033498726389998
                 1.962    0.23480080117413
                0.4446     0.8136829578829
 s    1 1.00
                 0.122                   1
 p    1 1.00
                 0.727                   1

37 0
 s    3 1.00
                 13.01   0.033498726389998
                 1.962    0.23480080117413
                0.4446     0.8136829578829
 s    1 1.00
                 0.122                   1
 p    1 1.00
                 0.727                   1

[5d]
[7f]
[9g]

[MO]
 Sym= A
 Ene=               0
 Spin= Alpha
 Occup=    1.00000
   1    5.1790525292944e-05
   2    3.5699241409233e-05
   3    -0.00011895834412972
   4    9.0460641334549e-08
   5    -4.7784510670567e-06
   6    -3.9823078621983e-06
   7    -5.8637509180759e-07
   8    2.330648052625e-05
   9    8.1586212924856e-05
  10    -1.2764810473463e-05
  11    1.3042088175007e-09
  12    7.853944336429e-07
  13    -4.1344217355964e-07
  14    -1.7315494227452e-08
  15    1.5474747813759e-05
  16    0.00017304657955538
  17    1.2977385663522e-07
  18    -1.5319915018746e-06
  19    3.2982574891601e-05
  20    7.5186579334928e-06
  21    -6.4614534251765e-05
  22    -1.8181177862103e-07
  23    5.7161474759393e-06
  24    -2.5430596167588e-06
  25      -1.0013659674736
  26    -0.0019603286225385
  27    0.0068252869924609
  28    4.6965978430573e-06
  29    -8.621459231795e-06
  30     0.001652456854554
  31    4.4400179629664e-07
  32    1.4876314177703e-06
  33    -0.0018539722508304
  34    -0.00012286241058228
  35    2.9485003204911e-06
  36    -1.3804205358441e-06
  37    -6.732783274856e-05
  38    0.00017530283723908
  39    -0.00027732999160835
  40    -0.00038036474404784
  41    -0.0014377898539352
  42    -1.5213706777781e-05
  43    9.9296753978405e-06
  44     1.81956399684e-06
  45    -8.5632933909797e-05
  46    6.6347511153317e-05
  47    -0.0035769943357993
  48    0.00052831226712031
  49    8.5983984127156e-06
  50    -2.5773352212872e-06
  51    -2.8974237211066e-05
  52    0.00010792683036441
  53    8.472967688264e-05
  54    0.00016575630619855
  55    -0.0013709282526044
  56    -7.815985963465e-05
  57    7.4080688241183e-06
  58    3.5595500252886e-05
  59    0.00042354145386708
  60    -0.00047675876817058
  61    0.00093827724866996
  62    0.00011724237962274
  63    -0.000150092756443
  64    0.00014299411158679
  65    -5.4882348158516e-05
  66    0.00012934146267669
  67    3.9602651406558e-05
  68    9.7448073397213e-05
  69    -0.00052030067655626
  70    6.1102267725849e-05
  71    -4.0176703465122e-05
  72    6.2392646220015e-05
  73    -0.0010053613439666
  74    0.00077387367892176
  75    0.00063944011986234
  76    0.00014039689004532
  77    0.00012033575713878
  78    -8.9187589525447e-05
  79    -5.8598347900082e-05
  80    0.00015103976943988
  81    6.3243969112436e-05
  82    -0.00020869151475892
  83    -6.6276562743518e-05
  84    4.8678124231217e-05
  85    -4.8603589039845e-05
  86    -2.5170133435653e-05
  87    -4.8938976513812e-05
  88    0.00060779215845395
  89    1.5930526992853e-05
  90    1.7095559619558e-05
  91    -1.191325320111e-05
  92    -0.00025831149351083
  93    -0.00063027381234911
  94    1.6209264358778e-05
  95    -1.827072904964e-05
  96    -1.1228838150785e-05
  97    -7.4164576273375e-06
  98    2.0267992891364e-05
  99    4.6406656636116e-05
 100    3.7990088061226e-05
 101    0.00015988814516204
 102    -8.583611975812e-06
 103    1.0000143898302e-05
 104    -7.5082596813906e-05
 105    1.8504524916275e-05
 106    0.00020270815378791
 107    6.444336902394e-05
 108    -1.0607037970013e-05
 109    -7.4986405595759e-05
 110    -7.7907027557007e-05
 111    6.0308805327681e-05
 112    4.5433214513181e-05
 113    -1.893106728628e-05
 114    -7.0002558763397e-05
 115    -0.0001861946188283
 116    0.00012421455358336
 117    -0.00082741724765792
 118    1.0040779200099e-05
 119    2.3841127070718e-05
 120    -3.5564542286285e-05
 121    -0.00029422951570913
 122    -2.8010913286318e-05
 123    0.00013962446044081
 124    5.9524168318145e-06
 125    -8.6952852653319e-06
 126    -1.7115776501764e-05
 127    3.3221443955868e-05
 128    -5.271557873887e-05
 129    1.9518970532066e-05
 130    0.00032599774954062
 131    -7.5850177230718e-06
 132    -5.9258366754897e-06
 133    -2.9299737397419e-05
 134    -2.6290504723883e-05
 135    0.00011704613089084
 136    1.3467273493577e-05
 137    2.4359145986219e-05
 138    2.677897192772e-05
 139    -5.2079122269229e-05
 140    3.3985760084505e-05
 141    -0.00029206661783489
 142    -1.0247444018226e-05
 143    4.3707995467695e-06
 144    6.5772224626231e-06
 145    0.00022904453735147
 146    -5.2708343522545e-05
 147    -6.2390589654757e-05
 148    1.5908620222014e-06
 149    -3.2490406670246e-06
 150    4.0443785814659e-06
 151    -1.2306284929404e-05
 152    5.5958570929187e-06
 153    0.00010979385246526
 154    0.00011017826850362
 155    2.5286845912927e-05
 156    -3.0177992725625e-05
 157    -2.1013108792127e-05
 158    3.2571690518511e-05
 159    8.7287836702921e-05
 160    5.9869900624919e-05
 161    8.470716660455e-06
 162    -6.6758971105724e-06
 163    -2.9842095206556e-06
 164    0.00010807296067887
 165    0.00031638790616624
 166    -4.4032298894613e-06
 167    -1.199639527079e-05
 168    -8.6615295924774e-06
 169    -0.0002508316072162
 170    0.00021480948203557
 171    0.00013535138005663
 172    3.770034389161e-06
 173    -1.1063866892968e-05
 174    1.4742066030826e-05
 175    -2.3064191704268e-06
 176    1.6865619678341e-05
 177    1.1014835270036e-05
 178    -8.749396825909e-05
 179    1.0009399073018e-06
 180    -2.0733931648477e-06
 181    5.1860527687695e-06
 182    8.5799203083205e-06
 183    -2.2372285318399e-05
 184    7.0517041607515e-05
 185    1.6249023644043e-05
 186    1.0627790250012e-05
 187    8.0900733380526e-06
 188    -0.00012218570602699
 189    0.00010894210134321
 190    9.2374030909644e-05
 191    -1.3961661600247e-06
 192    -2.2360159926301e-06
 193    9.1237878180384e-06
 194    2.405573557414e-06
 195    6.0748954270593e-06
 196    1.270511784968e-05
 197    2.1233266404109e-05
 198    -5.8040965031318e-06
 199    -2.1370084828927e-06
 200    3.2338023767104e-06
 201    7.2621721305204e-05
 202    8.7935786492208e-06
 203    1.5239150416315e-05
 204    -5.5938962432754e-06
 205    -6.6739125303413e-06
 206    3.4967480389065e-05
 207    -6.5208217818142e-05
 208    1.2879121921513e-05
 209    -8.8339934355113e-06
 210    -1.3470571144519e-05
 211    8.2797724952662e-06
 212    5.0426287393378e-05
 213    -0.00025009201977743
 214    4.9541466614119e-05
 215    -1.8388177640227e-05
 216    -6.2963807670965e-06
 217    -0.00017348683250373
 218    4.5655854521513e-05
 219    7.3208450082511e-05
 220    2.2253261761978e-06
 221    1.0601120231893e-05
 222    -1.5418049252637e-06
 223    -6.6551900915447e-06
 224    -2.1820672597896e-07
 225    -2.186569149268e-06
 226    -4.4597390056307e-05
 227    1.1856752988785e-05
 228    5.8510994149184e-07
 229    3.9963539138869e-07
 230    -1.9287044535279e-05
 231    -6.0321608578244e-05
 232    3.9154660465824e-06
 233    -5.6545990261886e-06
 234    -1.199536796998e-05
 235    -6.2347106017947e-06
 236    2.5614730249795e-06
 237    8.061290585752e-05
 238    -2.6092479648663e-06
 239    -2.4542604918216e-06
 240    -4.7927427207906e-06
 241    -3.5932013155995e-05
 242    6.2257331861118e-05
 243    -2.2022927897644e-05
 244    -1.6637469347244e-06
 245    -2.1981193211472e-06
 246    2.7403519600627e-06
 247    -1.1680230094043e-06
 248    -4.6305798903687e-07
 249    2.7070927598671e-05
 250    -9.5290910448629e-06
 251    5.2751015243451e-06
 252    -2.3067442414698e-07
 253    -8.6190726873218e-07
 254    1.2296670627024e-05
 255    -6.1286292533739e-05
 256    1.3117450368035e-06
 257    -4.4717257948187e-06
 258    7.9755745829205e-07
 259    1.7158541019319e-05
 260    1.8769713949199e-05
 261    -8.4895614444938e-05
 262    -2.7971983720112e-05
 263    1.2107217351513e-05