[Molden Format]
made by pyscf v[2.0.1]
[Atoms] (AU)
O   1   8     0.00000000000000     0.00000000000000    10.94175058546756
H   2   1     0.00000000000000     0.00000000000000     9.11834876356659
H   3   1    -0.05031916615174     1.78353065140343    11.31762228193423
O   4   8     0.00000000000000     0.00000000000000     2.31533471513237
C   5   6     0.00000000000000     0.00000000000000     0.00000000000000
C   6   6     2.01118073026938    -1.40227222164369    -1.50774939176400
C   7   6    -2.01249334291722     1.41331050329955    -1.50315905028694
H   8   1     3.32037363730244    -2.26721897153159    -0.13599698591495
C   9   6     3.45899267434009     0.28739631745591    -3.37437943254505
H   10   1     1.07662969841332    -2.94725144642667    -2.56541439481080
H   11   1    -2.67503415753480     0.18421555839588    -3.06194479365997
H   12   1    -1.07974048864772     3.03851734677796    -2.43674295017013
C   13   6    -4.21607110578555     2.32938802552922     0.11994162256091
H   14   1     4.24440173074564     1.93368664142019    -2.34976285512790
H   15   1     2.15020713235517     1.04714335134846    -4.81494497423699
C   16   6     5.60746363007797    -1.12419643481196    -4.70268606082550
H   17   1    -3.46838323670267     3.50951302338067     1.66946842715333
H   18   1    -5.11873485366228     0.68575958301209     1.04047743976495
C   19   6    -6.18314754751344     3.80909592987882    -1.39656589068747
H   20   1     6.93011263717176    -1.87550812453645    -3.26656317360070
C   21   6     7.06356622236532     0.52877932406334    -6.57829775293605
H   22   1     4.82318879258361    -2.78573437948532    -5.70504560381835
H   23   1    -6.91582688743803     2.61304780074712    -2.95074552451969
H   24   1    -5.26532430573853     5.45420349051338    -2.31005832200284
C   25   6    -8.39941882261433     4.73263980500213     0.21800571437956
H   26   1     7.83338371486801     2.19084139882824    -5.57093109900697
H   27   1     5.73544244039420     1.27376866537418    -8.01071492370229
C   28   6     9.21124858443101    -0.89699110072176    -7.88926949186242
H   29   1    -7.66272760055236     5.92277078003992     1.77035591474408
H   30   1    -9.31497248082589     3.08753015622020     1.12614408368786
C   31   6   -10.35481709231879     6.21833079391143    -1.30905206253246
H   32   1    10.58815905329501    -1.61074586756696    -6.49512691622620
H   33   1    10.23506248045667     0.32468009384095    -9.23072870921204
H   34   1     8.47665842847139    -2.53598436989925    -8.94921964622535
H   35   1    -9.48948872868064     7.90013588951020    -2.18823918416067
H   36   1   -11.93332513000955     6.86460487874102    -0.11255798845995
H   37   1   -11.15126291841033     5.04495968327630    -2.83849898862534
[GTO]
1 0
 s    8 1.00
                 11720  0.00070964594651845
                  1759  0.0054672722921914
                 400.8   0.027823118610189
                 113.7    0.10474773971146
                 37.03    0.28292084635691
                 13.27    0.44849523869833
                 5.025    0.27081688521277
                 1.013    0.01545029160744
 s    8 1.00
                 11720  -0.00031444341168873
                  1759  -0.0024821376810179
                 400.8  -0.012316355381583
                 113.7  -0.050538917343672
                 37.03   -0.13938490331632
                 13.27   -0.32507749481778
                 5.025   -0.22984830758785
                 1.013     1.0953793467883
 s    1 1.00
                0.3023                   1
 p    3 1.00
                  17.7   0.062679166281506
                 3.854    0.33353656587936
                 1.046    0.74123964163973
 p    1 1.00
                0.2753                   1
 d    1 1.00
                 1.185                   1

2 0
 s    3 1.00
                 13.01   0.033498726389998
                 1.962    0.23480080117413
                0.4446     0.8136829578829
 s    1 1.00
                 0.122                   1
 p    1 1.00
                 0.727                   1

3 0
 s    3 1.00
                 13.01   0.033498726389998
                 1.962    0.23480080117413
                0.4446     0.8136829578829
 s    1 1.00
                 0.122                   1
 p    1 1.00
                 0.727                   1

4 0
 s    8 1.00
                 11720  0.00070964594651845
                  1759  0.0054672722921914
                 400.8   0.027823118610189
                 113.7    0.10474773971146
                 37.03    0.28292084635691
                 13.27    0.44849523869833
                 5.025    0.27081688521277
                 1.013    0.01545029160744
 s    8 1.00
                 11720  -0.00031444341168873
                  1759  -0.0024821376810179
                 400.8  -0.012316355381583
                 113.7  -0.050538917343672
                 37.03   -0.13938490331632
                 13.27   -0.32507749481778
                 5.025   -0.22984830758785
                 1.013     1.0953793467883
 s    1 1.00
                0.3023                   1
 p    3 1.00
                  17.7   0.062679166281506
                 3.854    0.33353656587936
                 1.046    0.74123964163973
 p    1 1.00
                0.2753                   1
 d    1 1.00
                 1.185                   1

5 0
 s    8 1.00
                  6665  0.00069158396281299
                  1000  0.0053257961529341
                   228   0.027060721042034
                 64.71    0.10165684614077
                 21.06     0.2745748236174
                 7.495    0.44829431892377
                 2.797    0.28490261071525
                0.5215   0.015194859206082
 s    8 1.00
                  6665  -0.00029326965268655
                  1000  -0.0023180354739745
                   228  -0.011499786038565
                 64.71  -0.046826727009787
                 21.06   -0.12846616875047
                 7.495   -0.30126627246289
                 2.797   -0.25563070233011
                0.5215      1.093793361012
 s    1 1.00
                0.1596                   1
 p    3 1.00
                 9.439   0.056979251590039
                 2.002    0.31320721150073
                0.5456    0.76037674173753
 p    1 1.00
                0.1517                   1
 d    1 1.00
                  0.55                   1

6 0
 s    8 1.00
                  6665  0.00069158396281299
                  1000  0.0053257961529341
                   228   0.027060721042034
                 64.71    0.10165684614077
                 21.06     0.2745748236174
                 7.495    0.44829431892377
                 2.797    0.28490261071525
                0.5215   0.015194859206082
 s    8 1.00
                  6665  -0.00029326965268655
                  1000  -0.0023180354739745
                   228  -0.011499786038565
                 64.71  -0.046826727009787
                 21.06   -0.12846616875047
                 7.495   -0.30126627246289
                 2.797   -0.25563070233011
                0.5215      1.093793361012
 s    1 1.00
                0.1596                   1
 p    3 1.00
                 9.439   0.056979251590039
                 2.002    0.31320721150073
                0.5456    0.76037674173753
 p    1 1.00
                0.1517                   1
 d    1 1.00
                  0.55                   1

7 0
 s    8 1.00
                  6665  0.00069158396281299
                  1000  0.0053257961529341
                   228   0.027060721042034
                 64.71    0.10165684614077
                 21.06     0.2745748236174
                 7.495    0.44829431892377
                 2.797    0.28490261071525
                0.5215   0.015194859206082
 s    8 1.00
                  6665  -0.00029326965268655
                  1000  -0.0023180354739745
                   228  -0.011499786038565
                 64.71  -0.046826727009787
                 21.06   -0.12846616875047
                 7.495   -0.30126627246289
                 2.797   -0.25563070233011
                0.5215      1.093793361012
 s    1 1.00
                0.1596                   1
 p    3 1.00
                 9.439   0.056979251590039
                 2.002    0.31320721150073
                0.5456    0.76037674173753
 p    1 1.00
                0.1517                   1
 d    1 1.00
                  0.55                   1

8 0
 s    3 1.00
                 13.01   0.033498726389998
                 1.962    0.23480080117413
                0.4446     0.8136829578829
 s    1 1.00
                 0.122                   1
 p    1 1.00
                 0.727                   1

9 0
 s    8 1.00
                  6665  0.00069158396281299
                  1000  0.0053257961529341
                   228   0.027060721042034
                 64.71    0.10165684614077
                 21.06     0.2745748236174
                 7.495    0.44829431892377
                 2.797    0.28490261071525
                0.5215   0.015194859206082
 s    8 1.00
                  6665  -0.00029326965268655
                  1000  -0.0023180354739745
                   228  -0.011499786038565
                 64.71  -0.046826727009787
                 21.06   -0.12846616875047
                 7.495   -0.30126627246289
                 2.797   -0.25563070233011
                0.5215      1.093793361012
 s    1 1.00
                0.1596                   1
 p    3 1.00
                 9.439   0.056979251590039
                 2.002    0.31320721150073
                0.5456    0.76037674173753
 p    1 1.00
                0.1517                   1
 d    1 1.00
                  0.55                   1

10 0
 s    3 1.00
                 13.01   0.033498726389998
                 1.962    0.23480080117413
                0.4446     0.8136829578829
 s    1 1.00
                 0.122                   1
 p    1 1.00
                 0.727                   1

11 0
 s    3 1.00
                 13.01   0.033498726389998
                 1.962    0.23480080117413
                0.4446     0.8136829578829
 s    1 1.00
                 0.122                   1
 p    1 1.00
                 0.727                   1

12 0
 s    3 1.00
                 13.01   0.033498726389998
                 1.962    0.23480080117413
                0.4446     0.8136829578829
 s    1 1.00
                 0.122                   1
 p    1 1.00
                 0.727                   1

13 0
 s    8 1.00
                  6665  0.00069158396281299
                  1000  0.0053257961529341
                   228   0.027060721042034
                 64.71    0.10165684614077
                 21.06     0.2745748236174
                 7.495    0.44829431892377
                 2.797    0.28490261071525
                0.5215   0.015194859206082
 s    8 1.00
                  6665  -0.00029326965268655
                  1000  -0.0023180354739745
                   228  -0.011499786038565
                 64.71  -0.046826727009787
                 21.06   -0.12846616875047
                 7.495   -0.30126627246289
                 2.797   -0.25563070233011
                0.5215      1.093793361012
 s    1 1.00
                0.1596                   1
 p    3 1.00
                 9.439   0.056979251590039
                 2.002    0.31320721150073
                0.5456    0.76037674173753
 p    1 1.00
                0.1517                   1
 d    1 1.00
                  0.55                   1

14 0
 s    3 1.00
                 13.01   0.033498726389998
                 1.962    0.23480080117413
                0.4446     0.8136829578829
 s    1 1.00
                 0.122                   1
 p    1 1.00
                 0.727                   1

15 0
 s    3 1.00
                 13.01   0.033498726389998
                 1.962    0.23480080117413
                0.4446     0.8136829578829
 s    1 1.00
                 0.122                   1
 p    1 1.00
                 0.727                   1

16 0
 s    8 1.00
                  6665  0.00069158396281299
                  1000  0.0053257961529341
                   228   0.027060721042034
                 64.71    0.10165684614077
                 21.06     0.2745748236174
                 7.495    0.44829431892377
                 2.797    0.28490261071525
                0.5215   0.015194859206082
 s    8 1.00
                  6665  -0.00029326965268655
                  1000  -0.0023180354739745
                   228  -0.011499786038565
                 64.71  -0.046826727009787
                 21.06   -0.12846616875047
                 7.495   -0.30126627246289
                 2.797   -0.25563070233011
                0.5215      1.093793361012
 s    1 1.00
                0.1596                   1
 p    3 1.00
                 9.439   0.056979251590039
                 2.002    0.31320721150073
                0.5456    0.76037674173753
 p    1 1.00
                0.1517                   1
 d    1 1.00
                  0.55                   1

17 0
 s    3 1.00
                 13.01   0.033498726389998
                 1.962    0.23480080117413
                0.4446     0.8136829578829
 s    1 1.00
                 0.122                   1
 p    1 1.00
                 0.727                   1

18 0
 s    3 1.00
                 13.01   0.033498726389998
                 1.962    0.23480080117413
                0.4446     0.8136829578829
 s    1 1.00
                 0.122                   1
 p    1 1.00
                 0.727                   1

19 0
 s    8 1.00
                  6665  0.00069158396281299
                  1000  0.0053257961529341
                   228   0.027060721042034
                 64.71    0.10165684614077
                 21.06     0.2745748236174
                 7.495    0.44829431892377
                 2.797    0.28490261071525
                0.5215   0.015194859206082
 s    8 1.00
                  6665  -0.00029326965268655
                  1000  -0.0023180354739745
                   228  -0.011499786038565
                 64.71  -0.046826727009787
                 21.06   -0.12846616875047
                 7.495   -0.30126627246289
                 2.797   -0.25563070233011
                0.5215      1.093793361012
 s    1 1.00
                0.1596                   1
 p    3 1.00
                 9.439   0.056979251590039
                 2.002    0.31320721150073
                0.5456    0.76037674173753
 p    1 1.00
                0.1517                   1
 d    1 1.00
                  0.55                   1

20 0
 s    3 1.00
                 13.01   0.033498726389998
                 1.962    0.23480080117413
                0.4446     0.8136829578829
 s    1 1.00
                 0.122                   1
 p    1 1.00
                 0.727                   1

21 0
 s    8 1.00
                  6665  0.00069158396281299
                  1000  0.0053257961529341
                   228   0.027060721042034
                 64.71    0.10165684614077
                 21.06     0.2745748236174
                 7.495    0.44829431892377
                 2.797    0.28490261071525
                0.5215   0.015194859206082
 s    8 1.00
                  6665  -0.00029326965268655
                  1000  -0.0023180354739745
                   228  -0.011499786038565
                 64.71  -0.046826727009787
                 21.06   -0.12846616875047
                 7.495   -0.30126627246289
                 2.797   -0.25563070233011
                0.5215      1.093793361012
 s    1 1.00
                0.1596                   1
 p    3 1.00
                 9.439   0.056979251590039
                 2.002    0.31320721150073
                0.5456    0.76037674173753
 p    1 1.00
                0.1517                   1
 d    1 1.00
                  0.55                   1

22 0
 s    3 1.00
                 13.01   0.033498726389998
                 1.962    0.23480080117413
                0.4446     0.8136829578829
 s    1 1.00
                 0.122                   1
 p    1 1.00
                 0.727                   1

23 0
 s    3 1.00
                 13.01   0.033498726389998
                 1.962    0.23480080117413
                0.4446     0.8136829578829
 s    1 1.00
                 0.122                   1
 p    1 1.00
                 0.727                   1

24 0
 s    3 1.00
                 13.01   0.033498726389998
                 1.962    0.23480080117413
                0.4446     0.8136829578829
 s    1 1.00
                 0.122                   1
 p    1 1.00
                 0.727                   1

25 0
 s    8 1.00
                  6665  0.00069158396281299
                  1000  0.0053257961529341
                   228   0.027060721042034
                 64.71    0.10165684614077
                 21.06     0.2745748236174
                 7.495    0.44829431892377
                 2.797    0.28490261071525
                0.5215   0.015194859206082
 s    8 1.00
                  6665  -0.00029326965268655
                  1000  -0.0023180354739745
                   228  -0.011499786038565
                 64.71  -0.046826727009787
                 21.06   -0.12846616875047
                 7.495   -0.30126627246289
                 2.797   -0.25563070233011
                0.5215      1.093793361012
 s    1 1.00
                0.1596                   1
 p    3 1.00
                 9.439   0.056979251590039
                 2.002    0.31320721150073
                0.5456    0.76037674173753
 p    1 1.00
                0.1517                   1
 d    1 1.00
                  0.55                   1

26 0
 s    3 1.00
                 13.01   0.033498726389998
                 1.962    0.23480080117413
                0.4446     0.8136829578829
 s    1 1.00
                 0.122                   1
 p    1 1.00
                 0.727                   1

27 0
 s    3 1.00
                 13.01   0.033498726389998
                 1.962    0.23480080117413
                0.4446     0.8136829578829
 s    1 1.00
                 0.122                   1
 p    1 1.00
                 0.727                   1

28 0
 s    8 1.00
                  6665  0.00069158396281299
                  1000  0.0053257961529341
                   228   0.027060721042034
                 64.71    0.10165684614077
                 21.06     0.2745748236174
                 7.495    0.44829431892377
                 2.797    0.28490261071525
                0.5215   0.015194859206082
 s    8 1.00
                  6665  -0.00029326965268655
                  1000  -0.0023180354739745
                   228  -0.011499786038565
                 64.71  -0.046826727009787
                 21.06   -0.12846616875047
                 7.495   -0.30126627246289
                 2.797   -0.25563070233011
                0.5215      1.093793361012
 s    1 1.00
                0.1596                   1
 p    3 1.00
                 9.439   0.056979251590039
                 2.002    0.31320721150073
                0.5456    0.76037674173753
 p    1 1.00
                0.1517                   1
 d    1 1.00
                  0.55                   1

29 0
 s    3 1.00
                 13.01   0.033498726389998
                 1.962    0.23480080117413
                0.4446     0.8136829578829
 s    1 1.00
                 0.122                   1
 p    1 1.00
                 0.727                   1

30 0
 s    3 1.00
                 13.01   0.033498726389998
                 1.962    0.23480080117413
                0.4446     0.8136829578829
 s    1 1.00
                 0.122                   1
 p    1 1.00
                 0.727                   1

31 0
 s    8 1.00
                  6665  0.00069158396281299
                  1000  0.0053257961529341
                   228   0.027060721042034
                 64.71    0.10165684614077
                 21.06     0.2745748236174
                 7.495    0.44829431892377
                 2.797    0.28490261071525
                0.5215   0.015194859206082
 s    8 1.00
                  6665  -0.00029326965268655
                  1000  -0.0023180354739745
                   228  -0.011499786038565
                 64.71  -0.046826727009787
                 21.06   -0.12846616875047
                 7.495   -0.30126627246289
                 2.797   -0.25563070233011
                0.5215      1.093793361012
 s    1 1.00
                0.1596                   1
 p    3 1.00
                 9.439   0.056979251590039
                 2.002    0.31320721150073
                0.5456    0.76037674173753
 p    1 1.00
                0.1517                   1
 d    1 1.00
                  0.55                   1

32 0
 s    3 1.00
                 13.01   0.033498726389998
                 1.962    0.23480080117413
                0.4446     0.8136829578829
 s    1 1.00
                 0.122                   1
 p    1 1.00
                 0.727                   1

33 0
 s    3 1.00
                 13.01   0.033498726389998
                 1.962    0.23480080117413
                0.4446     0.8136829578829
 s    1 1.00
                 0.122                   1
 p    1 1.00
                 0.727                   1

34 0
 s    3 1.00
                 13.01   0.033498726389998
                 1.962    0.23480080117413
                0.4446     0.8136829578829
 s    1 1.00
                 0.122                   1
 p    1 1.00
                 0.727                   1

35 0
 s    3 1.00
                 13.01   0.033498726389998
                 1.962    0.23480080117413
                0.4446     0.8136829578829
 s    1 1.00
                 0.122                   1
 p    1 1.00
                 0.727                   1

36 0
 s    3 1.00
                 13.01   0.033498726389998
                 1.962    0.23480080117413
                0.4446     0.8136829578829
 s    1 1.00
                 0.122                   1
 p    1 1.00
                 0.727                   1

37 0
 s    3 1.00
                 13.01   0.033498726389998
                 1.962    0.23480080117413
                0.4446     0.8136829578829
 s    1 1.00
                 0.122                   1
 p    1 1.00
                 0.727                   1

[5d]
[7f]
[9g]

[MO]
 Sym= A
 Ene=               0
 Spin= Alpha
 Occup=    1.00000
   1    -2.90002604115e-05
   2    -1.6005616263974e-05
   3    6.2561230234322e-05
   4    -5.8578816896389e-08
   5    2.3722794385992e-06
   6    -3.2876595418401e-07
   7    3.8565567964672e-07
   8    -1.4142141950921e-05
   9    -4.6792094729453e-05
  10    8.7671555407964e-06
  11    1.3567876522158e-08
  12    -6.4161759019782e-07
  13    5.6915114493758e-07
  14    3.0922897797614e-08
  15    -7.6377404058748e-06
  16    -9.2564083904073e-05
  17    -4.0886320523639e-08
  18    8.8529673679907e-07
  19    -2.7482447797736e-05
  20    -3.5636512062342e-06
  21    3.7925388715467e-05
  22    1.3327113746397e-07
  23    -4.5746620159094e-06
  24    1.3628725260645e-06
  25       1.0013590096795
  26    0.0019456205324694
  27    -0.0067639991320234
  28    -4.4852620430696e-06
  29     7.57681437647e-06
  30    -0.0016591901575071
  31    -4.1846702236622e-07
  32    -1.0552926590625e-06
  33    0.0018111340567377
  34    0.00012983811601722
  35    -3.0239032082212e-06
  36    1.3152930314416e-06
  37    6.7670174150947e-05
  38    -0.00017624727387496
  39    0.00027182644138886
  40    0.00036836858940554
  41    0.0013928918985048
  42    1.4822334968276e-05
  43    -9.9180706146526e-06
  44    -1.4330742819341e-05
  45    8.566999704616e-05
  46    -6.5268716328426e-05
  47     0.003532786590201
  48    -0.00053969437675646
  49    -8.7247376094344e-06
  50    2.5199402759496e-06
  51     2.84367339078e-05
  52    -0.00010662349641671
  53    -8.4927562734283e-05
  54    -0.00016612972313007
  55    0.0013639842611029
  56    7.8025439184237e-05
  57    -7.4928400109236e-06
  58    -3.6253300075555e-05
  59    -0.00042287219771369
  60    0.00047489495302125
  61    -0.00092141324809762
  62    -0.00011793764338356
  63    0.00015026120986555
  64    -0.00014284343746573
  65    5.5258323711171e-05
  66    -0.00013058196963184
  67    -3.9973854210141e-05
  68    -9.8539237697793e-05
  69    0.00051713568413077
  70    -6.0610861670483e-05
  71    3.9745881323887e-05
  72    -6.2772803399567e-05
  73    0.00099922479328326
  74    -0.00077059880898978
  75    -0.00063094047893969
  76    -0.00014114960381729
  77    -0.00012026044282149
  78    8.9115350779455e-05
  79    5.9002143119212e-05
  80    -0.00015196028341916
  81    -6.5176564373673e-05
  82    0.00020604403792055
  83    6.5902055846471e-05
  84    -4.8380181855833e-05
  85    4.917277950081e-05
  86    2.5037431921113e-05
  87    4.8832523092001e-05
  88    -0.00060079418253053
  89    -1.6034898281938e-05
  90    -1.7062500625449e-05
  91    1.2246378804655e-05
  92    0.00025630240547153
  93    0.00062152115371338
  94    -1.8744501733374e-05
  95    1.7972355421962e-05
  96    1.1072523496956e-05
  97    7.0838359964016e-06
  98    -2.0666228386527e-05
  99    -4.5434016332394e-05
 100    -3.6646220711583e-05
 101    -0.0001574380768735
 102    9.5839002522558e-06
 103    -9.6913560338218e-06
 104    7.4133509927954e-05
 105    -1.7911070311232e-05
 106    -0.00020085373977618
 107    -6.464986313651e-05
 108    1.169213544458e-05
 109    7.4430978958578e-05
 110    7.8125197488079e-05
 111    -5.6958948206351e-05
 112    -4.5933575211783e-05
 113    1.8335579934832e-05
 114    6.9426942516053e-05
 115    0.00021898458111322
 116    -0.00012187827622255
 117    0.00082319263103113
 118    -1.2101542138865e-05
 119    -2.4037656562876e-05
 120    3.6862983210089e-05
 121    0.00030040444776762
 122    2.4571798621228e-05
 123    -0.00013008226045147
 124    -5.8639789877991e-06
 125    9.4117852754429e-06
 126    1.7091115252505e-05
 127    -3.3628330479764e-05
 128    5.2423249482834e-05
 129    -1.9222956664198e-05
 130    -0.000320925688625
 131    7.3799292169266e-06
 132    5.8743149806008e-06
 133    2.9132233869487e-05
 134    2.6278428865132e-05
 135    -0.00011771711676707
 136    -1.3366873972982e-05
 137    -2.393523762968e-05
 138    -2.6508062057618e-05
 139    4.8930609396279e-05
 140    -3.2700575889906e-05
 141    0.00028615107583406
 142    1.1398456635104e-05
 143    -3.5622819293299e-06
 144    -7.3142101332427e-06
 145    -0.00022808932460542
 146    5.0371222734154e-05
 147    6.3944139406922e-05
 148    -1.5463392626264e-06
 149    2.9847460672943e-06
 150    -3.7214723747584e-06
 151    1.2165766142721e-05
 152    -5.5378498030333e-06
 153    -0.00010846941508428
 154    -0.00011746925959934
 155    -2.5004766421983e-05
 156    3.0863640951468e-05
 157    2.1635580988972e-05
 158    -2.8651072338162e-05
 159    -8.6233522436479e-05
 160    -6.0029911327988e-05
 161    -8.2003724794678e-06
 162    6.2541054504703e-06
 163    -3.9483775094858e-05
 164    -0.0001027329979916
 165     -0.00030075470061
 166    1.3038712551673e-05
 167    1.6793726222186e-05
 168    3.8165071970511e-06
 169    0.00025550692413389
 170    -0.00021402048235274
 171    -0.00013448490069302
 172    -3.2102063088327e-06
 173    1.0826796869685e-05
 174    -1.5214631067523e-05
 175    1.6521915882397e-06
 176    -1.6203209023902e-05
 177    -1.0806347120964e-05
 178    8.5858266571346e-05
 179    -8.6030733668056e-07
 180    2.2100294229074e-06
 181    -5.308475209787e-06
 182    -4.6931677899695e-06
 183    2.4277436406068e-05
 184    -6.413350504119e-05
 185    -1.2760359611259e-05
 186    -1.3583127226565e-05
 187    -6.8128298271924e-06
 188    0.00012236064564626
 189    -0.00011063569697848
 190    -8.959048660533e-05
 191    1.3445928062761e-06
 192    1.8454950568529e-06
 193    -9.0155406001427e-06
 194    -2.5178945762424e-06
 195    -5.9485803627124e-06
 196    -1.305354283535e-05
 197    -2.1077260401431e-05
 198    5.8181153457724e-06
 199    2.1716072232712e-06
 200    -3.3772926824262e-06
 201    -7.0300881802171e-05
 202    -6.6750809532976e-06
 203    -1.48248962381e-05
 204    6.1042846386111e-06
 205    6.7753939419117e-06
 206    -2.1800518726933e-05
 207    7.1228937112351e-05
 208    -1.3364697951314e-05
 209    8.0056840584813e-06
 210    1.378173931196e-05
 211    -1.8857743012922e-05
 212    -5.6692419543427e-05
 213    0.00023679690875374
 214    -3.6589671692095e-05
 215    9.7682124440321e-06
 216    3.0409698636713e-05
 217    0.00018017246716601
 218    -5.0443729035325e-05
 219    -5.9182379029601e-05
 220    -1.9286945611893e-06
 221    -1.1477157190746e-05
 222    2.4718062618172e-06
 223    6.3286569333916e-06
 224    2.0848325674456e-06
 225    2.8125715066006e-06
 226    4.4049553293542e-05
 227    -1.1683794788361e-05
 228    -6.6520274943507e-07
 229    -4.3632136542837e-07
 230    1.650891625773e-05
 231    5.8854087082977e-05
 232    -3.8838451369935e-06
 233    5.5992751015612e-06
 234    1.1835956191359e-05
 235    5.8370387892448e-06
 236    -2.6662289292216e-06
 237    -8.0211289598795e-05
 238    -2.0550776968722e-06
 239    2.7011839704168e-06
 240    7.3228202503055e-06
 241    3.3389403241367e-05
 242    -6.1697677927654e-05
 243    2.2903378323826e-05
 244    1.6166308259831e-06
 245    1.9440462182781e-06
 246    -2.4307230844694e-06
 247    1.2269404145233e-06
 248    2.8293560136123e-07
 249    -1.4078036968059e-05
 250    1.7491006102575e-05
 251    -5.4493466236392e-06
 252    -6.6101570465359e-07
 253    5.3203229611216e-07
 254    -4.3439846985258e-06
 255    6.6130295795998e-05
 256    -8.3730733798335e-07
 257    4.7847627203848e-06
 258    -4.6621476273769e-07
 259    -9.3646588208306e-06
 260    -2.1924309965623e-05
 261    8.4777175362916e-05
 262    6.6548557023077e-06