[Molden Format]
made by pyscf v[2.0.1]
[Atoms] (AU)
O   1   8     0.00000000000000     0.00000000000000    11.69764103529358
H   2   1     0.00000000000000     0.00000000000000     9.87423921339262
H   3   1    -0.05031916615174     1.78353065140343    12.07351273176025
O   4   8     0.00000000000000     0.00000000000000     2.31533471513237
C   5   6     0.00000000000000     0.00000000000000     0.00000000000000
C   6   6     2.01118073026938    -1.40227222164369    -1.50774939176400
C   7   6    -2.01249334291722     1.41331050329955    -1.50315905028694
H   8   1     3.32037363730244    -2.26721897153159    -0.13599698591495
C   9   6     3.45899267434009     0.28739631745591    -3.37437943254505
H   10   1     1.07662969841332    -2.94725144642667    -2.56541439481080
H   11   1    -2.67503415753480     0.18421555839588    -3.06194479365997
H   12   1    -1.07974048864772     3.03851734677796    -2.43674295017013
C   13   6    -4.21607110578555     2.32938802552922     0.11994162256091
H   14   1     4.24440173074564     1.93368664142019    -2.34976285512790
H   15   1     2.15020713235517     1.04714335134846    -4.81494497423699
C   16   6     5.60746363007797    -1.12419643481196    -4.70268606082550
H   17   1    -3.46838323670267     3.50951302338067     1.66946842715333
H   18   1    -5.11873485366228     0.68575958301209     1.04047743976495
C   19   6    -6.18314754751344     3.80909592987882    -1.39656589068747
H   20   1     6.93011263717176    -1.87550812453645    -3.26656317360070
C   21   6     7.06356622236532     0.52877932406334    -6.57829775293605
H   22   1     4.82318879258361    -2.78573437948532    -5.70504560381835
H   23   1    -6.91582688743803     2.61304780074712    -2.95074552451969
H   24   1    -5.26532430573853     5.45420349051338    -2.31005832200284
C   25   6    -8.39941882261433     4.73263980500213     0.21800571437956
H   26   1     7.83338371486801     2.19084139882824    -5.57093109900697
H   27   1     5.73544244039420     1.27376866537418    -8.01071492370229
C   28   6     9.21124858443101    -0.89699110072176    -7.88926949186242
H   29   1    -7.66272760055236     5.92277078003992     1.77035591474408
H   30   1    -9.31497248082589     3.08753015622020     1.12614408368786
C   31   6   -10.35481709231879     6.21833079391143    -1.30905206253246
H   32   1    10.58815905329501    -1.61074586756696    -6.49512691622620
H   33   1    10.23506248045667     0.32468009384095    -9.23072870921204
H   34   1     8.47665842847139    -2.53598436989925    -8.94921964622535
H   35   1    -9.48948872868064     7.90013588951020    -2.18823918416067
H   36   1   -11.93332513000955     6.86460487874102    -0.11255798845995
H   37   1   -11.15126291841033     5.04495968327630    -2.83849898862534
[GTO]
1 0
 s    8 1.00
                 11720  0.00070964594651845
                  1759  0.0054672722921914
                 400.8   0.027823118610189
                 113.7    0.10474773971146
                 37.03    0.28292084635691
                 13.27    0.44849523869833
                 5.025    0.27081688521277
                 1.013    0.01545029160744
 s    8 1.00
                 11720  -0.00031444341168873
                  1759  -0.0024821376810179
                 400.8  -0.012316355381583
                 113.7  -0.050538917343672
                 37.03   -0.13938490331632
                 13.27   -0.32507749481778
                 5.025   -0.22984830758785
                 1.013     1.0953793467883
 s    1 1.00
                0.3023                   1
 p    3 1.00
                  17.7   0.062679166281506
                 3.854    0.33353656587936
                 1.046    0.74123964163973
 p    1 1.00
                0.2753                   1
 d    1 1.00
                 1.185                   1

2 0
 s    3 1.00
                 13.01   0.033498726389998
                 1.962    0.23480080117413
                0.4446     0.8136829578829
 s    1 1.00
                 0.122                   1
 p    1 1.00
                 0.727                   1

3 0
 s    3 1.00
                 13.01   0.033498726389998
                 1.962    0.23480080117413
                0.4446     0.8136829578829
 s    1 1.00
                 0.122                   1
 p    1 1.00
                 0.727                   1

4 0
 s    8 1.00
                 11720  0.00070964594651845
                  1759  0.0054672722921914
                 400.8   0.027823118610189
                 113.7    0.10474773971146
                 37.03    0.28292084635691
                 13.27    0.44849523869833
                 5.025    0.27081688521277
                 1.013    0.01545029160744
 s    8 1.00
                 11720  -0.00031444341168873
                  1759  -0.0024821376810179
                 400.8  -0.012316355381583
                 113.7  -0.050538917343672
                 37.03   -0.13938490331632
                 13.27   -0.32507749481778
                 5.025   -0.22984830758785
                 1.013     1.0953793467883
 s    1 1.00
                0.3023                   1
 p    3 1.00
                  17.7   0.062679166281506
                 3.854    0.33353656587936
                 1.046    0.74123964163973
 p    1 1.00
                0.2753                   1
 d    1 1.00
                 1.185                   1

5 0
 s    8 1.00
                  6665  0.00069158396281299
                  1000  0.0053257961529341
                   228   0.027060721042034
                 64.71    0.10165684614077
                 21.06     0.2745748236174
                 7.495    0.44829431892377
                 2.797    0.28490261071525
                0.5215   0.015194859206082
 s    8 1.00
                  6665  -0.00029326965268655
                  1000  -0.0023180354739745
                   228  -0.011499786038565
                 64.71  -0.046826727009787
                 21.06   -0.12846616875047
                 7.495   -0.30126627246289
                 2.797   -0.25563070233011
                0.5215      1.093793361012
 s    1 1.00
                0.1596                   1
 p    3 1.00
                 9.439   0.056979251590039
                 2.002    0.31320721150073
                0.5456    0.76037674173753
 p    1 1.00
                0.1517                   1
 d    1 1.00
                  0.55                   1

6 0
 s    8 1.00
                  6665  0.00069158396281299
                  1000  0.0053257961529341
                   228   0.027060721042034
                 64.71    0.10165684614077
                 21.06     0.2745748236174
                 7.495    0.44829431892377
                 2.797    0.28490261071525
                0.5215   0.015194859206082
 s    8 1.00
                  6665  -0.00029326965268655
                  1000  -0.0023180354739745
                   228  -0.011499786038565
                 64.71  -0.046826727009787
                 21.06   -0.12846616875047
                 7.495   -0.30126627246289
                 2.797   -0.25563070233011
                0.5215      1.093793361012
 s    1 1.00
                0.1596                   1
 p    3 1.00
                 9.439   0.056979251590039
                 2.002    0.31320721150073
                0.5456    0.76037674173753
 p    1 1.00
                0.1517                   1
 d    1 1.00
                  0.55                   1

7 0
 s    8 1.00
                  6665  0.00069158396281299
                  1000  0.0053257961529341
                   228   0.027060721042034
                 64.71    0.10165684614077
                 21.06     0.2745748236174
                 7.495    0.44829431892377
                 2.797    0.28490261071525
                0.5215   0.015194859206082
 s    8 1.00
                  6665  -0.00029326965268655
                  1000  -0.0023180354739745
                   228  -0.011499786038565
                 64.71  -0.046826727009787
                 21.06   -0.12846616875047
                 7.495   -0.30126627246289
                 2.797   -0.25563070233011
                0.5215      1.093793361012
 s    1 1.00
                0.1596                   1
 p    3 1.00
                 9.439   0.056979251590039
                 2.002    0.31320721150073
                0.5456    0.76037674173753
 p    1 1.00
                0.1517                   1
 d    1 1.00
                  0.55                   1

8 0
 s    3 1.00
                 13.01   0.033498726389998
                 1.962    0.23480080117413
                0.4446     0.8136829578829
 s    1 1.00
                 0.122                   1
 p    1 1.00
                 0.727                   1

9 0
 s    8 1.00
                  6665  0.00069158396281299
                  1000  0.0053257961529341
                   228   0.027060721042034
                 64.71    0.10165684614077
                 21.06     0.2745748236174
                 7.495    0.44829431892377
                 2.797    0.28490261071525
                0.5215   0.015194859206082
 s    8 1.00
                  6665  -0.00029326965268655
                  1000  -0.0023180354739745
                   228  -0.011499786038565
                 64.71  -0.046826727009787
                 21.06   -0.12846616875047
                 7.495   -0.30126627246289
                 2.797   -0.25563070233011
                0.5215      1.093793361012
 s    1 1.00
                0.1596                   1
 p    3 1.00
                 9.439   0.056979251590039
                 2.002    0.31320721150073
                0.5456    0.76037674173753
 p    1 1.00
                0.1517                   1
 d    1 1.00
                  0.55                   1

10 0
 s    3 1.00
                 13.01   0.033498726389998
                 1.962    0.23480080117413
                0.4446     0.8136829578829
 s    1 1.00
                 0.122                   1
 p    1 1.00
                 0.727                   1

11 0
 s    3 1.00
                 13.01   0.033498726389998
                 1.962    0.23480080117413
                0.4446     0.8136829578829
 s    1 1.00
                 0.122                   1
 p    1 1.00
                 0.727                   1

12 0
 s    3 1.00
                 13.01   0.033498726389998
                 1.962    0.23480080117413
                0.4446     0.8136829578829
 s    1 1.00
                 0.122                   1
 p    1 1.00
                 0.727                   1

13 0
 s    8 1.00
                  6665  0.00069158396281299
                  1000  0.0053257961529341
                   228   0.027060721042034
                 64.71    0.10165684614077
                 21.06     0.2745748236174
                 7.495    0.44829431892377
                 2.797    0.28490261071525
                0.5215   0.015194859206082
 s    8 1.00
                  6665  -0.00029326965268655
                  1000  -0.0023180354739745
                   228  -0.011499786038565
                 64.71  -0.046826727009787
                 21.06   -0.12846616875047
                 7.495   -0.30126627246289
                 2.797   -0.25563070233011
                0.5215      1.093793361012
 s    1 1.00
                0.1596                   1
 p    3 1.00
                 9.439   0.056979251590039
                 2.002    0.31320721150073
                0.5456    0.76037674173753
 p    1 1.00
                0.1517                   1
 d    1 1.00
                  0.55                   1

14 0
 s    3 1.00
                 13.01   0.033498726389998
                 1.962    0.23480080117413
                0.4446     0.8136829578829
 s    1 1.00
                 0.122                   1
 p    1 1.00
                 0.727                   1

15 0
 s    3 1.00
                 13.01   0.033498726389998
                 1.962    0.23480080117413
                0.4446     0.8136829578829
 s    1 1.00
                 0.122                   1
 p    1 1.00
                 0.727                   1

16 0
 s    8 1.00
                  6665  0.00069158396281299
                  1000  0.0053257961529341
                   228   0.027060721042034
                 64.71    0.10165684614077
                 21.06     0.2745748236174
                 7.495    0.44829431892377
                 2.797    0.28490261071525
                0.5215   0.015194859206082
 s    8 1.00
                  6665  -0.00029326965268655
                  1000  -0.0023180354739745
                   228  -0.011499786038565
                 64.71  -0.046826727009787
                 21.06   -0.12846616875047
                 7.495   -0.30126627246289
                 2.797   -0.25563070233011
                0.5215      1.093793361012
 s    1 1.00
                0.1596                   1
 p    3 1.00
                 9.439   0.056979251590039
                 2.002    0.31320721150073
                0.5456    0.76037674173753
 p    1 1.00
                0.1517                   1
 d    1 1.00
                  0.55                   1

17 0
 s    3 1.00
                 13.01   0.033498726389998
                 1.962    0.23480080117413
                0.4446     0.8136829578829
 s    1 1.00
                 0.122                   1
 p    1 1.00
                 0.727                   1

18 0
 s    3 1.00
                 13.01   0.033498726389998
                 1.962    0.23480080117413
                0.4446     0.8136829578829
 s    1 1.00
                 0.122                   1
 p    1 1.00
                 0.727                   1

19 0
 s    8 1.00
                  6665  0.00069158396281299
                  1000  0.0053257961529341
                   228   0.027060721042034
                 64.71    0.10165684614077
                 21.06     0.2745748236174
                 7.495    0.44829431892377
                 2.797    0.28490261071525
                0.5215   0.015194859206082
 s    8 1.00
                  6665  -0.00029326965268655
                  1000  -0.0023180354739745
                   228  -0.011499786038565
                 64.71  -0.046826727009787
                 21.06   -0.12846616875047
                 7.495   -0.30126627246289
                 2.797   -0.25563070233011
                0.5215      1.093793361012
 s    1 1.00
                0.1596                   1
 p    3 1.00
                 9.439   0.056979251590039
                 2.002    0.31320721150073
                0.5456    0.76037674173753
 p    1 1.00
                0.1517                   1
 d    1 1.00
                  0.55                   1

20 0
 s    3 1.00
                 13.01   0.033498726389998
                 1.962    0.23480080117413
                0.4446     0.8136829578829
 s    1 1.00
                 0.122                   1
 p    1 1.00
                 0.727                   1

21 0
 s    8 1.00
                  6665  0.00069158396281299
                  1000  0.0053257961529341
                   228   0.027060721042034
                 64.71    0.10165684614077
                 21.06     0.2745748236174
                 7.495    0.44829431892377
                 2.797    0.28490261071525
                0.5215   0.015194859206082
 s    8 1.00
                  6665  -0.00029326965268655
                  1000  -0.0023180354739745
                   228  -0.011499786038565
                 64.71  -0.046826727009787
                 21.06   -0.12846616875047
                 7.495   -0.30126627246289
                 2.797   -0.25563070233011
                0.5215      1.093793361012
 s    1 1.00
                0.1596                   1
 p    3 1.00
                 9.439   0.056979251590039
                 2.002    0.31320721150073
                0.5456    0.76037674173753
 p    1 1.00
                0.1517                   1
 d    1 1.00
                  0.55                   1

22 0
 s    3 1.00
                 13.01   0.033498726389998
                 1.962    0.23480080117413
                0.4446     0.8136829578829
 s    1 1.00
                 0.122                   1
 p    1 1.00
                 0.727                   1

23 0
 s    3 1.00
                 13.01   0.033498726389998
                 1.962    0.23480080117413
                0.4446     0.8136829578829
 s    1 1.00
                 0.122                   1
 p    1 1.00
                 0.727                   1

24 0
 s    3 1.00
                 13.01   0.033498726389998
                 1.962    0.23480080117413
                0.4446     0.8136829578829
 s    1 1.00
                 0.122                   1
 p    1 1.00
                 0.727                   1

25 0
 s    8 1.00
                  6665  0.00069158396281299
                  1000  0.0053257961529341
                   228   0.027060721042034
                 64.71    0.10165684614077
                 21.06     0.2745748236174
                 7.495    0.44829431892377
                 2.797    0.28490261071525
                0.5215   0.015194859206082
 s    8 1.00
                  6665  -0.00029326965268655
                  1000  -0.0023180354739745
                   228  -0.011499786038565
                 64.71  -0.046826727009787
                 21.06   -0.12846616875047
                 7.495   -0.30126627246289
                 2.797   -0.25563070233011
                0.5215      1.093793361012
 s    1 1.00
                0.1596                   1
 p    3 1.00
                 9.439   0.056979251590039
                 2.002    0.31320721150073
                0.5456    0.76037674173753
 p    1 1.00
                0.1517                   1
 d    1 1.00
                  0.55                   1

26 0
 s    3 1.00
                 13.01   0.033498726389998
                 1.962    0.23480080117413
                0.4446     0.8136829578829
 s    1 1.00
                 0.122                   1
 p    1 1.00
                 0.727                   1

27 0
 s    3 1.00
                 13.01   0.033498726389998
                 1.962    0.23480080117413
                0.4446     0.8136829578829
 s    1 1.00
                 0.122                   1
 p    1 1.00
                 0.727                   1

28 0
 s    8 1.00
                  6665  0.00069158396281299
                  1000  0.0053257961529341
                   228   0.027060721042034
                 64.71    0.10165684614077
                 21.06     0.2745748236174
                 7.495    0.44829431892377
                 2.797    0.28490261071525
                0.5215   0.015194859206082
 s    8 1.00
                  6665  -0.00029326965268655
                  1000  -0.0023180354739745
                   228  -0.011499786038565
                 64.71  -0.046826727009787
                 21.06   -0.12846616875047
                 7.495   -0.30126627246289
                 2.797   -0.25563070233011
                0.5215      1.093793361012
 s    1 1.00
                0.1596                   1
 p    3 1.00
                 9.439   0.056979251590039
                 2.002    0.31320721150073
                0.5456    0.76037674173753
 p    1 1.00
                0.1517                   1
 d    1 1.00
                  0.55                   1

29 0
 s    3 1.00
                 13.01   0.033498726389998
                 1.962    0.23480080117413
                0.4446     0.8136829578829
 s    1 1.00
                 0.122                   1
 p    1 1.00
                 0.727                   1

30 0
 s    3 1.00
                 13.01   0.033498726389998
                 1.962    0.23480080117413
                0.4446     0.8136829578829
 s    1 1.00
                 0.122                   1
 p    1 1.00
                 0.727                   1

31 0
 s    8 1.00
                  6665  0.00069158396281299
                  1000  0.0053257961529341
                   228   0.027060721042034
                 64.71    0.10165684614077
                 21.06     0.2745748236174
                 7.495    0.44829431892377
                 2.797    0.28490261071525
                0.5215   0.015194859206082
 s    8 1.00
                  6665  -0.00029326965268655
                  1000  -0.0023180354739745
                   228  -0.011499786038565
                 64.71  -0.046826727009787
                 21.06   -0.12846616875047
                 7.495   -0.30126627246289
                 2.797   -0.25563070233011
                0.5215      1.093793361012
 s    1 1.00
                0.1596                   1
 p    3 1.00
                 9.439   0.056979251590039
                 2.002    0.31320721150073
                0.5456    0.76037674173753
 p    1 1.00
                0.1517                   1
 d    1 1.00
                  0.55                   1

32 0
 s    3 1.00
                 13.01   0.033498726389998
                 1.962    0.23480080117413
                0.4446     0.8136829578829
 s    1 1.00
                 0.122                   1
 p    1 1.00
                 0.727                   1

33 0
 s    3 1.00
                 13.01   0.033498726389998
                 1.962    0.23480080117413
                0.4446     0.8136829578829
 s    1 1.00
                 0.122                   1
 p    1 1.00
                 0.727                   1

34 0
 s    3 1.00
                 13.01   0.033498726389998
                 1.962    0.23480080117413
                0.4446     0.8136829578829
 s    1 1.00
                 0.122                   1
 p    1 1.00
                 0.727                   1

35 0
 s    3 1.00
                 13.01   0.033498726389998
                 1.962    0.23480080117413
                0.4446     0.8136829578829
 s    1 1.00
                 0.122                   1
 p    1 1.00
                 0.727                   1

36 0
 s    3 1.00
                 13.01   0.033498726389998
                 1.962    0.23480080117413
                0.4446     0.8136829578829
 s    1 1.00
                 0.122                   1
 p    1 1.00
                 0.727                   1

37 0
 s    3 1.00
                 13.01   0.033498726389998
                 1.962    0.23480080117413
                0.4446     0.8136829578829
 s    1 1.00
                 0.122                   1
 p    1 1.00
                 0.727                   1

[5d]
[7f]
[9g]

[MO]
 Sym= A
 Ene=               0
 Spin= Alpha
 Occup=    1.00000
   1    -1.8697995906374e-05
   2    -8.1121107827943e-06
   3    3.2743171746568e-05
   4    -3.2415480753794e-08
   5    1.2336418998479e-06
   6    -3.5530102048416e-07
   7    2.264125762959e-07
   8    -8.16233132142e-06
   9    -2.5483045938157e-05
  10    4.8576420991257e-06
  11    9.6838414047886e-09
  12    -3.8841266200998e-07
  13    4.2097537465246e-07
  14    2.3411401042139e-08
  15    -3.6299374105401e-06
  16    -5.0098194359574e-05
  17    -1.8753526522736e-08
  18    5.108893750326e-07
  19    -1.5695321046499e-05
  20    -1.7064479256973e-06
  21    2.1402056617191e-05
  22    8.1974194884089e-08
  23    -2.8606592021881e-06
  24    6.6518876625186e-07
  25        1.001357106379
  26    0.0019414345736117
  27    -0.0067480668606583
  28    -4.3811195342968e-06
  29    7.1029153728787e-06
  30    -0.0016624943187855
  31    -4.5912607161219e-07
  32    -8.8228969542924e-07
  33    0.0018021023475346
  34    0.00013188147419969
  35    -3.0557367991189e-06
  36     1.29388691613e-06
  37    6.7819517654258e-05
  38    -0.00017664775373393
  39    0.00027060466469509
  40    0.00036556890432472
  41    0.0013823870694812
  42    1.4714375413773e-05
  43    -9.9209906648182e-06
  44    -1.748159929755e-05
  45    8.5843443188806e-05
  46    -6.5081515560306e-05
  47    0.0035217466683702
  48    -0.00054300678442966
  49    -8.7773256767872e-06
  50    2.5234928498635e-06
  51    2.8319145142172e-05
  52    -0.00010635968048096
  53    -8.4990646777119e-05
  54    -0.00016626131117098
  55    0.0013619798015985
  56    7.8047309398757e-05
  57    -7.5411902839319e-06
  58    -3.6460256148778e-05
  59    -0.00042270097553415
  60    0.00047445924714954
  61    -0.00091732602862323
  62    -0.00011814305387816
  63    0.00015037699167017
  64    -0.00014286559024417
  65    5.5366768873569e-05
  66    -0.00013093874933687
  67    -4.0080582728226e-05
  68    -9.8901987184607e-05
  69    0.00051633034206439
  70    -6.0492382814748e-05
  71    3.9646177831346e-05
  72    -6.291107629361e-05
  73    0.00099745384247895
  74    -0.00076972838600558
  75    -0.00062895041404151
  76    -0.00014140169893905
  77    -0.0001203404871062
  78    8.9153124572546e-05
  79    5.9157770272716e-05
  80    -0.0001522640334187
  81    -6.5721412310207e-05
  82    0.00020555974050987
  83    6.5803807987335e-05
  84    -4.8300779760195e-05
  85    4.933365106104e-05
  86    2.5001307735756e-05
  87    4.8820583257451e-05
  88    -0.00059904251104139
  89    -1.6059789594695e-05
  90    -1.7061751149243e-05
  91    1.2340395310746e-05
  92    0.0002558636992068
  93    0.00061928563638534
  94    -1.9492827870265e-05
  95    1.7903037522072e-05
  96    1.1039760771357e-05
  97    6.9840975659612e-06
  98    -2.0785859327242e-05
  99    -4.5190299118008e-05
 100    -3.6279731708091e-05
 101    -0.0001568562056707
 102    9.8589436684753e-06
 103    -9.6187346473467e-06
 104    7.3903105270345e-05
 105    -1.7764079162903e-05
 106    -0.00020042806700143
 107    -6.4709414489392e-05
 108    1.1976958791642e-05
 109    7.4297963070842e-05
 110    7.8238643764383e-05
 111    -5.6014784456176e-05
 112    -4.6063597500103e-05
 113    1.8172699908004e-05
 114    6.9287640943334e-05
 115    0.00023048080871521
 116    -0.00011954663165345
 117    0.00082232054582668
 118    -1.3752422172657e-05
 119    -2.350948468929e-05
 120    3.7233250387457e-05
 121    0.0003021998295972
 122    2.3640489884852e-05
 123    -0.00012715899454802
 124    -5.8847944348483e-06
 125    9.7835690181031e-06
 126    1.6962368564797e-05
 127    -3.3753360143269e-05
 128    5.2205955866035e-05
 129    -1.9135481947953e-05
 130    -0.00031964616705602
 131    7.326934841072e-06
 132    5.8600955559603e-06
 133    2.9094323313072e-05
 134    2.6268509144859e-05
 135    -0.00011790242894659
 136    -1.3353775929229e-05
 137    -2.382504318602e-05
 138    -2.6434314168379e-05
 139    4.5229663434288e-05
 140    -3.26651731584e-05
 141    0.00028443470879427
 142    1.1627518799755e-05
 143    -3.1925267833064e-06
 144    -7.4221442578227e-06
 145    -0.00022781333768756
 146    4.9828332198102e-05
 147    6.4403633112883e-05
 148    -1.5491343742462e-06
 149    2.9142671182422e-06
 150    -3.6507940153507e-06
 151    1.2115921316874e-05
 152    -5.5076633783591e-06
 153    -0.00010746277539791
 154    -0.00011955039994461
 155    -2.4984386315716e-05
 156    3.101327589983e-05
 157    2.1762699737801e-05
 158    -2.6735989883962e-05
 159    -8.5692213693287e-05
 160    -6.00571970315e-05
 161    -8.0302298222857e-06
 162    6.080135285452e-06
 163    -5.47674662403e-05
 164    -9.5348054969514e-05
 165    -0.00029164131876809
 166    1.4821363378626e-05
 167    1.9467607413958e-05
 168    3.0667482261619e-06
 169    0.00025629168188885
 170    -0.00021317799927944
 171    -0.00013371500208314
 172    -2.9324732432554e-06
 173    1.0603802310968e-05
 174    -1.5316071631495e-05
 175    1.4682301727333e-06
 176    -1.6092197432878e-05
 177    -1.0942258372342e-05
 178    8.5327694985314e-05
 179    -8.1031794783773e-07
 180    2.2368419710385e-06
 181    -5.3198598183899e-06
 182    -1.7436621934157e-06
 183    2.5299311073095e-05
 184    -6.2238220390015e-05
 185    -1.1677435353307e-05
 186    -1.3728021493183e-05
 187    -6.3295747656202e-06
 188    0.00012250514993485
 189    -0.00011079075932005
 190    -8.8832048257899e-05
 191    1.3251527568873e-06
 192    1.7708910144356e-06
 193    -8.9434807549423e-06
 194    -2.5644949110269e-06
 195    -5.9157383396369e-06
 196    -1.3361938378977e-05
 197    -2.102935202854e-05
 198    5.8069155613998e-06
 199    2.1617932783326e-06
 200    -3.42790164584e-06
 201    -6.7379618654572e-05
 202    -5.6888387867035e-06
 203    -1.4615991609631e-05
 204    6.4801213426726e-06
 205    7.0296275075803e-06
 206    -1.4673368369726e-05
 207    7.3578688557907e-05
 208    -1.3710244927649e-05
 209    7.4577812297134e-06
 210    1.404894134416e-05
 211    -2.2687593069342e-05
 212    -5.724359193208e-05
 213    0.00023315493984862
 214    -2.7674043216476e-05
 215    5.995408016525e-06
 216    3.8834473407361e-05
 217    0.00018424289727791
 218    -5.2262203988095e-05
 219    -5.4216957373112e-05
 220    -1.7922022725815e-06
 221    -1.2097228383536e-05
 222    3.086111287025e-06
 223    6.4060232053287e-06
 224    2.6764825652166e-06
 225    3.827369414369e-06
 226    4.4225479117501e-05
 227    -1.166756683616e-05
 228    -7.3820800402981e-07
 229    -4.8193527125647e-07
 230    1.603294423484e-05
 231    5.8490849407704e-05
 232    -3.8505623108942e-06
 233    5.5922975530583e-06
 234    1.1825596663151e-05
 235    5.6492727294391e-06
 236    -2.6121344073695e-06
 237    -8.0091424591965e-05
 238    -3.391196152366e-06
 239    2.5124812692239e-06
 240    7.9971487671243e-06
 241    3.2680829937906e-05
 242    -6.1690808114207e-05
 243    2.3129825536824e-05
 244    1.5993647375726e-06
 245    1.8889276623856e-06
 246    -2.3113400588431e-06
 247    1.2197320725161e-06
 248    2.2102378176153e-07
 249    -7.6366664205601e-06
 250    2.0807230254522e-05
 251    -5.4822815280007e-06
 252    -1.0943576675257e-06
 253    2.8735326824492e-07
 254    -2.044300148638e-06
 255    6.7304698013844e-05
 256    -5.5980802705155e-07
 257    4.8862989127789e-06
 258    -3.2582344366705e-07
 259    -5.728163304195e-06
 260    -2.331463870615e-05
 261    8.3956240693196e-05
 262    -3.08287733828e-06
 263    2.8938882260191e-06