[Molden Format]
made by pyscf v[2.0.1]
[Atoms] (AU)
O   1   8     0.00000000000000     0.00000000000000     9.80791491072852
H   2   1     0.00000000000000     0.00000000000000     7.98451308882755
H   3   1    -0.05031916615174     1.78353065140343    10.18378660719519
O   4   8     0.00000000000000     0.00000000000000     2.31533471513237
C   5   6     0.00000000000000     0.00000000000000     0.00000000000000
C   6   6     2.01118073026938    -1.40227222164369    -1.50774939176400
C   7   6    -2.01249334291722     1.41331050329955    -1.50315905028694
H   8   1     3.32037363730244    -2.26721897153159    -0.13599698591495
C   9   6     3.45899267434009     0.28739631745591    -3.37437943254505
H   10   1     1.07662969841332    -2.94725144642667    -2.56541439481080
H   11   1    -2.67503415753480     0.18421555839588    -3.06194479365997
H   12   1    -1.07974048864772     3.03851734677796    -2.43674295017013
C   13   6    -4.21607110578555     2.32938802552922     0.11994162256091
H   14   1     4.24440173074564     1.93368664142019    -2.34976285512790
H   15   1     2.15020713235517     1.04714335134846    -4.81494497423699
C   16   6     5.60746363007797    -1.12419643481196    -4.70268606082550
H   17   1    -3.46838323670267     3.50951302338067     1.66946842715333
H   18   1    -5.11873485366228     0.68575958301209     1.04047743976495
C   19   6    -6.18314754751344     3.80909592987882    -1.39656589068747
H   20   1     6.93011263717176    -1.87550812453645    -3.26656317360070
C   21   6     7.06356622236532     0.52877932406334    -6.57829775293605
H   22   1     4.82318879258361    -2.78573437948532    -5.70504560381835
H   23   1    -6.91582688743803     2.61304780074712    -2.95074552451969
H   24   1    -5.26532430573853     5.45420349051338    -2.31005832200284
C   25   6    -8.39941882261433     4.73263980500213     0.21800571437956
H   26   1     7.83338371486801     2.19084139882824    -5.57093109900697
H   27   1     5.73544244039420     1.27376866537418    -8.01071492370229
C   28   6     9.21124858443101    -0.89699110072176    -7.88926949186242
H   29   1    -7.66272760055236     5.92277078003992     1.77035591474408
H   30   1    -9.31497248082589     3.08753015622020     1.12614408368786
C   31   6   -10.35481709231879     6.21833079391143    -1.30905206253246
H   32   1    10.58815905329501    -1.61074586756696    -6.49512691622620
H   33   1    10.23506248045667     0.32468009384095    -9.23072870921204
H   34   1     8.47665842847139    -2.53598436989925    -8.94921964622535
H   35   1    -9.48948872868064     7.90013588951020    -2.18823918416067
H   36   1   -11.93332513000955     6.86460487874102    -0.11255798845995
H   37   1   -11.15126291841033     5.04495968327630    -2.83849898862534
[GTO]
1 0
 s    8 1.00
                 11720  0.00070964594651845
                  1759  0.0054672722921914
                 400.8   0.027823118610189
                 113.7    0.10474773971146
                 37.03    0.28292084635691
                 13.27    0.44849523869833
                 5.025    0.27081688521277
                 1.013    0.01545029160744
 s    8 1.00
                 11720  -0.00031444341168873
                  1759  -0.0024821376810179
                 400.8  -0.012316355381583
                 113.7  -0.050538917343672
                 37.03   -0.13938490331632
                 13.27   -0.32507749481778
                 5.025   -0.22984830758785
                 1.013     1.0953793467883
 s    1 1.00
                0.3023                   1
 p    3 1.00
                  17.7   0.062679166281506
                 3.854    0.33353656587936
                 1.046    0.74123964163973
 p    1 1.00
                0.2753                   1
 d    1 1.00
                 1.185                   1

2 0
 s    3 1.00
                 13.01   0.033498726389998
                 1.962    0.23480080117413
                0.4446     0.8136829578829
 s    1 1.00
                 0.122                   1
 p    1 1.00
                 0.727                   1

3 0
 s    3 1.00
                 13.01   0.033498726389998
                 1.962    0.23480080117413
                0.4446     0.8136829578829
 s    1 1.00
                 0.122                   1
 p    1 1.00
                 0.727                   1

4 0
 s    8 1.00
                 11720  0.00070964594651845
                  1759  0.0054672722921914
                 400.8   0.027823118610189
                 113.7    0.10474773971146
                 37.03    0.28292084635691
                 13.27    0.44849523869833
                 5.025    0.27081688521277
                 1.013    0.01545029160744
 s    8 1.00
                 11720  -0.00031444341168873
                  1759  -0.0024821376810179
                 400.8  -0.012316355381583
                 113.7  -0.050538917343672
                 37.03   -0.13938490331632
                 13.27   -0.32507749481778
                 5.025   -0.22984830758785
                 1.013     1.0953793467883
 s    1 1.00
                0.3023                   1
 p    3 1.00
                  17.7   0.062679166281506
                 3.854    0.33353656587936
                 1.046    0.74123964163973
 p    1 1.00
                0.2753                   1
 d    1 1.00
                 1.185                   1

5 0
 s    8 1.00
                  6665  0.00069158396281299
                  1000  0.0053257961529341
                   228   0.027060721042034
                 64.71    0.10165684614077
                 21.06     0.2745748236174
                 7.495    0.44829431892377
                 2.797    0.28490261071525
                0.5215   0.015194859206082
 s    8 1.00
                  6665  -0.00029326965268655
                  1000  -0.0023180354739745
                   228  -0.011499786038565
                 64.71  -0.046826727009787
                 21.06   -0.12846616875047
                 7.495   -0.30126627246289
                 2.797   -0.25563070233011
                0.5215      1.093793361012
 s    1 1.00
                0.1596                   1
 p    3 1.00
                 9.439   0.056979251590039
                 2.002    0.31320721150073
                0.5456    0.76037674173753
 p    1 1.00
                0.1517                   1
 d    1 1.00
                  0.55                   1

6 0
 s    8 1.00
                  6665  0.00069158396281299
                  1000  0.0053257961529341
                   228   0.027060721042034
                 64.71    0.10165684614077
                 21.06     0.2745748236174
                 7.495    0.44829431892377
                 2.797    0.28490261071525
                0.5215   0.015194859206082
 s    8 1.00
                  6665  -0.00029326965268655
                  1000  -0.0023180354739745
                   228  -0.011499786038565
                 64.71  -0.046826727009787
                 21.06   -0.12846616875047
                 7.495   -0.30126627246289
                 2.797   -0.25563070233011
                0.5215      1.093793361012
 s    1 1.00
                0.1596                   1
 p    3 1.00
                 9.439   0.056979251590039
                 2.002    0.31320721150073
                0.5456    0.76037674173753
 p    1 1.00
                0.1517                   1
 d    1 1.00
                  0.55                   1

7 0
 s    8 1.00
                  6665  0.00069158396281299
                  1000  0.0053257961529341
                   228   0.027060721042034
                 64.71    0.10165684614077
                 21.06     0.2745748236174
                 7.495    0.44829431892377
                 2.797    0.28490261071525
                0.5215   0.015194859206082
 s    8 1.00
                  6665  -0.00029326965268655
                  1000  -0.0023180354739745
                   228  -0.011499786038565
                 64.71  -0.046826727009787
                 21.06   -0.12846616875047
                 7.495   -0.30126627246289
                 2.797   -0.25563070233011
                0.5215      1.093793361012
 s    1 1.00
                0.1596                   1
 p    3 1.00
                 9.439   0.056979251590039
                 2.002    0.31320721150073
                0.5456    0.76037674173753
 p    1 1.00
                0.1517                   1
 d    1 1.00
                  0.55                   1

8 0
 s    3 1.00
                 13.01   0.033498726389998
                 1.962    0.23480080117413
                0.4446     0.8136829578829
 s    1 1.00
                 0.122                   1
 p    1 1.00
                 0.727                   1

9 0
 s    8 1.00
                  6665  0.00069158396281299
                  1000  0.0053257961529341
                   228   0.027060721042034
                 64.71    0.10165684614077
                 21.06     0.2745748236174
                 7.495    0.44829431892377
                 2.797    0.28490261071525
                0.5215   0.015194859206082
 s    8 1.00
                  6665  -0.00029326965268655
                  1000  -0.0023180354739745
                   228  -0.011499786038565
                 64.71  -0.046826727009787
                 21.06   -0.12846616875047
                 7.495   -0.30126627246289
                 2.797   -0.25563070233011
                0.5215      1.093793361012
 s    1 1.00
                0.1596                   1
 p    3 1.00
                 9.439   0.056979251590039
                 2.002    0.31320721150073
                0.5456    0.76037674173753
 p    1 1.00
                0.1517                   1
 d    1 1.00
                  0.55                   1

10 0
 s    3 1.00
                 13.01   0.033498726389998
                 1.962    0.23480080117413
                0.4446     0.8136829578829
 s    1 1.00
                 0.122                   1
 p    1 1.00
                 0.727                   1

11 0
 s    3 1.00
                 13.01   0.033498726389998
                 1.962    0.23480080117413
                0.4446     0.8136829578829
 s    1 1.00
                 0.122                   1
 p    1 1.00
                 0.727                   1

12 0
 s    3 1.00
                 13.01   0.033498726389998
                 1.962    0.23480080117413
                0.4446     0.8136829578829
 s    1 1.00
                 0.122                   1
 p    1 1.00
                 0.727                   1

13 0
 s    8 1.00
                  6665  0.00069158396281299
                  1000  0.0053257961529341
                   228   0.027060721042034
                 64.71    0.10165684614077
                 21.06     0.2745748236174
                 7.495    0.44829431892377
                 2.797    0.28490261071525
                0.5215   0.015194859206082
 s    8 1.00
                  6665  -0.00029326965268655
                  1000  -0.0023180354739745
                   228  -0.011499786038565
                 64.71  -0.046826727009787
                 21.06   -0.12846616875047
                 7.495   -0.30126627246289
                 2.797   -0.25563070233011
                0.5215      1.093793361012
 s    1 1.00
                0.1596                   1
 p    3 1.00
                 9.439   0.056979251590039
                 2.002    0.31320721150073
                0.5456    0.76037674173753
 p    1 1.00
                0.1517                   1
 d    1 1.00
                  0.55                   1

14 0
 s    3 1.00
                 13.01   0.033498726389998
                 1.962    0.23480080117413
                0.4446     0.8136829578829
 s    1 1.00
                 0.122                   1
 p    1 1.00
                 0.727                   1

15 0
 s    3 1.00
                 13.01   0.033498726389998
                 1.962    0.23480080117413
                0.4446     0.8136829578829
 s    1 1.00
                 0.122                   1
 p    1 1.00
                 0.727                   1

16 0
 s    8 1.00
                  6665  0.00069158396281299
                  1000  0.0053257961529341
                   228   0.027060721042034
                 64.71    0.10165684614077
                 21.06     0.2745748236174
                 7.495    0.44829431892377
                 2.797    0.28490261071525
                0.5215   0.015194859206082
 s    8 1.00
                  6665  -0.00029326965268655
                  1000  -0.0023180354739745
                   228  -0.011499786038565
                 64.71  -0.046826727009787
                 21.06   -0.12846616875047
                 7.495   -0.30126627246289
                 2.797   -0.25563070233011
                0.5215      1.093793361012
 s    1 1.00
                0.1596                   1
 p    3 1.00
                 9.439   0.056979251590039
                 2.002    0.31320721150073
                0.5456    0.76037674173753
 p    1 1.00
                0.1517                   1
 d    1 1.00
                  0.55                   1

17 0
 s    3 1.00
                 13.01   0.033498726389998
                 1.962    0.23480080117413
                0.4446     0.8136829578829
 s    1 1.00
                 0.122                   1
 p    1 1.00
                 0.727                   1

18 0
 s    3 1.00
                 13.01   0.033498726389998
                 1.962    0.23480080117413
                0.4446     0.8136829578829
 s    1 1.00
                 0.122                   1
 p    1 1.00
                 0.727                   1

19 0
 s    8 1.00
                  6665  0.00069158396281299
                  1000  0.0053257961529341
                   228   0.027060721042034
                 64.71    0.10165684614077
                 21.06     0.2745748236174
                 7.495    0.44829431892377
                 2.797    0.28490261071525
                0.5215   0.015194859206082
 s    8 1.00
                  6665  -0.00029326965268655
                  1000  -0.0023180354739745
                   228  -0.011499786038565
                 64.71  -0.046826727009787
                 21.06   -0.12846616875047
                 7.495   -0.30126627246289
                 2.797   -0.25563070233011
                0.5215      1.093793361012
 s    1 1.00
                0.1596                   1
 p    3 1.00
                 9.439   0.056979251590039
                 2.002    0.31320721150073
                0.5456    0.76037674173753
 p    1 1.00
                0.1517                   1
 d    1 1.00
                  0.55                   1

20 0
 s    3 1.00
                 13.01   0.033498726389998
                 1.962    0.23480080117413
                0.4446     0.8136829578829
 s    1 1.00
                 0.122                   1
 p    1 1.00
                 0.727                   1

21 0
 s    8 1.00
                  6665  0.00069158396281299
                  1000  0.0053257961529341
                   228   0.027060721042034
                 64.71    0.10165684614077
                 21.06     0.2745748236174
                 7.495    0.44829431892377
                 2.797    0.28490261071525
                0.5215   0.015194859206082
 s    8 1.00
                  6665  -0.00029326965268655
                  1000  -0.0023180354739745
                   228  -0.011499786038565
                 64.71  -0.046826727009787
                 21.06   -0.12846616875047
                 7.495   -0.30126627246289
                 2.797   -0.25563070233011
                0.5215      1.093793361012
 s    1 1.00
                0.1596                   1
 p    3 1.00
                 9.439   0.056979251590039
                 2.002    0.31320721150073
                0.5456    0.76037674173753
 p    1 1.00
                0.1517                   1
 d    1 1.00
                  0.55                   1

22 0
 s    3 1.00
                 13.01   0.033498726389998
                 1.962    0.23480080117413
                0.4446     0.8136829578829
 s    1 1.00
                 0.122                   1
 p    1 1.00
                 0.727                   1

23 0
 s    3 1.00
                 13.01   0.033498726389998
                 1.962    0.23480080117413
                0.4446     0.8136829578829
 s    1 1.00
                 0.122                   1
 p    1 1.00
                 0.727                   1

24 0
 s    3 1.00
                 13.01   0.033498726389998
                 1.962    0.23480080117413
                0.4446     0.8136829578829
 s    1 1.00
                 0.122                   1
 p    1 1.00
                 0.727                   1

25 0
 s    8 1.00
                  6665  0.00069158396281299
                  1000  0.0053257961529341
                   228   0.027060721042034
                 64.71    0.10165684614077
                 21.06     0.2745748236174
                 7.495    0.44829431892377
                 2.797    0.28490261071525
                0.5215   0.015194859206082
 s    8 1.00
                  6665  -0.00029326965268655
                  1000  -0.0023180354739745
                   228  -0.011499786038565
                 64.71  -0.046826727009787
                 21.06   -0.12846616875047
                 7.495   -0.30126627246289
                 2.797   -0.25563070233011
                0.5215      1.093793361012
 s    1 1.00
                0.1596                   1
 p    3 1.00
                 9.439   0.056979251590039
                 2.002    0.31320721150073
                0.5456    0.76037674173753
 p    1 1.00
                0.1517                   1
 d    1 1.00
                  0.55                   1

26 0
 s    3 1.00
                 13.01   0.033498726389998
                 1.962    0.23480080117413
                0.4446     0.8136829578829
 s    1 1.00
                 0.122                   1
 p    1 1.00
                 0.727                   1

27 0
 s    3 1.00
                 13.01   0.033498726389998
                 1.962    0.23480080117413
                0.4446     0.8136829578829
 s    1 1.00
                 0.122                   1
 p    1 1.00
                 0.727                   1

28 0
 s    8 1.00
                  6665  0.00069158396281299
                  1000  0.0053257961529341
                   228   0.027060721042034
                 64.71    0.10165684614077
                 21.06     0.2745748236174
                 7.495    0.44829431892377
                 2.797    0.28490261071525
                0.5215   0.015194859206082
 s    8 1.00
                  6665  -0.00029326965268655
                  1000  -0.0023180354739745
                   228  -0.011499786038565
                 64.71  -0.046826727009787
                 21.06   -0.12846616875047
                 7.495   -0.30126627246289
                 2.797   -0.25563070233011
                0.5215      1.093793361012
 s    1 1.00
                0.1596                   1
 p    3 1.00
                 9.439   0.056979251590039
                 2.002    0.31320721150073
                0.5456    0.76037674173753
 p    1 1.00
                0.1517                   1
 d    1 1.00
                  0.55                   1

29 0
 s    3 1.00
                 13.01   0.033498726389998
                 1.962    0.23480080117413
                0.4446     0.8136829578829
 s    1 1.00
                 0.122                   1
 p    1 1.00
                 0.727                   1

30 0
 s    3 1.00
                 13.01   0.033498726389998
                 1.962    0.23480080117413
                0.4446     0.8136829578829
 s    1 1.00
                 0.122                   1
 p    1 1.00
                 0.727                   1

31 0
 s    8 1.00
                  6665  0.00069158396281299
                  1000  0.0053257961529341
                   228   0.027060721042034
                 64.71    0.10165684614077
                 21.06     0.2745748236174
                 7.495    0.44829431892377
                 2.797    0.28490261071525
                0.5215   0.015194859206082
 s    8 1.00
                  6665  -0.00029326965268655
                  1000  -0.0023180354739745
                   228  -0.011499786038565
                 64.71  -0.046826727009787
                 21.06   -0.12846616875047
                 7.495   -0.30126627246289
                 2.797   -0.25563070233011
                0.5215      1.093793361012
 s    1 1.00
                0.1596                   1
 p    3 1.00
                 9.439   0.056979251590039
                 2.002    0.31320721150073
                0.5456    0.76037674173753
 p    1 1.00
                0.1517                   1
 d    1 1.00
                  0.55                   1

32 0
 s    3 1.00
                 13.01   0.033498726389998
                 1.962    0.23480080117413
                0.4446     0.8136829578829
 s    1 1.00
                 0.122                   1
 p    1 1.00
                 0.727                   1

33 0
 s    3 1.00
                 13.01   0.033498726389998
                 1.962    0.23480080117413
                0.4446     0.8136829578829
 s    1 1.00
                 0.122                   1
 p    1 1.00
                 0.727                   1

34 0
 s    3 1.00
                 13.01   0.033498726389998
                 1.962    0.23480080117413
                0.4446     0.8136829578829
 s    1 1.00
                 0.122                   1
 p    1 1.00
                 0.727                   1

35 0
 s    3 1.00
                 13.01   0.033498726389998
                 1.962    0.23480080117413
                0.4446     0.8136829578829
 s    1 1.00
                 0.122                   1
 p    1 1.00
                 0.727                   1

36 0
 s    3 1.00
                 13.01   0.033498726389998
                 1.962    0.23480080117413
                0.4446     0.8136829578829
 s    1 1.00
                 0.122                   1
 p    1 1.00
                 0.727                   1

37 0
 s    3 1.00
                 13.01   0.033498726389998
                 1.962    0.23480080117413
                0.4446     0.8136829578829
 s    1 1.00
                 0.122                   1
 p    1 1.00
                 0.727                   1

[5d]
[7f]
[9g]

[MO]
 Sym= A
 Ene=               0
 Spin= Alpha
 Occup=    1.00000
   1    6.3401922779058e-05
   2    3.5853042516557e-05
   3    -0.00011961000291761
   4    9.9753877921784e-08
   5    -4.7817985323207e-06
   6    -3.981392038783e-06
   7    -6.2012474266083e-07
   8    2.3267554208912e-05
   9    8.1761486879433e-05
  10    -1.2788429182808e-05
  11    -3.2909577067622e-10
  12    7.8441391526501e-07
  13    -4.058087716862e-07
  14    -1.8479520810392e-08
  15    1.5466283579159e-05
  16    0.00017367172979086
  17    9.6130289016079e-08
  18    -1.5036037234463e-06
  19    3.3103746894365e-05
  20    7.5092330379136e-06
  21    -6.4344942012466e-05
  22    -1.7679376013067e-07
  23    5.6718788138211e-06
  24    -2.561233903152e-06
  25      -1.0013658928058
  26    -0.0019581325381032
  27    0.0068251211419777
  28    1.4995923198034e-06
  29    -6.612823124327e-06
  30    0.0016508223005989
  31    1.3564086932164e-06
  32    1.5712672722908e-06
  33    -0.0018581559028347
  34    -0.00012340616695653
  35    2.9324629682359e-06
  36    -1.3755617493441e-06
  37    -6.7185924485513e-05
  38    0.00017472539957238
  39    -0.00027633229735093
  40    -0.00038665422739938
  41    -0.0014812860881167
  42    -7.9359816333795e-06
  43    3.9006874485534e-06
  44    9.0762669239605e-06
  45    -7.1715445526823e-05
  46    5.5709044064535e-05
  47    -0.0035704159528527
  48    0.00052940697932943
  49    9.3700015445971e-06
  50    -3.3982593917689e-06
  51    -2.9051715803782e-05
  52    0.00010733912444643
  53    8.2886904249154e-05
  54     0.000164774033272
  55    -0.0013617227192404
  56    -7.9982402611264e-05
  57    9.2588464478786e-06
  58    3.6614470131228e-05
  59    0.00041601824245124
  60    -0.00047110812894706
  61    0.00093770617933281
  62    0.00011770290333768
  63    -0.00015084298748623
  64    0.00014360018659584
  65    -5.463913508045e-05
  66    0.0001294191667908
  67    4.2570065484705e-05
  68    9.3959974609567e-05
  69    -0.00049431258762481
  70    7.4698838431357e-05
  71    -4.0869635015879e-05
  72    7.4383110426896e-05
  73    -0.0010087118618666
  74    0.00077828037764962
  75    0.00065504322708886
  76    0.0001537272783961
  77    0.00011085667894021
  78    -8.1982192618118e-05
  79    -6.333747930647e-05
  80    0.00015492790408034
  81    6.1506725432709e-05
  82    -0.00020928948104369
  83    -6.625553715636e-05
  84    4.867957878397e-05
  85    -4.8745470548589e-05
  86    -2.5339253083069e-05
  87    -4.8152784175582e-05
  88    0.0006001498237523
  89    1.6628929212084e-05
  90    1.661082131557e-05
  91    -1.2550910848494e-05
  92    -0.00025738633861284
  93    -0.00062994439365718
  94    1.9312404510012e-05
  95    -1.7854977760024e-05
  96    -1.1169481734062e-05
  97    -8.0125693907778e-06
  98    2.0685445627127e-05
  99    4.7292589650448e-05
 100    3.7148102482546e-05
 101    0.0001583201539404
 102    -8.5634451685941e-06
 103    9.8236987538629e-06
 104    -7.5131394008001e-05
 105    3.0953425635983e-05
 106    0.00023627398150859
 107    6.4060983576248e-05
 108    -1.0837000981382e-05
 109    -7.611869253596e-05
 110    -7.1364190231989e-05
 111    6.9506389942553e-05
 112    4.5533215760837e-05
 113    -1.9619859447924e-05
 114    -7.0749060552486e-05
 115    -0.00030509253687475
 116    0.00022674110446156
 117    -0.00079792013117208
 118    0.00019792905643011
 119    -1.2655305805542e-05
 120    0.00030636758280774
 121    -0.00022464514471476
 122    -3.3998858585056e-05
 123    0.00031025771882027
 124    1.1583949627749e-05
 125    -1.1428938924879e-05
 126    -1.594992628274e-06
 127    2.4585598981245e-05
 128    -3.0940388805303e-05
 129    1.7854038612677e-05
 130    0.00032249883097995
 131    -7.3855139905644e-06
 132    -5.8951520756579e-06
 133    -2.9361202995571e-05
 134    -2.6334897789673e-05
 135    0.00012210317298745
 136    1.3536144998202e-05
 137    2.4121940592798e-05
 138    2.6979355428933e-05
 139    2.1852011836323e-06
 140    1.6040001009967e-05
 141    -0.00029811223686595
 142    -8.7851355910549e-06
 143    2.5499829073811e-05
 144    4.1365040789811e-06
 145    0.00022650807152825
 146    -4.1145062168678e-05
 147    -6.0656076668772e-05
 148    2.1055953110321e-06
 149    -4.7549754200071e-06
 150    3.4324688546377e-06
 151    -1.1490218644399e-05
 152    4.8128377390925e-06
 153    0.00043716807279095
 154    0.0002311652640352
 155    1.7800418396218e-05
 156    -4.7658507251479e-05
 157    -3.6782273391469e-05
 158    0.00017156367481145
 159    0.00012942431150363
 160     7.11397809177e-05
 161    2.0278588960013e-05
 162    -4.3820514194221e-06
 163    8.3965651435417e-05
 164    8.4413577769095e-06
 165    0.00021509136799096
 166    -0.00012427142098489
 167    8.1553982321357e-05
 168    -0.00019767425773258
 169    -0.00030911898340248
 170    0.00026292373787162
 171    3.1767859081936e-05
 172    1.1147076556638e-05
 173    -8.3193415432878e-06
 174    2.0356165163976e-05
 175    -5.9508158088617e-06
 176    3.3387436224237e-05
 177    -5.2583696488736e-06
 178    -9.1600005622826e-05
 179      2.4063408645e-06
 180    -2.1571226779074e-06
 181    6.4253677058556e-06
 182    -1.8729765820977e-05
 183    -1.9541595794185e-05
 184    7.5973034253475e-05
 185    1.5319094744541e-05
 186    -6.2892320639793e-06
 187    -4.0169303446807e-07
 188    -0.00012264783898934
 189    9.9694044240462e-05
 190    8.802712599436e-05
 191    -1.314805366041e-06
 192    -2.8583256680035e-06
 193    9.0178498794464e-06
 194    3.4376271952031e-06
 195    4.585458153715e-06
 196    -1.2393613723174e-05
 197    1.1916659636821e-05
 198    -6.686090027676e-06
 199    -3.5618288968492e-06
 200    1.9502326734972e-06
 201    0.00015910754964256
 202    8.0276369837038e-05
 203    1.4563598453191e-05
 204    -1.0538233984168e-06
 205    -8.0959945371231e-06
 206    8.2428713643301e-05
 207    -2.786411347128e-05
 208    8.3796743590642e-06
 209    -9.1057424346186e-06
 210    -1.7729497553093e-05
 211    9.1876488204997e-06
 212    4.0705189890988e-05
 213    -0.0002659079754395
 214    -3.2381977973927e-06
 215    -5.778730959099e-06
 216    -1.7857087117743e-06
 217    -0.00018758079781412
 218    4.0004986482668e-05
 219    7.9499798922241e-05
 220    9.7538938150528e-06
 221    9.1205970518643e-06
 222    -2.3115933675571e-06
 223    -1.1173753835829e-05
 224    6.2074017909163e-06
 225    -1.8579515545802e-05
 226    -5.3270212877528e-05
 227    1.2300793989989e-05
 228    1.1799452823492e-06
 229    8.0151181423562e-07
 230    -1.7231609785362e-05
 231    -6.0990949566875e-05
 232    3.9110651978367e-06
 233    -6.214363153862e-06
 234    -1.2212404076081e-05
 235    -5.3716947168198e-06
 236    3.3843225479501e-06
 237    8.2692442631388e-05
 238    -1.1847309435661e-05
 239    1.1034625211114e-06
 240    6.3519513194093e-06
 241    -4.0498988910915e-05
 242    6.3832884210678e-05
 243    -1.6542969048227e-05
 244    -1.8248488478105e-06
 245    -2.5934409380475e-06
 246    2.6786883473142e-06
 247    -1.9045102996947e-07
 248    -1.1368014899629e-06
 249    2.5804387621586e-05
 250    4.5171013915123e-06
 251    5.1631344671044e-06
 252    4.055407071764e-07
 253    5.4693686181663e-08
 254    2.9290572161147e-05
 255    -4.644342048501e-05
 256    3.7459620758636e-07
 257    -3.990668049425e-06
 258    5.9111741723517e-07
 259    3.2706134534682e-06
 260    5.0148933151815e-06
 261    -9.7596258543899e-05
 262    -1.169911360851e-05
 263    1.0705697982813e-05