[Molden Format]
made by pyscf v[2.0.1]
[Atoms] (AU)
O   1   8     0.00000000000000     0.00000000000000     9.05202446090250
H   2   1     0.00000000000000     0.00000000000000     7.22862263900153
H   3   1    -0.05031916615174     1.78353065140343     9.42789615736916
O   4   8     0.00000000000000     0.00000000000000     2.31533471513237
C   5   6     0.00000000000000     0.00000000000000     0.00000000000000
C   6   6     2.01118073026938    -1.40227222164369    -1.50774939176400
C   7   6    -2.01249334291722     1.41331050329955    -1.50315905028694
H   8   1     3.32037363730244    -2.26721897153159    -0.13599698591495
C   9   6     3.45899267434009     0.28739631745591    -3.37437943254505
H   10   1     1.07662969841332    -2.94725144642667    -2.56541439481080
H   11   1    -2.67503415753480     0.18421555839588    -3.06194479365997
H   12   1    -1.07974048864772     3.03851734677796    -2.43674295017013
C   13   6    -4.21607110578555     2.32938802552922     0.11994162256091
H   14   1     4.24440173074564     1.93368664142019    -2.34976285512790
H   15   1     2.15020713235517     1.04714335134846    -4.81494497423699
C   16   6     5.60746363007797    -1.12419643481196    -4.70268606082550
H   17   1    -3.46838323670267     3.50951302338067     1.66946842715333
H   18   1    -5.11873485366228     0.68575958301209     1.04047743976495
C   19   6    -6.18314754751344     3.80909592987882    -1.39656589068747
H   20   1     6.93011263717176    -1.87550812453645    -3.26656317360070
C   21   6     7.06356622236532     0.52877932406334    -6.57829775293605
H   22   1     4.82318879258361    -2.78573437948532    -5.70504560381835
H   23   1    -6.91582688743803     2.61304780074712    -2.95074552451969
H   24   1    -5.26532430573853     5.45420349051338    -2.31005832200284
C   25   6    -8.39941882261433     4.73263980500213     0.21800571437956
H   26   1     7.83338371486801     2.19084139882824    -5.57093109900697
H   27   1     5.73544244039420     1.27376866537418    -8.01071492370229
C   28   6     9.21124858443101    -0.89699110072176    -7.88926949186242
H   29   1    -7.66272760055236     5.92277078003992     1.77035591474408
H   30   1    -9.31497248082589     3.08753015622020     1.12614408368786
C   31   6   -10.35481709231879     6.21833079391143    -1.30905206253246
H   32   1    10.58815905329501    -1.61074586756696    -6.49512691622620
H   33   1    10.23506248045667     0.32468009384095    -9.23072870921204
H   34   1     8.47665842847139    -2.53598436989925    -8.94921964622535
H   35   1    -9.48948872868064     7.90013588951020    -2.18823918416067
H   36   1   -11.93332513000955     6.86460487874102    -0.11255798845995
H   37   1   -11.15126291841033     5.04495968327630    -2.83849898862534
[GTO]
1 0
 s    8 1.00
                 11720  0.00070964594651845
                  1759  0.0054672722921914
                 400.8   0.027823118610189
                 113.7    0.10474773971146
                 37.03    0.28292084635691
                 13.27    0.44849523869833
                 5.025    0.27081688521277
                 1.013    0.01545029160744
 s    8 1.00
                 11720  -0.00031444341168873
                  1759  -0.0024821376810179
                 400.8  -0.012316355381583
                 113.7  -0.050538917343672
                 37.03   -0.13938490331632
                 13.27   -0.32507749481778
                 5.025   -0.22984830758785
                 1.013     1.0953793467883
 s    1 1.00
                0.3023                   1
 p    3 1.00
                  17.7   0.062679166281506
                 3.854    0.33353656587936
                 1.046    0.74123964163973
 p    1 1.00
                0.2753                   1
 d    1 1.00
                 1.185                   1

2 0
 s    3 1.00
                 13.01   0.033498726389998
                 1.962    0.23480080117413
                0.4446     0.8136829578829
 s    1 1.00
                 0.122                   1
 p    1 1.00
                 0.727                   1

3 0
 s    3 1.00
                 13.01   0.033498726389998
                 1.962    0.23480080117413
                0.4446     0.8136829578829
 s    1 1.00
                 0.122                   1
 p    1 1.00
                 0.727                   1

4 0
 s    8 1.00
                 11720  0.00070964594651845
                  1759  0.0054672722921914
                 400.8   0.027823118610189
                 113.7    0.10474773971146
                 37.03    0.28292084635691
                 13.27    0.44849523869833
                 5.025    0.27081688521277
                 1.013    0.01545029160744
 s    8 1.00
                 11720  -0.00031444341168873
                  1759  -0.0024821376810179
                 400.8  -0.012316355381583
                 113.7  -0.050538917343672
                 37.03   -0.13938490331632
                 13.27   -0.32507749481778
                 5.025   -0.22984830758785
                 1.013     1.0953793467883
 s    1 1.00
                0.3023                   1
 p    3 1.00
                  17.7   0.062679166281506
                 3.854    0.33353656587936
                 1.046    0.74123964163973
 p    1 1.00
                0.2753                   1
 d    1 1.00
                 1.185                   1

5 0
 s    8 1.00
                  6665  0.00069158396281299
                  1000  0.0053257961529341
                   228   0.027060721042034
                 64.71    0.10165684614077
                 21.06     0.2745748236174
                 7.495    0.44829431892377
                 2.797    0.28490261071525
                0.5215   0.015194859206082
 s    8 1.00
                  6665  -0.00029326965268655
                  1000  -0.0023180354739745
                   228  -0.011499786038565
                 64.71  -0.046826727009787
                 21.06   -0.12846616875047
                 7.495   -0.30126627246289
                 2.797   -0.25563070233011
                0.5215      1.093793361012
 s    1 1.00
                0.1596                   1
 p    3 1.00
                 9.439   0.056979251590039
                 2.002    0.31320721150073
                0.5456    0.76037674173753
 p    1 1.00
                0.1517                   1
 d    1 1.00
                  0.55                   1

6 0
 s    8 1.00
                  6665  0.00069158396281299
                  1000  0.0053257961529341
                   228   0.027060721042034
                 64.71    0.10165684614077
                 21.06     0.2745748236174
                 7.495    0.44829431892377
                 2.797    0.28490261071525
                0.5215   0.015194859206082
 s    8 1.00
                  6665  -0.00029326965268655
                  1000  -0.0023180354739745
                   228  -0.011499786038565
                 64.71  -0.046826727009787
                 21.06   -0.12846616875047
                 7.495   -0.30126627246289
                 2.797   -0.25563070233011
                0.5215      1.093793361012
 s    1 1.00
                0.1596                   1
 p    3 1.00
                 9.439   0.056979251590039
                 2.002    0.31320721150073
                0.5456    0.76037674173753
 p    1 1.00
                0.1517                   1
 d    1 1.00
                  0.55                   1

7 0
 s    8 1.00
                  6665  0.00069158396281299
                  1000  0.0053257961529341
                   228   0.027060721042034
                 64.71    0.10165684614077
                 21.06     0.2745748236174
                 7.495    0.44829431892377
                 2.797    0.28490261071525
                0.5215   0.015194859206082
 s    8 1.00
                  6665  -0.00029326965268655
                  1000  -0.0023180354739745
                   228  -0.011499786038565
                 64.71  -0.046826727009787
                 21.06   -0.12846616875047
                 7.495   -0.30126627246289
                 2.797   -0.25563070233011
                0.5215      1.093793361012
 s    1 1.00
                0.1596                   1
 p    3 1.00
                 9.439   0.056979251590039
                 2.002    0.31320721150073
                0.5456    0.76037674173753
 p    1 1.00
                0.1517                   1
 d    1 1.00
                  0.55                   1

8 0
 s    3 1.00
                 13.01   0.033498726389998
                 1.962    0.23480080117413
                0.4446     0.8136829578829
 s    1 1.00
                 0.122                   1
 p    1 1.00
                 0.727                   1

9 0
 s    8 1.00
                  6665  0.00069158396281299
                  1000  0.0053257961529341
                   228   0.027060721042034
                 64.71    0.10165684614077
                 21.06     0.2745748236174
                 7.495    0.44829431892377
                 2.797    0.28490261071525
                0.5215   0.015194859206082
 s    8 1.00
                  6665  -0.00029326965268655
                  1000  -0.0023180354739745
                   228  -0.011499786038565
                 64.71  -0.046826727009787
                 21.06   -0.12846616875047
                 7.495   -0.30126627246289
                 2.797   -0.25563070233011
                0.5215      1.093793361012
 s    1 1.00
                0.1596                   1
 p    3 1.00
                 9.439   0.056979251590039
                 2.002    0.31320721150073
                0.5456    0.76037674173753
 p    1 1.00
                0.1517                   1
 d    1 1.00
                  0.55                   1

10 0
 s    3 1.00
                 13.01   0.033498726389998
                 1.962    0.23480080117413
                0.4446     0.8136829578829
 s    1 1.00
                 0.122                   1
 p    1 1.00
                 0.727                   1

11 0
 s    3 1.00
                 13.01   0.033498726389998
                 1.962    0.23480080117413
                0.4446     0.8136829578829
 s    1 1.00
                 0.122                   1
 p    1 1.00
                 0.727                   1

12 0
 s    3 1.00
                 13.01   0.033498726389998
                 1.962    0.23480080117413
                0.4446     0.8136829578829
 s    1 1.00
                 0.122                   1
 p    1 1.00
                 0.727                   1

13 0
 s    8 1.00
                  6665  0.00069158396281299
                  1000  0.0053257961529341
                   228   0.027060721042034
                 64.71    0.10165684614077
                 21.06     0.2745748236174
                 7.495    0.44829431892377
                 2.797    0.28490261071525
                0.5215   0.015194859206082
 s    8 1.00
                  6665  -0.00029326965268655
                  1000  -0.0023180354739745
                   228  -0.011499786038565
                 64.71  -0.046826727009787
                 21.06   -0.12846616875047
                 7.495   -0.30126627246289
                 2.797   -0.25563070233011
                0.5215      1.093793361012
 s    1 1.00
                0.1596                   1
 p    3 1.00
                 9.439   0.056979251590039
                 2.002    0.31320721150073
                0.5456    0.76037674173753
 p    1 1.00
                0.1517                   1
 d    1 1.00
                  0.55                   1

14 0
 s    3 1.00
                 13.01   0.033498726389998
                 1.962    0.23480080117413
                0.4446     0.8136829578829
 s    1 1.00
                 0.122                   1
 p    1 1.00
                 0.727                   1

15 0
 s    3 1.00
                 13.01   0.033498726389998
                 1.962    0.23480080117413
                0.4446     0.8136829578829
 s    1 1.00
                 0.122                   1
 p    1 1.00
                 0.727                   1

16 0
 s    8 1.00
                  6665  0.00069158396281299
                  1000  0.0053257961529341
                   228   0.027060721042034
                 64.71    0.10165684614077
                 21.06     0.2745748236174
                 7.495    0.44829431892377
                 2.797    0.28490261071525
                0.5215   0.015194859206082
 s    8 1.00
                  6665  -0.00029326965268655
                  1000  -0.0023180354739745
                   228  -0.011499786038565
                 64.71  -0.046826727009787
                 21.06   -0.12846616875047
                 7.495   -0.30126627246289
                 2.797   -0.25563070233011
                0.5215      1.093793361012
 s    1 1.00
                0.1596                   1
 p    3 1.00
                 9.439   0.056979251590039
                 2.002    0.31320721150073
                0.5456    0.76037674173753
 p    1 1.00
                0.1517                   1
 d    1 1.00
                  0.55                   1

17 0
 s    3 1.00
                 13.01   0.033498726389998
                 1.962    0.23480080117413
                0.4446     0.8136829578829
 s    1 1.00
                 0.122                   1
 p    1 1.00
                 0.727                   1

18 0
 s    3 1.00
                 13.01   0.033498726389998
                 1.962    0.23480080117413
                0.4446     0.8136829578829
 s    1 1.00
                 0.122                   1
 p    1 1.00
                 0.727                   1

19 0
 s    8 1.00
                  6665  0.00069158396281299
                  1000  0.0053257961529341
                   228   0.027060721042034
                 64.71    0.10165684614077
                 21.06     0.2745748236174
                 7.495    0.44829431892377
                 2.797    0.28490261071525
                0.5215   0.015194859206082
 s    8 1.00
                  6665  -0.00029326965268655
                  1000  -0.0023180354739745
                   228  -0.011499786038565
                 64.71  -0.046826727009787
                 21.06   -0.12846616875047
                 7.495   -0.30126627246289
                 2.797   -0.25563070233011
                0.5215      1.093793361012
 s    1 1.00
                0.1596                   1
 p    3 1.00
                 9.439   0.056979251590039
                 2.002    0.31320721150073
                0.5456    0.76037674173753
 p    1 1.00
                0.1517                   1
 d    1 1.00
                  0.55                   1

20 0
 s    3 1.00
                 13.01   0.033498726389998
                 1.962    0.23480080117413
                0.4446     0.8136829578829
 s    1 1.00
                 0.122                   1
 p    1 1.00
                 0.727                   1

21 0
 s    8 1.00
                  6665  0.00069158396281299
                  1000  0.0053257961529341
                   228   0.027060721042034
                 64.71    0.10165684614077
                 21.06     0.2745748236174
                 7.495    0.44829431892377
                 2.797    0.28490261071525
                0.5215   0.015194859206082
 s    8 1.00
                  6665  -0.00029326965268655
                  1000  -0.0023180354739745
                   228  -0.011499786038565
                 64.71  -0.046826727009787
                 21.06   -0.12846616875047
                 7.495   -0.30126627246289
                 2.797   -0.25563070233011
                0.5215      1.093793361012
 s    1 1.00
                0.1596                   1
 p    3 1.00
                 9.439   0.056979251590039
                 2.002    0.31320721150073
                0.5456    0.76037674173753
 p    1 1.00
                0.1517                   1
 d    1 1.00
                  0.55                   1

22 0
 s    3 1.00
                 13.01   0.033498726389998
                 1.962    0.23480080117413
                0.4446     0.8136829578829
 s    1 1.00
                 0.122                   1
 p    1 1.00
                 0.727                   1

23 0
 s    3 1.00
                 13.01   0.033498726389998
                 1.962    0.23480080117413
                0.4446     0.8136829578829
 s    1 1.00
                 0.122                   1
 p    1 1.00
                 0.727                   1

24 0
 s    3 1.00
                 13.01   0.033498726389998
                 1.962    0.23480080117413
                0.4446     0.8136829578829
 s    1 1.00
                 0.122                   1
 p    1 1.00
                 0.727                   1

25 0
 s    8 1.00
                  6665  0.00069158396281299
                  1000  0.0053257961529341
                   228   0.027060721042034
                 64.71    0.10165684614077
                 21.06     0.2745748236174
                 7.495    0.44829431892377
                 2.797    0.28490261071525
                0.5215   0.015194859206082
 s    8 1.00
                  6665  -0.00029326965268655
                  1000  -0.0023180354739745
                   228  -0.011499786038565
                 64.71  -0.046826727009787
                 21.06   -0.12846616875047
                 7.495   -0.30126627246289
                 2.797   -0.25563070233011
                0.5215      1.093793361012
 s    1 1.00
                0.1596                   1
 p    3 1.00
                 9.439   0.056979251590039
                 2.002    0.31320721150073
                0.5456    0.76037674173753
 p    1 1.00
                0.1517                   1
 d    1 1.00
                  0.55                   1

26 0
 s    3 1.00
                 13.01   0.033498726389998
                 1.962    0.23480080117413
                0.4446     0.8136829578829
 s    1 1.00
                 0.122                   1
 p    1 1.00
                 0.727                   1

27 0
 s    3 1.00
                 13.01   0.033498726389998
                 1.962    0.23480080117413
                0.4446     0.8136829578829
 s    1 1.00
                 0.122                   1
 p    1 1.00
                 0.727                   1

28 0
 s    8 1.00
                  6665  0.00069158396281299
                  1000  0.0053257961529341
                   228   0.027060721042034
                 64.71    0.10165684614077
                 21.06     0.2745748236174
                 7.495    0.44829431892377
                 2.797    0.28490261071525
                0.5215   0.015194859206082
 s    8 1.00
                  6665  -0.00029326965268655
                  1000  -0.0023180354739745
                   228  -0.011499786038565
                 64.71  -0.046826727009787
                 21.06   -0.12846616875047
                 7.495   -0.30126627246289
                 2.797   -0.25563070233011
                0.5215      1.093793361012
 s    1 1.00
                0.1596                   1
 p    3 1.00
                 9.439   0.056979251590039
                 2.002    0.31320721150073
                0.5456    0.76037674173753
 p    1 1.00
                0.1517                   1
 d    1 1.00
                  0.55                   1

29 0
 s    3 1.00
                 13.01   0.033498726389998
                 1.962    0.23480080117413
                0.4446     0.8136829578829
 s    1 1.00
                 0.122                   1
 p    1 1.00
                 0.727                   1

30 0
 s    3 1.00
                 13.01   0.033498726389998
                 1.962    0.23480080117413
                0.4446     0.8136829578829
 s    1 1.00
                 0.122                   1
 p    1 1.00
                 0.727                   1

31 0
 s    8 1.00
                  6665  0.00069158396281299
                  1000  0.0053257961529341
                   228   0.027060721042034
                 64.71    0.10165684614077
                 21.06     0.2745748236174
                 7.495    0.44829431892377
                 2.797    0.28490261071525
                0.5215   0.015194859206082
 s    8 1.00
                  6665  -0.00029326965268655
                  1000  -0.0023180354739745
                   228  -0.011499786038565
                 64.71  -0.046826727009787
                 21.06   -0.12846616875047
                 7.495   -0.30126627246289
                 2.797   -0.25563070233011
                0.5215      1.093793361012
 s    1 1.00
                0.1596                   1
 p    3 1.00
                 9.439   0.056979251590039
                 2.002    0.31320721150073
                0.5456    0.76037674173753
 p    1 1.00
                0.1517                   1
 d    1 1.00
                  0.55                   1

32 0
 s    3 1.00
                 13.01   0.033498726389998
                 1.962    0.23480080117413
                0.4446     0.8136829578829
 s    1 1.00
                 0.122                   1
 p    1 1.00
                 0.727                   1

33 0
 s    3 1.00
                 13.01   0.033498726389998
                 1.962    0.23480080117413
                0.4446     0.8136829578829
 s    1 1.00
                 0.122                   1
 p    1 1.00
                 0.727                   1

34 0
 s    3 1.00
                 13.01   0.033498726389998
                 1.962    0.23480080117413
                0.4446     0.8136829578829
 s    1 1.00
                 0.122                   1
 p    1 1.00
                 0.727                   1

35 0
 s    3 1.00
                 13.01   0.033498726389998
                 1.962    0.23480080117413
                0.4446     0.8136829578829
 s    1 1.00
                 0.122                   1
 p    1 1.00
                 0.727                   1

36 0
 s    3 1.00
                 13.01   0.033498726389998
                 1.962    0.23480080117413
                0.4446     0.8136829578829
 s    1 1.00
                 0.122                   1
 p    1 1.00
                 0.727                   1

37 0
 s    3 1.00
                 13.01   0.033498726389998
                 1.962    0.23480080117413
                0.4446     0.8136829578829
 s    1 1.00
                 0.122                   1
 p    1 1.00
                 0.727                   1

[5d]
[7f]
[9g]

[MO]
 Sym= A
 Ene=               0
 Spin= Alpha
 Occup=    1.00000
   1    9.2294020900684e-05
   2    4.9609447108139e-05
   3    -0.00013509710507318
   4     6.74121057814e-08
   5    -5.8828234096928e-06
   6    -1.278349086038e-05
   7    -6.0933124232739e-07
   8    2.5905891657657e-05
   9    8.2579474714776e-05
  10    -7.8048715109994e-06
  11    5.1441725642453e-08
  12    2.1532106565088e-07
  13    -3.6212538340766e-07
  14    -9.3675206072949e-09
  15    1.7379574963354e-05
  16    0.00020898509890597
  17    2.1549865101602e-07
  18    -1.9301497647595e-06
  19    4.3178982902772e-06
  20    7.4305386884542e-06
  21    -6.9532661684692e-05
  22    -1.5836208827051e-07
  23    3.9500643341823e-06
  24    -1.4980491648714e-06
  25      -1.0013729039627
  26    -0.0019737569835161
  27     0.006887412700749
  28    1.6762583544831e-06
  29    -7.6903407409583e-06
  30      0.00164410710081
  31    1.3553894938644e-06
  32    2.2096837147112e-06
  33    -0.001908357207039
  34    -0.00011669089057264
  35    2.8615040984312e-06
  36    -1.4431691344999e-06
  37    -6.6786841167528e-05
  38    0.00017363597790574
  39    -0.00028259450463217
  40    -0.00040012161503199
  41    -0.0015294286384186
  42    -8.2210710467473e-06
  43    3.8506213122049e-06
  44    -4.0744582928633e-06
  45    -7.2301086346708e-05
  46    5.6826548215595e-05
  47    -0.0036201785522705
  48    0.00051770148308593
  49    9.2892153017695e-06
  50    -3.4996741883284e-06
  51    -2.9573854212175e-05
  52    0.00010867522704874
  53    8.262347866523e-05
  54    0.00016430295054112
  55    -0.0013689435531365
  56    -8.019602948914e-05
  57    9.1812509929821e-06
  58    3.5910016896759e-05
  59    0.00041784606705027
  60    -0.00047351093518209
  61    0.00095657383856879
  62    0.00011706506435646
  63    -0.00015067745008676
  64    0.00014377469477819
  65    -5.4275052750371e-05
  66    0.00012817895531557
  67    4.1994831006521e-05
  68    9.2766874427629e-05
  69    -0.00049861522341706
  70    7.532751069207e-05
  71    -4.1398401587034e-05
  72    7.4135317184882e-05
  73    -0.0010152644064515
  74    0.00078286577695402
  75    0.00066466495973164
  76    0.00015317313337903
  77    0.00011098889080934
  78    -8.1966881301359e-05
  79    -6.3079269412777e-05
  80    0.00015411401306267
  81    5.9368341981321e-05
  82    -0.00021328845639954
  83    -6.6628236295766e-05
  84    4.8952715715026e-05
  85    -4.8047266907842e-05
  86    -2.5366113460446e-05
  87    -4.818800947692e-05
  88    0.00060739888690545
  89    1.6540067385951e-05
  90    1.6676630704206e-05
  91    -1.2207198851551e-05
  92     -0.00025972405391
  93    -0.00063949799736228
  94    1.6495940839826e-05
  95    -1.8214353258704e-05
  96    -1.1327215946417e-05
  97    -8.3328917851673e-06
  98    2.0245848895339e-05
  99    4.8345593974828e-05
 100    3.8622077891063e-05
 101    0.00016109737296842
 102    -7.5376260166998e-06
 103    1.0178974320405e-05
 104    -7.6210448681141e-05
 105    3.1751294539634e-05
 106    0.00023900655167564
 107    6.3869828366073e-05
 108    -9.7174578573556e-06
 109    -7.678006672881e-05
 110    -7.1534685647446e-05
 111    7.2416610537433e-05
 112    4.5031122863299e-05
 113    -2.0255989405787e-05
 114    -7.1446858946535e-05
 115    -0.00030532549813963
 116    0.00022754267547372
 117    -0.00080087098197698
 118    0.00019844618275158
 119    -1.2819759872181e-05
 120    0.00031014202968505
 121    -0.00021920953189653
 122    -3.7376710714432e-05
 123    0.00031926297092724
 124    1.1481814105507e-05
 125    -1.0849307922989e-05
 126    -1.1373890363959e-06
 127    2.4552315540478e-05
 128    -3.1155565274091e-05
 129     1.82652547105e-05
 130    0.00032811482980553
 131    -7.6021587162803e-06
 132    -5.9515134902619e-06
 133    -2.9538270342793e-05
 134    -2.6292285199904e-05
 135    0.00012160327131637
 136    1.3655569232115e-05
 137    2.4569425341301e-05
 138    2.7319261051715e-05
 139    2.6046921208337e-06
 140    1.6669300404272e-05
 141    -0.00030481094291851
 142    -8.6450800861696e-06
 143    2.5763395594875e-05
 144    4.0558138800986e-06
 145    0.00022750279601462
 146    -4.3773086486318e-05
 147    -5.9070056790877e-05
 148    2.1836113583749e-06
 149    -4.8428245721254e-06
 150    3.7968685474823e-06
 151    -1.1770482773649e-05
 152    4.7618891140605e-06
 153    0.00044095871425163
 154    0.00022631935279866
 155    1.8077347036134e-05
 156    -4.7189320747984e-05
 157    -3.6451415069472e-05
 158    0.0001740172908871
 159    0.0001285709245881
 160    7.115190649954e-05
 161    2.0535786512991e-05
 162    -4.6149311400551e-06
 163    8.266620767273e-05
 164    6.4923578206011e-06
 165    0.00022300286270199
 166    -0.00012500050329796
 167    8.2193534673123e-05
 168    -0.00019856365228383
 169    -0.00030803645899991
 170    0.0002617579278147
 171    3.4455623648338e-05
 172    1.1056528212324e-05
 173    -8.2849659912422e-06
 174    2.0333523722467e-05
 175    -5.9347355123107e-06
 176    3.3347970691897e-05
 177    -5.0564207898057e-06
 178    -9.2667399062267e-05
 179    2.548935550487e-06
 180    -2.0362531833701e-06
 181    6.3274941421849e-06
 182    -1.9100385818822e-05
 183    -2.0155679548014e-05
 184    8.0423717908776e-05
 185    1.5156099734981e-05
 186    -6.4464524422559e-06
 187    -2.5054698445926e-07
 188    -0.00012437340060608
 189    9.9604583496551e-05
 190    9.0300888183397e-05
 191    -1.2909530949657e-06
 192    -2.9786615557116e-06
 193    8.9840820734161e-06
 194    3.4205665505799e-06
 195    4.7843883861337e-06
 196    -1.2625816467937e-05
 197    1.2248856752583e-05
 198    -6.6966881125525e-06
 199    -3.5491203654629e-06
 200    1.8210742357051e-06
 201    0.00015907266553186
 202    8.1288787576518e-05
 203    1.4699567471055e-05
 204    -9.7224100576868e-07
 205    -8.1266993772364e-06
 206    8.2302923773913e-05
 207    -2.7663223173628e-05
 208    8.3105433062152e-06
 209    -9.0673737906675e-06
 210    -1.788584499642e-05
 211    9.1459295093861e-06
 212    4.0813938268731e-05
 213    -0.00027095100788897
 214    -3.6157660936122e-06
 215    -5.6548382826049e-06
 216    -1.8761682720816e-06
 217    -0.00018686006768032
 218    3.9299340379668e-05
 219    8.0563758870819e-05
 220    9.8249573905061e-06
 221    9.0542469880165e-06
 222    -2.310237901658e-06
 223    -1.1239201030034e-05
 224    6.2839280613051e-06
 225    -1.9039014651994e-05
 226    -5.4147383474861e-05
 227    1.2423349261762e-05
 228    1.2677511020554e-06
 229    7.9824089444362e-07
 230    -1.7433749888602e-05
 231    -6.1047569310577e-05
 232    3.960342246773e-06
 233    -6.2847883023825e-06
 234    -1.2289017065807e-05
 235    -5.3941569917537e-06
 236    3.284371430868e-06
 237    8.3053469485945e-05
 238    -1.1774494126106e-05
 239    1.0610890109769e-06
 240    6.3097334927686e-06
 241    -4.0891805658033e-05
 242    6.4290483946888e-05
 243    -1.6755435169211e-05
 244    -1.8546365505254e-06
 245    -2.6289953676178e-06
 246    2.6654061863292e-06
 247    -1.8377170015622e-07
 248    -1.132403146777e-06
 249    2.5563664701128e-05
 250    5.648494113964e-06
 251    5.1023328913779e-06
 252    3.7418305302734e-07
 253    -6.0155724581182e-08
 254    2.9335765435663e-05
 255    -4.6340167931649e-05
 256    2.4565399657368e-07
 257    -3.9469750439655e-06
 258    5.4475381498377e-07
 259    3.218198078328e-06
 260    4.7284144500018e-06
 261    -9.4679107396927e-05
 262    -1.1711067910512e-05
 263    1.0697666932306e-05