[Molden Format]
made by pyscf v[2.0.1]
[Atoms] (AU)
O   1   8     0.00000000000000     0.00000000000000     9.42996968581551
H   2   1     0.00000000000000     0.00000000000000     7.60656786391454
H   3   1    -0.05031916615174     1.78353065140343     9.80584138228218
O   4   8     0.00000000000000     0.00000000000000     2.31533471513237
C   5   6     0.00000000000000     0.00000000000000     0.00000000000000
C   6   6     2.01118073026938    -1.40227222164369    -1.50774939176400
C   7   6    -2.01249334291722     1.41331050329955    -1.50315905028694
H   8   1     3.32037363730244    -2.26721897153159    -0.13599698591495
C   9   6     3.45899267434009     0.28739631745591    -3.37437943254505
H   10   1     1.07662969841332    -2.94725144642667    -2.56541439481080
H   11   1    -2.67503415753480     0.18421555839588    -3.06194479365997
H   12   1    -1.07974048864772     3.03851734677796    -2.43674295017013
C   13   6    -4.21607110578555     2.32938802552922     0.11994162256091
H   14   1     4.24440173074564     1.93368664142019    -2.34976285512790
H   15   1     2.15020713235517     1.04714335134846    -4.81494497423699
C   16   6     5.60746363007797    -1.12419643481196    -4.70268606082550
H   17   1    -3.46838323670267     3.50951302338067     1.66946842715333
H   18   1    -5.11873485366228     0.68575958301209     1.04047743976495
C   19   6    -6.18314754751344     3.80909592987882    -1.39656589068747
H   20   1     6.93011263717176    -1.87550812453645    -3.26656317360070
C   21   6     7.06356622236532     0.52877932406334    -6.57829775293605
H   22   1     4.82318879258361    -2.78573437948532    -5.70504560381835
H   23   1    -6.91582688743803     2.61304780074712    -2.95074552451969
H   24   1    -5.26532430573853     5.45420349051338    -2.31005832200284
C   25   6    -8.39941882261433     4.73263980500213     0.21800571437956
H   26   1     7.83338371486801     2.19084139882824    -5.57093109900697
H   27   1     5.73544244039420     1.27376866537418    -8.01071492370229
C   28   6     9.21124858443101    -0.89699110072176    -7.88926949186242
H   29   1    -7.66272760055236     5.92277078003992     1.77035591474408
H   30   1    -9.31497248082589     3.08753015622020     1.12614408368786
C   31   6   -10.35481709231879     6.21833079391143    -1.30905206253246
H   32   1    10.58815905329501    -1.61074586756696    -6.49512691622620
H   33   1    10.23506248045667     0.32468009384095    -9.23072870921204
H   34   1     8.47665842847139    -2.53598436989925    -8.94921964622535
H   35   1    -9.48948872868064     7.90013588951020    -2.18823918416067
H   36   1   -11.93332513000955     6.86460487874102    -0.11255798845995
H   37   1   -11.15126291841033     5.04495968327630    -2.83849898862534
[GTO]
1 0
 s    8 1.00
                 11720  0.00070964594651845
                  1759  0.0054672722921914
                 400.8   0.027823118610189
                 113.7    0.10474773971146
                 37.03    0.28292084635691
                 13.27    0.44849523869833
                 5.025    0.27081688521277
                 1.013    0.01545029160744
 s    8 1.00
                 11720  -0.00031444341168873
                  1759  -0.0024821376810179
                 400.8  -0.012316355381583
                 113.7  -0.050538917343672
                 37.03   -0.13938490331632
                 13.27   -0.32507749481778
                 5.025   -0.22984830758785
                 1.013     1.0953793467883
 s    1 1.00
                0.3023                   1
 p    3 1.00
                  17.7   0.062679166281506
                 3.854    0.33353656587936
                 1.046    0.74123964163973
 p    1 1.00
                0.2753                   1
 d    1 1.00
                 1.185                   1

2 0
 s    3 1.00
                 13.01   0.033498726389998
                 1.962    0.23480080117413
                0.4446     0.8136829578829
 s    1 1.00
                 0.122                   1
 p    1 1.00
                 0.727                   1

3 0
 s    3 1.00
                 13.01   0.033498726389998
                 1.962    0.23480080117413
                0.4446     0.8136829578829
 s    1 1.00
                 0.122                   1
 p    1 1.00
                 0.727                   1

4 0
 s    8 1.00
                 11720  0.00070964594651845
                  1759  0.0054672722921914
                 400.8   0.027823118610189
                 113.7    0.10474773971146
                 37.03    0.28292084635691
                 13.27    0.44849523869833
                 5.025    0.27081688521277
                 1.013    0.01545029160744
 s    8 1.00
                 11720  -0.00031444341168873
                  1759  -0.0024821376810179
                 400.8  -0.012316355381583
                 113.7  -0.050538917343672
                 37.03   -0.13938490331632
                 13.27   -0.32507749481778
                 5.025   -0.22984830758785
                 1.013     1.0953793467883
 s    1 1.00
                0.3023                   1
 p    3 1.00
                  17.7   0.062679166281506
                 3.854    0.33353656587936
                 1.046    0.74123964163973
 p    1 1.00
                0.2753                   1
 d    1 1.00
                 1.185                   1

5 0
 s    8 1.00
                  6665  0.00069158396281299
                  1000  0.0053257961529341
                   228   0.027060721042034
                 64.71    0.10165684614077
                 21.06     0.2745748236174
                 7.495    0.44829431892377
                 2.797    0.28490261071525
                0.5215   0.015194859206082
 s    8 1.00
                  6665  -0.00029326965268655
                  1000  -0.0023180354739745
                   228  -0.011499786038565
                 64.71  -0.046826727009787
                 21.06   -0.12846616875047
                 7.495   -0.30126627246289
                 2.797   -0.25563070233011
                0.5215      1.093793361012
 s    1 1.00
                0.1596                   1
 p    3 1.00
                 9.439   0.056979251590039
                 2.002    0.31320721150073
                0.5456    0.76037674173753
 p    1 1.00
                0.1517                   1
 d    1 1.00
                  0.55                   1

6 0
 s    8 1.00
                  6665  0.00069158396281299
                  1000  0.0053257961529341
                   228   0.027060721042034
                 64.71    0.10165684614077
                 21.06     0.2745748236174
                 7.495    0.44829431892377
                 2.797    0.28490261071525
                0.5215   0.015194859206082
 s    8 1.00
                  6665  -0.00029326965268655
                  1000  -0.0023180354739745
                   228  -0.011499786038565
                 64.71  -0.046826727009787
                 21.06   -0.12846616875047
                 7.495   -0.30126627246289
                 2.797   -0.25563070233011
                0.5215      1.093793361012
 s    1 1.00
                0.1596                   1
 p    3 1.00
                 9.439   0.056979251590039
                 2.002    0.31320721150073
                0.5456    0.76037674173753
 p    1 1.00
                0.1517                   1
 d    1 1.00
                  0.55                   1

7 0
 s    8 1.00
                  6665  0.00069158396281299
                  1000  0.0053257961529341
                   228   0.027060721042034
                 64.71    0.10165684614077
                 21.06     0.2745748236174
                 7.495    0.44829431892377
                 2.797    0.28490261071525
                0.5215   0.015194859206082
 s    8 1.00
                  6665  -0.00029326965268655
                  1000  -0.0023180354739745
                   228  -0.011499786038565
                 64.71  -0.046826727009787
                 21.06   -0.12846616875047
                 7.495   -0.30126627246289
                 2.797   -0.25563070233011
                0.5215      1.093793361012
 s    1 1.00
                0.1596                   1
 p    3 1.00
                 9.439   0.056979251590039
                 2.002    0.31320721150073
                0.5456    0.76037674173753
 p    1 1.00
                0.1517                   1
 d    1 1.00
                  0.55                   1

8 0
 s    3 1.00
                 13.01   0.033498726389998
                 1.962    0.23480080117413
                0.4446     0.8136829578829
 s    1 1.00
                 0.122                   1
 p    1 1.00
                 0.727                   1

9 0
 s    8 1.00
                  6665  0.00069158396281299
                  1000  0.0053257961529341
                   228   0.027060721042034
                 64.71    0.10165684614077
                 21.06     0.2745748236174
                 7.495    0.44829431892377
                 2.797    0.28490261071525
                0.5215   0.015194859206082
 s    8 1.00
                  6665  -0.00029326965268655
                  1000  -0.0023180354739745
                   228  -0.011499786038565
                 64.71  -0.046826727009787
                 21.06   -0.12846616875047
                 7.495   -0.30126627246289
                 2.797   -0.25563070233011
                0.5215      1.093793361012
 s    1 1.00
                0.1596                   1
 p    3 1.00
                 9.439   0.056979251590039
                 2.002    0.31320721150073
                0.5456    0.76037674173753
 p    1 1.00
                0.1517                   1
 d    1 1.00
                  0.55                   1

10 0
 s    3 1.00
                 13.01   0.033498726389998
                 1.962    0.23480080117413
                0.4446     0.8136829578829
 s    1 1.00
                 0.122                   1
 p    1 1.00
                 0.727                   1

11 0
 s    3 1.00
                 13.01   0.033498726389998
                 1.962    0.23480080117413
                0.4446     0.8136829578829
 s    1 1.00
                 0.122                   1
 p    1 1.00
                 0.727                   1

12 0
 s    3 1.00
                 13.01   0.033498726389998
                 1.962    0.23480080117413
                0.4446     0.8136829578829
 s    1 1.00
                 0.122                   1
 p    1 1.00
                 0.727                   1

13 0
 s    8 1.00
                  6665  0.00069158396281299
                  1000  0.0053257961529341
                   228   0.027060721042034
                 64.71    0.10165684614077
                 21.06     0.2745748236174
                 7.495    0.44829431892377
                 2.797    0.28490261071525
                0.5215   0.015194859206082
 s    8 1.00
                  6665  -0.00029326965268655
                  1000  -0.0023180354739745
                   228  -0.011499786038565
                 64.71  -0.046826727009787
                 21.06   -0.12846616875047
                 7.495   -0.30126627246289
                 2.797   -0.25563070233011
                0.5215      1.093793361012
 s    1 1.00
                0.1596                   1
 p    3 1.00
                 9.439   0.056979251590039
                 2.002    0.31320721150073
                0.5456    0.76037674173753
 p    1 1.00
                0.1517                   1
 d    1 1.00
                  0.55                   1

14 0
 s    3 1.00
                 13.01   0.033498726389998
                 1.962    0.23480080117413
                0.4446     0.8136829578829
 s    1 1.00
                 0.122                   1
 p    1 1.00
                 0.727                   1

15 0
 s    3 1.00
                 13.01   0.033498726389998
                 1.962    0.23480080117413
                0.4446     0.8136829578829
 s    1 1.00
                 0.122                   1
 p    1 1.00
                 0.727                   1

16 0
 s    8 1.00
                  6665  0.00069158396281299
                  1000  0.0053257961529341
                   228   0.027060721042034
                 64.71    0.10165684614077
                 21.06     0.2745748236174
                 7.495    0.44829431892377
                 2.797    0.28490261071525
                0.5215   0.015194859206082
 s    8 1.00
                  6665  -0.00029326965268655
                  1000  -0.0023180354739745
                   228  -0.011499786038565
                 64.71  -0.046826727009787
                 21.06   -0.12846616875047
                 7.495   -0.30126627246289
                 2.797   -0.25563070233011
                0.5215      1.093793361012
 s    1 1.00
                0.1596                   1
 p    3 1.00
                 9.439   0.056979251590039
                 2.002    0.31320721150073
                0.5456    0.76037674173753
 p    1 1.00
                0.1517                   1
 d    1 1.00
                  0.55                   1

17 0
 s    3 1.00
                 13.01   0.033498726389998
                 1.962    0.23480080117413
                0.4446     0.8136829578829
 s    1 1.00
                 0.122                   1
 p    1 1.00
                 0.727                   1

18 0
 s    3 1.00
                 13.01   0.033498726389998
                 1.962    0.23480080117413
                0.4446     0.8136829578829
 s    1 1.00
                 0.122                   1
 p    1 1.00
                 0.727                   1

19 0
 s    8 1.00
                  6665  0.00069158396281299
                  1000  0.0053257961529341
                   228   0.027060721042034
                 64.71    0.10165684614077
                 21.06     0.2745748236174
                 7.495    0.44829431892377
                 2.797    0.28490261071525
                0.5215   0.015194859206082
 s    8 1.00
                  6665  -0.00029326965268655
                  1000  -0.0023180354739745
                   228  -0.011499786038565
                 64.71  -0.046826727009787
                 21.06   -0.12846616875047
                 7.495   -0.30126627246289
                 2.797   -0.25563070233011
                0.5215      1.093793361012
 s    1 1.00
                0.1596                   1
 p    3 1.00
                 9.439   0.056979251590039
                 2.002    0.31320721150073
                0.5456    0.76037674173753
 p    1 1.00
                0.1517                   1
 d    1 1.00
                  0.55                   1

20 0
 s    3 1.00
                 13.01   0.033498726389998
                 1.962    0.23480080117413
                0.4446     0.8136829578829
 s    1 1.00
                 0.122                   1
 p    1 1.00
                 0.727                   1

21 0
 s    8 1.00
                  6665  0.00069158396281299
                  1000  0.0053257961529341
                   228   0.027060721042034
                 64.71    0.10165684614077
                 21.06     0.2745748236174
                 7.495    0.44829431892377
                 2.797    0.28490261071525
                0.5215   0.015194859206082
 s    8 1.00
                  6665  -0.00029326965268655
                  1000  -0.0023180354739745
                   228  -0.011499786038565
                 64.71  -0.046826727009787
                 21.06   -0.12846616875047
                 7.495   -0.30126627246289
                 2.797   -0.25563070233011
                0.5215      1.093793361012
 s    1 1.00
                0.1596                   1
 p    3 1.00
                 9.439   0.056979251590039
                 2.002    0.31320721150073
                0.5456    0.76037674173753
 p    1 1.00
                0.1517                   1
 d    1 1.00
                  0.55                   1

22 0
 s    3 1.00
                 13.01   0.033498726389998
                 1.962    0.23480080117413
                0.4446     0.8136829578829
 s    1 1.00
                 0.122                   1
 p    1 1.00
                 0.727                   1

23 0
 s    3 1.00
                 13.01   0.033498726389998
                 1.962    0.23480080117413
                0.4446     0.8136829578829
 s    1 1.00
                 0.122                   1
 p    1 1.00
                 0.727                   1

24 0
 s    3 1.00
                 13.01   0.033498726389998
                 1.962    0.23480080117413
                0.4446     0.8136829578829
 s    1 1.00
                 0.122                   1
 p    1 1.00
                 0.727                   1

25 0
 s    8 1.00
                  6665  0.00069158396281299
                  1000  0.0053257961529341
                   228   0.027060721042034
                 64.71    0.10165684614077
                 21.06     0.2745748236174
                 7.495    0.44829431892377
                 2.797    0.28490261071525
                0.5215   0.015194859206082
 s    8 1.00
                  6665  -0.00029326965268655
                  1000  -0.0023180354739745
                   228  -0.011499786038565
                 64.71  -0.046826727009787
                 21.06   -0.12846616875047
                 7.495   -0.30126627246289
                 2.797   -0.25563070233011
                0.5215      1.093793361012
 s    1 1.00
                0.1596                   1
 p    3 1.00
                 9.439   0.056979251590039
                 2.002    0.31320721150073
                0.5456    0.76037674173753
 p    1 1.00
                0.1517                   1
 d    1 1.00
                  0.55                   1

26 0
 s    3 1.00
                 13.01   0.033498726389998
                 1.962    0.23480080117413
                0.4446     0.8136829578829
 s    1 1.00
                 0.122                   1
 p    1 1.00
                 0.727                   1

27 0
 s    3 1.00
                 13.01   0.033498726389998
                 1.962    0.23480080117413
                0.4446     0.8136829578829
 s    1 1.00
                 0.122                   1
 p    1 1.00
                 0.727                   1

28 0
 s    8 1.00
                  6665  0.00069158396281299
                  1000  0.0053257961529341
                   228   0.027060721042034
                 64.71    0.10165684614077
                 21.06     0.2745748236174
                 7.495    0.44829431892377
                 2.797    0.28490261071525
                0.5215   0.015194859206082
 s    8 1.00
                  6665  -0.00029326965268655
                  1000  -0.0023180354739745
                   228  -0.011499786038565
                 64.71  -0.046826727009787
                 21.06   -0.12846616875047
                 7.495   -0.30126627246289
                 2.797   -0.25563070233011
                0.5215      1.093793361012
 s    1 1.00
                0.1596                   1
 p    3 1.00
                 9.439   0.056979251590039
                 2.002    0.31320721150073
                0.5456    0.76037674173753
 p    1 1.00
                0.1517                   1
 d    1 1.00
                  0.55                   1

29 0
 s    3 1.00
                 13.01   0.033498726389998
                 1.962    0.23480080117413
                0.4446     0.8136829578829
 s    1 1.00
                 0.122                   1
 p    1 1.00
                 0.727                   1

30 0
 s    3 1.00
                 13.01   0.033498726389998
                 1.962    0.23480080117413
                0.4446     0.8136829578829
 s    1 1.00
                 0.122                   1
 p    1 1.00
                 0.727                   1

31 0
 s    8 1.00
                  6665  0.00069158396281299
                  1000  0.0053257961529341
                   228   0.027060721042034
                 64.71    0.10165684614077
                 21.06     0.2745748236174
                 7.495    0.44829431892377
                 2.797    0.28490261071525
                0.5215   0.015194859206082
 s    8 1.00
                  6665  -0.00029326965268655
                  1000  -0.0023180354739745
                   228  -0.011499786038565
                 64.71  -0.046826727009787
                 21.06   -0.12846616875047
                 7.495   -0.30126627246289
                 2.797   -0.25563070233011
                0.5215      1.093793361012
 s    1 1.00
                0.1596                   1
 p    3 1.00
                 9.439   0.056979251590039
                 2.002    0.31320721150073
                0.5456    0.76037674173753
 p    1 1.00
                0.1517                   1
 d    1 1.00
                  0.55                   1

32 0
 s    3 1.00
                 13.01   0.033498726389998
                 1.962    0.23480080117413
                0.4446     0.8136829578829
 s    1 1.00
                 0.122                   1
 p    1 1.00
                 0.727                   1

33 0
 s    3 1.00
                 13.01   0.033498726389998
                 1.962    0.23480080117413
                0.4446     0.8136829578829
 s    1 1.00
                 0.122                   1
 p    1 1.00
                 0.727                   1

34 0
 s    3 1.00
                 13.01   0.033498726389998
                 1.962    0.23480080117413
                0.4446     0.8136829578829
 s    1 1.00
                 0.122                   1
 p    1 1.00
                 0.727                   1

35 0
 s    3 1.00
                 13.01   0.033498726389998
                 1.962    0.23480080117413
                0.4446     0.8136829578829
 s    1 1.00
                 0.122                   1
 p    1 1.00
                 0.727                   1

36 0
 s    3 1.00
                 13.01   0.033498726389998
                 1.962    0.23480080117413
                0.4446     0.8136829578829
 s    1 1.00
                 0.122                   1
 p    1 1.00
                 0.727                   1

37 0
 s    3 1.00
                 13.01   0.033498726389998
                 1.962    0.23480080117413
                0.4446     0.8136829578829
 s    1 1.00
                 0.122                   1
 p    1 1.00
                 0.727                   1

[5d]
[7f]
[9g]

[MO]
 Sym= A
 Ene=               0
 Spin= Alpha
 Occup=    1.00000
   1    6.0259007983912e-05
   2    4.3200727805782e-05
   3    -0.00013072031641323
   4    8.1159154879972e-08
   5    -5.472895136363e-06
   6    -8.0056309473659e-06
   7    -5.9148712007983e-07
   8    2.5170002163419e-05
   9    8.5748315212096e-05
  10    -1.1194218082813e-05
  11    2.0848977508669e-08
  12    6.0118792149999e-07
  13    -3.365221658675e-07
  14    -9.3563263888532e-09
  15    1.658996258058e-05
  16    0.00019452563201197
  17    1.9180747330119e-07
  18    -1.7532264149444e-06
  19    2.2327362445428e-05
  20    8.071502035681e-06
  21    -6.9467281331385e-05
  22    -1.7781802544389e-07
  23    5.1360155670236e-06
  24    -2.3719168854694e-06
  25      -1.0013692556633
  26    -0.0019675172168297
  27    0.0068547558642062
  28    4.7929111862565e-06
  29    -9.1140326166289e-06
  30    0.0016495065824984
  31    4.8056506542892e-07
  32    1.7409567884036e-06
  33    -0.0018772112855124
  34    -0.00011966324111957
  35    2.9165037079616e-06
  36    -1.4144032803897e-06
  37    -6.7153588418244e-05
  38    0.00017482882577989
  39    -0.00028027706106889
  40    -0.00038665008842482
  41    -0.0014601728710758
  42    -1.5394829379812e-05
  43    9.9364104172534e-06
  44    -4.3943590309801e-06
  45    -8.5961370875406e-05
  46    6.6980353476199e-05
  47    -0.0036000522346018
  48    0.00052283744034447
  49    8.5594577682643e-06
  50    -2.6295427372842e-06
  51    -2.9225696682126e-05
  52    0.00010856387478029
  53    8.4622147665499e-05
  54    0.00016555811147314
  55     -0.00137437695056
  56    -7.825479364927e-05
  57    7.3636105070382e-06
  58    3.5267354933423e-05
  59    0.00042430481296694
  60    -0.00047787948255226
  61    0.00094711505842346
  62    0.00011693467614142
  63    -0.00015001863669463
  64    0.00014308138866461
  65    -5.470627148672e-05
  66    0.00012875292001477
  67    3.9458731508076e-05
  68    9.6987376363824e-05
  69    -0.00052251094695219
  70    6.1323971788434e-05
  71    -4.0388428177674e-05
  72    6.2203692855583e-05
  73    -0.0010084361883085
  74    0.00077579547928266
  75    0.00064382940343246
  76    0.00014010934710993
  77    0.0001203981109938
  78    -8.9242666129432e-05
  79    -5.8450489099801e-05
  80    0.00015066748004186
  81    6.2253027220429e-05
  82    -0.00021046717610468
  83    -6.6452943667547e-05
  84    4.8810311829312e-05
  85    -4.8286613907763e-05
  86    -2.523548657152e-05
  87    -4.9001120441236e-05
  88    0.0006113845733659
  89    1.5881000466136e-05
  90    1.7120938602316e-05
  91    -1.1743473081395e-05
  92    -0.00025938940036914
  93    -0.0006347845023386
  94    1.4886946069766e-05
  95    -1.8431472034862e-05
  96    -1.1317416413542e-05
  97    -7.5675439759097e-06
  98    2.0084739276945e-05
  99    4.6903571880534e-05
 100    3.8684159485923e-05
 101    0.00016121303794403
 102    -8.1010628292999e-06
 103    1.0169335234683e-05
 104    -7.5583089641197e-05
 105    1.8843998753243e-05
 106    0.0002037234754226
 107    6.435184819647e-05
 108    -1.0075247617232e-05
 109    -7.5286820089123e-05
 110    -7.7824392000268e-05
 111    6.1857995634436e-05
 112    4.5185459490639e-05
 113    -1.9219102534967e-05
 114    -7.0316466944818e-05
 115    -0.00017252239913378
 116    0.00012390435925629
 117    -0.00082933995185024
 118    1.0040908894457e-05
 119    2.3075537410692e-05
 120    -3.4833859874062e-05
 121    -0.00029172733123319
 122    -2.9727670157134e-05
 123    0.0001435479936149
 124    6.0666897693777e-06
 125    -8.4613154940152e-06
 126    -1.7102191861803e-05
 127    3.3026677014606e-05
 128    -5.2769610915142e-05
 129    1.967590525418e-05
 130    0.00032860149843058
 131    -7.6901778002396e-06
 132    -5.9510286930981e-06
 133    -2.938191052285e-05
 134    -2.6303157117519e-05
 135    0.00011678680571672
 136    1.3521978488393e-05
 137     2.45714921002e-05
 138    2.6935664825701e-05
 139    -5.0221122896758e-05
 140    3.5096776000283e-05
 141    -0.00029493564503178
 142    -9.4702663466403e-06
 143    4.6756565199782e-06
 144    6.0177705490701e-06
 145    0.00022966567162805
 146    -5.3870053651739e-05
 147    -6.1729230783771e-05
 148    1.6519612444145e-06
 149    -3.3982121362658e-06
 150    4.2015243968464e-06
 151    -1.2358871090378e-05
 152    5.6104921514079e-06
 153    0.00011001744978631
 154    0.00010698334366103
 155    2.5454456325259e-05
 156    -2.9850043809287e-05
 157    -2.0711498258439e-05
 158    3.4005569418484e-05
 159    8.7647976799993e-05
 160    5.9807515077452e-05
 161    8.5312594134666e-06
 162    -6.8077589685832e-06
 163    -2.7334179873305e-05
 164    0.00010516632070079
 165    0.00031887293960711
 166    1.4125761889448e-06
 167    -1.0985890743448e-05
 168    -1.2565242098266e-05
 169    -0.00024808296117869
 170    0.00021504989409844
 171    0.0001345994818595
 172    4.0293843934495e-06
 173    -1.1006512381331e-05
 174    1.447425980734e-05
 175    -2.7328183611349e-06
 176    1.7424076179059e-05
 177    1.138027848349e-05
 178    -8.8164091001453e-05
 179    1.0469844567119e-06
 180    -1.9958651585299e-06
 181    5.098940941042e-06
 182    8.8490975520177e-06
 183    -2.1509747926685e-05
 184    7.3795086911905e-05
 185    1.7814903667881e-05
 186    8.0079795784424e-06
 187    8.201746264867e-06
 188    -0.00012217271974866
 189    0.00010754033115939
 190    9.3476928846242e-05
 191    -1.4289273546555e-06
 192    -2.4661927741091e-06
 193    9.1101791386421e-06
 194    2.385107500454e-06
 195    6.0986442310209e-06
 196    1.2740911934144e-05
 197    2.1236845330093e-05
 198    -5.7833496684632e-06
 199    -2.0986429430093e-06
 200    3.1818445304576e-06
 201    7.2137211457075e-05
 202    9.7822658130035e-06
 203    1.5386830293904e-05
 204    -5.552096521461e-06
 205    -6.8354049558288e-06
 206    3.8982669259292e-05
 207    -6.251212157981e-05
 208    1.2843802478766e-05
 209    -9.001767136978e-06
 210    -1.3482504996008e-05
 211    1.3458959713247e-06
 212    4.4146065375465e-05
 213    -0.00025829693949977
 214    5.1950344142455e-05
 215    -2.1999815408204e-05
 216    6.1855961047308e-06
 217    -0.0001717819606669
 218    4.3347452313965e-05
 219    8.0354305867453e-05
 220    2.3719881668967e-06
 221    1.0504647983712e-05
 222    -1.3419553663198e-06
 223    -7.0417791806146e-06
 224    8.1203688229106e-07
 225    -3.0744922989228e-06
 226    -4.5412786832188e-05
 227    1.197775041256e-05
 228    6.0321831319522e-07
 229    4.1768478419536e-07
 230    -2.0602310396179e-05
 231    -6.0998617445207e-05
 232    3.9244859590719e-06
 233    -5.7130111051288e-06
 234    -1.2097887936876e-05
 235    -6.4178855227793e-06
 236    2.317152369747e-06
 237    8.0689426432536e-05
 238    -5.2490549223652e-06
 239    -1.9627484671233e-06
 240    -2.8399871225682e-06
 241    -3.7305774230615e-05
 242    6.273197653011e-05
 243    -2.1274058737042e-05
 244    -1.6948033325575e-06
 245    -2.3442770199475e-06
 246    2.8661415644494e-06
 247    -1.076977502196e-06
 248    -5.8977679630792e-07
 249    3.1387552916787e-05
 250    -6.0567367973393e-06
 251    5.195341948873e-06
 252    -5.0594319208228e-07
 253    -8.334009329588e-07
 254    1.6113319899221e-05
 255    -5.8401084820842e-05
 256    1.4195246891049e-06
 257    -4.3775201019689e-06
 258    9.8556333528766e-07
 259    2.0912956092636e-05
 260    1.7901406047139e-05
 261    -8.428622798865e-05
 262    -3.6983569662839e-05
 263    1.7576496551188e-05