[Molden Format]
made by pyscf v[2.0.1]
[Atoms] (AU)
O   1   8     0.00000000000000     0.00000000000000     6.78435311142442
H   2   1     0.00000000000000     0.00000000000000     4.96095128952346
H   3   1    -0.05031916615174     1.78353065140343     7.16022480789109
O   4   8     0.00000000000000     0.00000000000000     2.31533471513237
C   5   6     0.00000000000000     0.00000000000000     0.00000000000000
C   6   6     2.01118073026938    -1.40227222164369    -1.50774939176400
C   7   6    -2.01249334291722     1.41331050329955    -1.50315905028694
H   8   1     3.32037363730244    -2.26721897153159    -0.13599698591495
C   9   6     3.45899267434009     0.28739631745591    -3.37437943254505
H   10   1     1.07662969841332    -2.94725144642667    -2.56541439481080
H   11   1    -2.67503415753480     0.18421555839588    -3.06194479365997
H   12   1    -1.07974048864772     3.03851734677796    -2.43674295017013
C   13   6    -4.21607110578555     2.32938802552922     0.11994162256091
H   14   1     4.24440173074564     1.93368664142019    -2.34976285512790
H   15   1     2.15020713235517     1.04714335134846    -4.81494497423699
C   16   6     5.60746363007797    -1.12419643481196    -4.70268606082550
H   17   1    -3.46838323670267     3.50951302338067     1.66946842715333
H   18   1    -5.11873485366228     0.68575958301209     1.04047743976495
C   19   6    -6.18314754751344     3.80909592987882    -1.39656589068747
H   20   1     6.93011263717176    -1.87550812453645    -3.26656317360070
C   21   6     7.06356622236532     0.52877932406334    -6.57829775293605
H   22   1     4.82318879258361    -2.78573437948532    -5.70504560381835
H   23   1    -6.91582688743803     2.61304780074712    -2.95074552451969
H   24   1    -5.26532430573853     5.45420349051338    -2.31005832200284
C   25   6    -8.39941882261433     4.73263980500213     0.21800571437956
H   26   1     7.83338371486801     2.19084139882824    -5.57093109900697
H   27   1     5.73544244039420     1.27376866537418    -8.01071492370229
C   28   6     9.21124858443101    -0.89699110072176    -7.88926949186242
H   29   1    -7.66272760055236     5.92277078003992     1.77035591474408
H   30   1    -9.31497248082589     3.08753015622020     1.12614408368786
C   31   6   -10.35481709231879     6.21833079391143    -1.30905206253246
H   32   1    10.58815905329501    -1.61074586756696    -6.49512691622620
H   33   1    10.23506248045667     0.32468009384095    -9.23072870921204
H   34   1     8.47665842847139    -2.53598436989925    -8.94921964622535
H   35   1    -9.48948872868064     7.90013588951020    -2.18823918416067
H   36   1   -11.93332513000955     6.86460487874102    -0.11255798845995
H   37   1   -11.15126291841033     5.04495968327630    -2.83849898862534
[GTO]
1 0
 s    8 1.00
                 11720  0.00070964594651845
                  1759  0.0054672722921914
                 400.8   0.027823118610189
                 113.7    0.10474773971146
                 37.03    0.28292084635691
                 13.27    0.44849523869833
                 5.025    0.27081688521277
                 1.013    0.01545029160744
 s    8 1.00
                 11720  -0.00031444341168873
                  1759  -0.0024821376810179
                 400.8  -0.012316355381583
                 113.7  -0.050538917343672
                 37.03   -0.13938490331632
                 13.27   -0.32507749481778
                 5.025   -0.22984830758785
                 1.013     1.0953793467883
 s    1 1.00
                0.3023                   1
 p    3 1.00
                  17.7   0.062679166281506
                 3.854    0.33353656587936
                 1.046    0.74123964163973
 p    1 1.00
                0.2753                   1
 d    1 1.00
                 1.185                   1

2 0
 s    3 1.00
                 13.01   0.033498726389998
                 1.962    0.23480080117413
                0.4446     0.8136829578829
 s    1 1.00
                 0.122                   1
 p    1 1.00
                 0.727                   1

3 0
 s    3 1.00
                 13.01   0.033498726389998
                 1.962    0.23480080117413
                0.4446     0.8136829578829
 s    1 1.00
                 0.122                   1
 p    1 1.00
                 0.727                   1

4 0
 s    8 1.00
                 11720  0.00070964594651845
                  1759  0.0054672722921914
                 400.8   0.027823118610189
                 113.7    0.10474773971146
                 37.03    0.28292084635691
                 13.27    0.44849523869833
                 5.025    0.27081688521277
                 1.013    0.01545029160744
 s    8 1.00
                 11720  -0.00031444341168873
                  1759  -0.0024821376810179
                 400.8  -0.012316355381583
                 113.7  -0.050538917343672
                 37.03   -0.13938490331632
                 13.27   -0.32507749481778
                 5.025   -0.22984830758785
                 1.013     1.0953793467883
 s    1 1.00
                0.3023                   1
 p    3 1.00
                  17.7   0.062679166281506
                 3.854    0.33353656587936
                 1.046    0.74123964163973
 p    1 1.00
                0.2753                   1
 d    1 1.00
                 1.185                   1

5 0
 s    8 1.00
                  6665  0.00069158396281299
                  1000  0.0053257961529341
                   228   0.027060721042034
                 64.71    0.10165684614077
                 21.06     0.2745748236174
                 7.495    0.44829431892377
                 2.797    0.28490261071525
                0.5215   0.015194859206082
 s    8 1.00
                  6665  -0.00029326965268655
                  1000  -0.0023180354739745
                   228  -0.011499786038565
                 64.71  -0.046826727009787
                 21.06   -0.12846616875047
                 7.495   -0.30126627246289
                 2.797   -0.25563070233011
                0.5215      1.093793361012
 s    1 1.00
                0.1596                   1
 p    3 1.00
                 9.439   0.056979251590039
                 2.002    0.31320721150073
                0.5456    0.76037674173753
 p    1 1.00
                0.1517                   1
 d    1 1.00
                  0.55                   1

6 0
 s    8 1.00
                  6665  0.00069158396281299
                  1000  0.0053257961529341
                   228   0.027060721042034
                 64.71    0.10165684614077
                 21.06     0.2745748236174
                 7.495    0.44829431892377
                 2.797    0.28490261071525
                0.5215   0.015194859206082
 s    8 1.00
                  6665  -0.00029326965268655
                  1000  -0.0023180354739745
                   228  -0.011499786038565
                 64.71  -0.046826727009787
                 21.06   -0.12846616875047
                 7.495   -0.30126627246289
                 2.797   -0.25563070233011
                0.5215      1.093793361012
 s    1 1.00
                0.1596                   1
 p    3 1.00
                 9.439   0.056979251590039
                 2.002    0.31320721150073
                0.5456    0.76037674173753
 p    1 1.00
                0.1517                   1
 d    1 1.00
                  0.55                   1

7 0
 s    8 1.00
                  6665  0.00069158396281299
                  1000  0.0053257961529341
                   228   0.027060721042034
                 64.71    0.10165684614077
                 21.06     0.2745748236174
                 7.495    0.44829431892377
                 2.797    0.28490261071525
                0.5215   0.015194859206082
 s    8 1.00
                  6665  -0.00029326965268655
                  1000  -0.0023180354739745
                   228  -0.011499786038565
                 64.71  -0.046826727009787
                 21.06   -0.12846616875047
                 7.495   -0.30126627246289
                 2.797   -0.25563070233011
                0.5215      1.093793361012
 s    1 1.00
                0.1596                   1
 p    3 1.00
                 9.439   0.056979251590039
                 2.002    0.31320721150073
                0.5456    0.76037674173753
 p    1 1.00
                0.1517                   1
 d    1 1.00
                  0.55                   1

8 0
 s    3 1.00
                 13.01   0.033498726389998
                 1.962    0.23480080117413
                0.4446     0.8136829578829
 s    1 1.00
                 0.122                   1
 p    1 1.00
                 0.727                   1

9 0
 s    8 1.00
                  6665  0.00069158396281299
                  1000  0.0053257961529341
                   228   0.027060721042034
                 64.71    0.10165684614077
                 21.06     0.2745748236174
                 7.495    0.44829431892377
                 2.797    0.28490261071525
                0.5215   0.015194859206082
 s    8 1.00
                  6665  -0.00029326965268655
                  1000  -0.0023180354739745
                   228  -0.011499786038565
                 64.71  -0.046826727009787
                 21.06   -0.12846616875047
                 7.495   -0.30126627246289
                 2.797   -0.25563070233011
                0.5215      1.093793361012
 s    1 1.00
                0.1596                   1
 p    3 1.00
                 9.439   0.056979251590039
                 2.002    0.31320721150073
                0.5456    0.76037674173753
 p    1 1.00
                0.1517                   1
 d    1 1.00
                  0.55                   1

10 0
 s    3 1.00
                 13.01   0.033498726389998
                 1.962    0.23480080117413
                0.4446     0.8136829578829
 s    1 1.00
                 0.122                   1
 p    1 1.00
                 0.727                   1

11 0
 s    3 1.00
                 13.01   0.033498726389998
                 1.962    0.23480080117413
                0.4446     0.8136829578829
 s    1 1.00
                 0.122                   1
 p    1 1.00
                 0.727                   1

12 0
 s    3 1.00
                 13.01   0.033498726389998
                 1.962    0.23480080117413
                0.4446     0.8136829578829
 s    1 1.00
                 0.122                   1
 p    1 1.00
                 0.727                   1

13 0
 s    8 1.00
                  6665  0.00069158396281299
                  1000  0.0053257961529341
                   228   0.027060721042034
                 64.71    0.10165684614077
                 21.06     0.2745748236174
                 7.495    0.44829431892377
                 2.797    0.28490261071525
                0.5215   0.015194859206082
 s    8 1.00
                  6665  -0.00029326965268655
                  1000  -0.0023180354739745
                   228  -0.011499786038565
                 64.71  -0.046826727009787
                 21.06   -0.12846616875047
                 7.495   -0.30126627246289
                 2.797   -0.25563070233011
                0.5215      1.093793361012
 s    1 1.00
                0.1596                   1
 p    3 1.00
                 9.439   0.056979251590039
                 2.002    0.31320721150073
                0.5456    0.76037674173753
 p    1 1.00
                0.1517                   1
 d    1 1.00
                  0.55                   1

14 0
 s    3 1.00
                 13.01   0.033498726389998
                 1.962    0.23480080117413
                0.4446     0.8136829578829
 s    1 1.00
                 0.122                   1
 p    1 1.00
                 0.727                   1

15 0
 s    3 1.00
                 13.01   0.033498726389998
                 1.962    0.23480080117413
                0.4446     0.8136829578829
 s    1 1.00
                 0.122                   1
 p    1 1.00
                 0.727                   1

16 0
 s    8 1.00
                  6665  0.00069158396281299
                  1000  0.0053257961529341
                   228   0.027060721042034
                 64.71    0.10165684614077
                 21.06     0.2745748236174
                 7.495    0.44829431892377
                 2.797    0.28490261071525
                0.5215   0.015194859206082
 s    8 1.00
                  6665  -0.00029326965268655
                  1000  -0.0023180354739745
                   228  -0.011499786038565
                 64.71  -0.046826727009787
                 21.06   -0.12846616875047
                 7.495   -0.30126627246289
                 2.797   -0.25563070233011
                0.5215      1.093793361012
 s    1 1.00
                0.1596                   1
 p    3 1.00
                 9.439   0.056979251590039
                 2.002    0.31320721150073
                0.5456    0.76037674173753
 p    1 1.00
                0.1517                   1
 d    1 1.00
                  0.55                   1

17 0
 s    3 1.00
                 13.01   0.033498726389998
                 1.962    0.23480080117413
                0.4446     0.8136829578829
 s    1 1.00
                 0.122                   1
 p    1 1.00
                 0.727                   1

18 0
 s    3 1.00
                 13.01   0.033498726389998
                 1.962    0.23480080117413
                0.4446     0.8136829578829
 s    1 1.00
                 0.122                   1
 p    1 1.00
                 0.727                   1

19 0
 s    8 1.00
                  6665  0.00069158396281299
                  1000  0.0053257961529341
                   228   0.027060721042034
                 64.71    0.10165684614077
                 21.06     0.2745748236174
                 7.495    0.44829431892377
                 2.797    0.28490261071525
                0.5215   0.015194859206082
 s    8 1.00
                  6665  -0.00029326965268655
                  1000  -0.0023180354739745
                   228  -0.011499786038565
                 64.71  -0.046826727009787
                 21.06   -0.12846616875047
                 7.495   -0.30126627246289
                 2.797   -0.25563070233011
                0.5215      1.093793361012
 s    1 1.00
                0.1596                   1
 p    3 1.00
                 9.439   0.056979251590039
                 2.002    0.31320721150073
                0.5456    0.76037674173753
 p    1 1.00
                0.1517                   1
 d    1 1.00
                  0.55                   1

20 0
 s    3 1.00
                 13.01   0.033498726389998
                 1.962    0.23480080117413
                0.4446     0.8136829578829
 s    1 1.00
                 0.122                   1
 p    1 1.00
                 0.727                   1

21 0
 s    8 1.00
                  6665  0.00069158396281299
                  1000  0.0053257961529341
                   228   0.027060721042034
                 64.71    0.10165684614077
                 21.06     0.2745748236174
                 7.495    0.44829431892377
                 2.797    0.28490261071525
                0.5215   0.015194859206082
 s    8 1.00
                  6665  -0.00029326965268655
                  1000  -0.0023180354739745
                   228  -0.011499786038565
                 64.71  -0.046826727009787
                 21.06   -0.12846616875047
                 7.495   -0.30126627246289
                 2.797   -0.25563070233011
                0.5215      1.093793361012
 s    1 1.00
                0.1596                   1
 p    3 1.00
                 9.439   0.056979251590039
                 2.002    0.31320721150073
                0.5456    0.76037674173753
 p    1 1.00
                0.1517                   1
 d    1 1.00
                  0.55                   1

22 0
 s    3 1.00
                 13.01   0.033498726389998
                 1.962    0.23480080117413
                0.4446     0.8136829578829
 s    1 1.00
                 0.122                   1
 p    1 1.00
                 0.727                   1

23 0
 s    3 1.00
                 13.01   0.033498726389998
                 1.962    0.23480080117413
                0.4446     0.8136829578829
 s    1 1.00
                 0.122                   1
 p    1 1.00
                 0.727                   1

24 0
 s    3 1.00
                 13.01   0.033498726389998
                 1.962    0.23480080117413
                0.4446     0.8136829578829
 s    1 1.00
                 0.122                   1
 p    1 1.00
                 0.727                   1

25 0
 s    8 1.00
                  6665  0.00069158396281299
                  1000  0.0053257961529341
                   228   0.027060721042034
                 64.71    0.10165684614077
                 21.06     0.2745748236174
                 7.495    0.44829431892377
                 2.797    0.28490261071525
                0.5215   0.015194859206082
 s    8 1.00
                  6665  -0.00029326965268655
                  1000  -0.0023180354739745
                   228  -0.011499786038565
                 64.71  -0.046826727009787
                 21.06   -0.12846616875047
                 7.495   -0.30126627246289
                 2.797   -0.25563070233011
                0.5215      1.093793361012
 s    1 1.00
                0.1596                   1
 p    3 1.00
                 9.439   0.056979251590039
                 2.002    0.31320721150073
                0.5456    0.76037674173753
 p    1 1.00
                0.1517                   1
 d    1 1.00
                  0.55                   1

26 0
 s    3 1.00
                 13.01   0.033498726389998
                 1.962    0.23480080117413
                0.4446     0.8136829578829
 s    1 1.00
                 0.122                   1
 p    1 1.00
                 0.727                   1

27 0
 s    3 1.00
                 13.01   0.033498726389998
                 1.962    0.23480080117413
                0.4446     0.8136829578829
 s    1 1.00
                 0.122                   1
 p    1 1.00
                 0.727                   1

28 0
 s    8 1.00
                  6665  0.00069158396281299
                  1000  0.0053257961529341
                   228   0.027060721042034
                 64.71    0.10165684614077
                 21.06     0.2745748236174
                 7.495    0.44829431892377
                 2.797    0.28490261071525
                0.5215   0.015194859206082
 s    8 1.00
                  6665  -0.00029326965268655
                  1000  -0.0023180354739745
                   228  -0.011499786038565
                 64.71  -0.046826727009787
                 21.06   -0.12846616875047
                 7.495   -0.30126627246289
                 2.797   -0.25563070233011
                0.5215      1.093793361012
 s    1 1.00
                0.1596                   1
 p    3 1.00
                 9.439   0.056979251590039
                 2.002    0.31320721150073
                0.5456    0.76037674173753
 p    1 1.00
                0.1517                   1
 d    1 1.00
                  0.55                   1

29 0
 s    3 1.00
                 13.01   0.033498726389998
                 1.962    0.23480080117413
                0.4446     0.8136829578829
 s    1 1.00
                 0.122                   1
 p    1 1.00
                 0.727                   1

30 0
 s    3 1.00
                 13.01   0.033498726389998
                 1.962    0.23480080117413
                0.4446     0.8136829578829
 s    1 1.00
                 0.122                   1
 p    1 1.00
                 0.727                   1

31 0
 s    8 1.00
                  6665  0.00069158396281299
                  1000  0.0053257961529341
                   228   0.027060721042034
                 64.71    0.10165684614077
                 21.06     0.2745748236174
                 7.495    0.44829431892377
                 2.797    0.28490261071525
                0.5215   0.015194859206082
 s    8 1.00
                  6665  -0.00029326965268655
                  1000  -0.0023180354739745
                   228  -0.011499786038565
                 64.71  -0.046826727009787
                 21.06   -0.12846616875047
                 7.495   -0.30126627246289
                 2.797   -0.25563070233011
                0.5215      1.093793361012
 s    1 1.00
                0.1596                   1
 p    3 1.00
                 9.439   0.056979251590039
                 2.002    0.31320721150073
                0.5456    0.76037674173753
 p    1 1.00
                0.1517                   1
 d    1 1.00
                  0.55                   1

32 0
 s    3 1.00
                 13.01   0.033498726389998
                 1.962    0.23480080117413
                0.4446     0.8136829578829
 s    1 1.00
                 0.122                   1
 p    1 1.00
                 0.727                   1

33 0
 s    3 1.00
                 13.01   0.033498726389998
                 1.962    0.23480080117413
                0.4446     0.8136829578829
 s    1 1.00
                 0.122                   1
 p    1 1.00
                 0.727                   1

34 0
 s    3 1.00
                 13.01   0.033498726389998
                 1.962    0.23480080117413
                0.4446     0.8136829578829
 s    1 1.00
                 0.122                   1
 p    1 1.00
                 0.727                   1

35 0
 s    3 1.00
                 13.01   0.033498726389998
                 1.962    0.23480080117413
                0.4446     0.8136829578829
 s    1 1.00
                 0.122                   1
 p    1 1.00
                 0.727                   1

36 0
 s    3 1.00
                 13.01   0.033498726389998
                 1.962    0.23480080117413
                0.4446     0.8136829578829
 s    1 1.00
                 0.122                   1
 p    1 1.00
                 0.727                   1

37 0
 s    3 1.00
                 13.01   0.033498726389998
                 1.962    0.23480080117413
                0.4446     0.8136829578829
 s    1 1.00
                 0.122                   1
 p    1 1.00
                 0.727                   1

[5d]
[7f]
[9g]

[MO]
 Sym= A
 Ene=               0
 Spin= Alpha
 Occup=    1.00000
   1    -0.00013097954624992
   2    -2.904930371967e-06
   3    -0.00012992342389072
   4    1.075381298947e-06
   5    5.0517851516857e-07
   6    5.3663941156715e-05
   7    -2.0787332186474e-06
   8    -1.3954249035526e-05
   9    0.00013851935693866
  10    -6.1449956796823e-05
  11    -3.2326369216929e-07
  12    2.8762139505086e-06
  13    4.5983559879103e-06
  14    2.3745843324191e-07
  15    4.7149346714896e-05
  16    -0.00012171917067049
  17    -1.1975091544853e-06
  18    4.9073329376682e-06
  19    0.00016216912469929
  20    2.8295716659886e-05
  21    -1.1298833531931e-05
  22    3.289995044911e-07
  23    6.1822533562975e-06
  24    -9.8856356149411e-06
  25       1.0014124516495
  26    0.0021206920225217
  27    -0.0070291357017122
  28    -1.5584093277664e-06
  29    1.4572138166195e-05
  30    -0.0015681671248393
  31    1.8341653042621e-07
  32    -4.7390998884607e-06
  33     0.002126323572637
  34    0.00014036015581691
  35    -2.5993532034826e-06
  36    1.0559329706695e-06
  37    6.1841372488577e-05
  38    -0.00016184264999766
  39    0.00029912928956804
  40    0.00043513622895283
  41    0.0017732955270215
  42    7.5608245117285e-06
  43    -3.311277680682e-06
  44    4.3990969379341e-05
  45    5.9417938661298e-05
  46    -4.9433970760843e-05
  47    0.0037240309379977
  48    -0.0004924717931826
  49    -8.9223117746844e-06
  50    2.9608589411533e-06
  51    3.3193680111875e-05
  52    -0.00011790343711634
  53    -8.1707673002202e-05
  54    -0.00016366123416824
  55    0.0013626412965377
  56    8.2655957123788e-05
  57    -1.1001071970939e-05
  58    -3.6660446426108e-05
  59    -0.00039804329418097
  60    0.00046676350795938
  61    -0.00099295630705931
  62    -0.00011395820937166
  63    0.00015389424118293
  64    -0.00014690172696037
  65    5.3517598572427e-05
  66    -0.00012514344027472
  67    -3.9466057378463e-05
  68    -8.7234135010833e-05
  69    0.00044934827984184
  70    -8.0975434861907e-05
  71    4.4263867504152e-05
  72    -7.7750713685422e-05
  73     0.001012593440648
  74    -0.00077856136873992
  75    -0.00070456127096202
  76    -0.00015186683566165
  77    -0.00011297390905217
  78    8.2701240279876e-05
  79    6.2756118535618e-05
  80    -0.00015163173033309
  81    -5.8135493210288e-05
  82    0.00021214101553577
  83    6.8159817017395e-05
  84    -5.0217944052334e-05
  85    4.8454566300536e-05
  86    2.477551082487e-05
  87    4.7602848755321e-05
  88    -0.00060816690900986
  89    -1.6284308587914e-05
  90    -1.6815102032806e-05
  91    1.2815255949625e-05
  92    0.00026514043066764
  93    0.00065020307991256
  94    -2.388429880718e-05
  95    1.8881413293661e-05
  96    1.1413845453948e-05
  97    8.939638984343e-06
  98    -1.90366576677e-05
  99    -5.1482727129184e-05
 100    -3.8591436540601e-05
 101    -0.00016563843229907
 102    4.6633822159187e-06
 103    -1.0322198460111e-05
 104    7.8140942392075e-05
 105    -3.3086441292229e-05
 106    -0.00024692010635653
 107    -6.2683740760561e-05
 108    6.4648001538227e-06
 109    7.9176197693093e-05
 110    7.2705834802978e-05
 111    -8.3192056095538e-05
 112    -4.3443236278133e-05
 113    2.1721037499116e-05
 114    7.3151007459955e-05
 115    0.00030540048496637
 116    -0.00025251629669943
 117    0.00084762578825817
 118    -0.00022336782339855
 119    2.2175224828434e-05
 120    -0.00036618835255706
 121    0.00019348721915466
 122    5.449388449195e-05
 123    -0.00036884116061981
 124    -1.0926853959941e-05
 125     1.11956600476e-05
 126    -1.969228930001e-06
 127    -2.3796974865477e-05
 128    2.8615945021491e-05
 129    -1.5876452056931e-05
 130    -0.000336517925346
 131    7.9047156802724e-06
 132    5.7729695712932e-06
 133    3.0133611265504e-05
 134    2.4048780583174e-05
 135    -0.00011988385314658
 136    -1.480242919544e-05
 137    -2.5098208533142e-05
 138    -2.647063592558e-05
 139    -6.2600371530528e-06
 140    -2.0224664145812e-05
 141    0.00030047946944826
 142    4.1569897368379e-06
 143    -3.1752043374848e-05
 144    -6.665451980013e-07
 145    -0.00021653358169589
 146    4.7619961972364e-05
 147    5.5266035350066e-05
 148    -2.1230844478752e-06
 149    5.8539360495757e-06
 150    -4.3982321321487e-06
 151    1.1809227019553e-05
 152    -4.2145147131279e-06
 153    -0.0004939103648847
 154    -0.00024030975455573
 155    -1.678419574039e-05
 156    4.9588380932701e-05
 157    3.9865865483475e-05
 158    -0.00020353228800667
 159    -0.00013988766860895
 160    -7.3182306663717e-05
 161    -2.4189472364158e-05
 162    5.9613920381924e-06
 163    -8.0996945009821e-05
 164    1.1508751967124e-05
 165    -0.00025525499711849
 166    0.00014693359064288
 167    -9.7202340971692e-05
 168    0.00022012110931505
 169    0.00029968607163139
 170    -0.00025700578628714
 171    -3.336029737747e-05
 172    -1.1463597929001e-05
 173    7.3449885845895e-06
 174    -2.0496929212739e-05
 175    6.0021825616674e-06
 176    -3.4257863376487e-05
 177    3.4808994571667e-06
 178    9.3672523784768e-05
 179    -3.456410661792e-06
 180    1.2722670441185e-06
 181    -5.6405956260316e-06
 182    2.0812223079455e-05
 183    2.107170283031e-05
 184    -9.1065089139627e-05
 185    -8.7368635435991e-06
 186    1.0415371306259e-05
 187    -5.6560979427261e-06
 188    0.00013052391744067
 189    -9.8541945719808e-05
 190    -0.00010301510213534
 191    6.8620029565966e-07
 192    3.5626389530971e-06
 193    -8.0592799799412e-06
 194    -3.2114958576209e-06
 195    -5.7033680134038e-06
 196    1.6523677809009e-05
 197    -9.7256827225544e-06
 198    6.2165156919898e-06
 199    3.4471728778218e-06
 200    -1.3641470817198e-06
 201    -0.00016779126723107
 202    -9.2394361472131e-05
 203    -1.4159053083978e-05
 204    -1.7908557353489e-07
 205    8.2570990670841e-06
 206    -8.589912948504e-05
 207    2.3792419277044e-05
 208    -6.9005472588702e-06
 209    8.5082480300222e-06
 210    1.8730518165222e-05
 211    -8.3769986194967e-06
 212    -3.8578827215479e-05
 213    0.00027876950137756
 214    3.4952488898256e-06
 215    6.5008552186114e-06
 216    3.4118638732258e-06
 217    0.00018489658189935
 218    -3.6955697269061e-05
 219    -8.3242057008935e-05
 220    -1.0954852756528e-05
 221    -8.4536738072206e-06
 222    2.0629652806356e-06
 223    1.1782697637692e-05
 224    -7.1451950695886e-06
 225    2.2625473255788e-05
 226    5.8773464800598e-05
 227    -1.2685323930622e-05
 228    -1.5929933184277e-06
 229    -8.4528135074416e-07
 230    1.8636867143101e-05
 231    5.9306098208915e-05
 232    -4.009388568993e-06
 233    6.6375258074684e-06
 234    1.2423025140006e-05
 235    5.6054422092499e-06
 236    -9.211546689908e-07
 237    -8.6140771658191e-05
 238    7.9717238016434e-06
 239    -4.0474886538366e-07
 240    -3.5023435475111e-06
 241    4.2846046624446e-05
 242    -6.4501493324409e-05
 243    1.7262696885564e-05
 244    1.8312641222777e-06
 245    2.9341717913247e-06
 246    -2.2566192846564e-06
 247    -1.6611555604744e-07
 248    9.3418934257157e-07
 249    -2.4226667105141e-05
 250    -6.5350956921375e-06
 251    -5.2422251439229e-06
 252    -6.1757058758157e-07
 253    -1.4352606720199e-07
 254    -2.9232140525373e-05
 255    4.7220156760807e-05
 256    1.5537277652161e-07
 257    4.2301942428601e-06
 258    -5.9995110675422e-07
 259    -2.903070375858e-06
 260    -1.4075598035144e-06
 261    9.0462744105814e-05
 262    1.4529679183746e-05