[Molden Format]
made by pyscf v[2.0.1]
[Atoms] (AU)
O   1   8     0.00000000000000     0.00000000000000     8.29613401107647
H   2   1     0.00000000000000     0.00000000000000     6.47273218917551
H   3   1    -0.05031916615174     1.78353065140343     8.67200570754314
O   4   8     0.00000000000000     0.00000000000000     2.31533471513237
C   5   6     0.00000000000000     0.00000000000000     0.00000000000000
C   6   6     2.01118073026938    -1.40227222164369    -1.50774939176400
C   7   6    -2.01249334291722     1.41331050329955    -1.50315905028694
H   8   1     3.32037363730244    -2.26721897153159    -0.13599698591495
C   9   6     3.45899267434009     0.28739631745591    -3.37437943254505
H   10   1     1.07662969841332    -2.94725144642667    -2.56541439481080
H   11   1    -2.67503415753480     0.18421555839588    -3.06194479365997
H   12   1    -1.07974048864772     3.03851734677796    -2.43674295017013
C   13   6    -4.21607110578555     2.32938802552922     0.11994162256091
H   14   1     4.24440173074564     1.93368664142019    -2.34976285512790
H   15   1     2.15020713235517     1.04714335134846    -4.81494497423699
C   16   6     5.60746363007797    -1.12419643481196    -4.70268606082550
H   17   1    -3.46838323670267     3.50951302338067     1.66946842715333
H   18   1    -5.11873485366228     0.68575958301209     1.04047743976495
C   19   6    -6.18314754751344     3.80909592987882    -1.39656589068747
H   20   1     6.93011263717176    -1.87550812453645    -3.26656317360070
C   21   6     7.06356622236532     0.52877932406334    -6.57829775293605
H   22   1     4.82318879258361    -2.78573437948532    -5.70504560381835
H   23   1    -6.91582688743803     2.61304780074712    -2.95074552451969
H   24   1    -5.26532430573853     5.45420349051338    -2.31005832200284
C   25   6    -8.39941882261433     4.73263980500213     0.21800571437956
H   26   1     7.83338371486801     2.19084139882824    -5.57093109900697
H   27   1     5.73544244039420     1.27376866537418    -8.01071492370229
C   28   6     9.21124858443101    -0.89699110072176    -7.88926949186242
H   29   1    -7.66272760055236     5.92277078003992     1.77035591474408
H   30   1    -9.31497248082589     3.08753015622020     1.12614408368786
C   31   6   -10.35481709231879     6.21833079391143    -1.30905206253246
H   32   1    10.58815905329501    -1.61074586756696    -6.49512691622620
H   33   1    10.23506248045667     0.32468009384095    -9.23072870921204
H   34   1     8.47665842847139    -2.53598436989925    -8.94921964622535
H   35   1    -9.48948872868064     7.90013588951020    -2.18823918416067
H   36   1   -11.93332513000955     6.86460487874102    -0.11255798845995
H   37   1   -11.15126291841033     5.04495968327630    -2.83849898862534
[GTO]
1 0
 s    8 1.00
                 11720  0.00070964594651845
                  1759  0.0054672722921914
                 400.8   0.027823118610189
                 113.7    0.10474773971146
                 37.03    0.28292084635691
                 13.27    0.44849523869833
                 5.025    0.27081688521277
                 1.013    0.01545029160744
 s    8 1.00
                 11720  -0.00031444341168873
                  1759  -0.0024821376810179
                 400.8  -0.012316355381583
                 113.7  -0.050538917343672
                 37.03   -0.13938490331632
                 13.27   -0.32507749481778
                 5.025   -0.22984830758785
                 1.013     1.0953793467883
 s    1 1.00
                0.3023                   1
 p    3 1.00
                  17.7   0.062679166281506
                 3.854    0.33353656587936
                 1.046    0.74123964163973
 p    1 1.00
                0.2753                   1
 d    1 1.00
                 1.185                   1

2 0
 s    3 1.00
                 13.01   0.033498726389998
                 1.962    0.23480080117413
                0.4446     0.8136829578829
 s    1 1.00
                 0.122                   1
 p    1 1.00
                 0.727                   1

3 0
 s    3 1.00
                 13.01   0.033498726389998
                 1.962    0.23480080117413
                0.4446     0.8136829578829
 s    1 1.00
                 0.122                   1
 p    1 1.00
                 0.727                   1

4 0
 s    8 1.00
                 11720  0.00070964594651845
                  1759  0.0054672722921914
                 400.8   0.027823118610189
                 113.7    0.10474773971146
                 37.03    0.28292084635691
                 13.27    0.44849523869833
                 5.025    0.27081688521277
                 1.013    0.01545029160744
 s    8 1.00
                 11720  -0.00031444341168873
                  1759  -0.0024821376810179
                 400.8  -0.012316355381583
                 113.7  -0.050538917343672
                 37.03   -0.13938490331632
                 13.27   -0.32507749481778
                 5.025   -0.22984830758785
                 1.013     1.0953793467883
 s    1 1.00
                0.3023                   1
 p    3 1.00
                  17.7   0.062679166281506
                 3.854    0.33353656587936
                 1.046    0.74123964163973
 p    1 1.00
                0.2753                   1
 d    1 1.00
                 1.185                   1

5 0
 s    8 1.00
                  6665  0.00069158396281299
                  1000  0.0053257961529341
                   228   0.027060721042034
                 64.71    0.10165684614077
                 21.06     0.2745748236174
                 7.495    0.44829431892377
                 2.797    0.28490261071525
                0.5215   0.015194859206082
 s    8 1.00
                  6665  -0.00029326965268655
                  1000  -0.0023180354739745
                   228  -0.011499786038565
                 64.71  -0.046826727009787
                 21.06   -0.12846616875047
                 7.495   -0.30126627246289
                 2.797   -0.25563070233011
                0.5215      1.093793361012
 s    1 1.00
                0.1596                   1
 p    3 1.00
                 9.439   0.056979251590039
                 2.002    0.31320721150073
                0.5456    0.76037674173753
 p    1 1.00
                0.1517                   1
 d    1 1.00
                  0.55                   1

6 0
 s    8 1.00
                  6665  0.00069158396281299
                  1000  0.0053257961529341
                   228   0.027060721042034
                 64.71    0.10165684614077
                 21.06     0.2745748236174
                 7.495    0.44829431892377
                 2.797    0.28490261071525
                0.5215   0.015194859206082
 s    8 1.00
                  6665  -0.00029326965268655
                  1000  -0.0023180354739745
                   228  -0.011499786038565
                 64.71  -0.046826727009787
                 21.06   -0.12846616875047
                 7.495   -0.30126627246289
                 2.797   -0.25563070233011
                0.5215      1.093793361012
 s    1 1.00
                0.1596                   1
 p    3 1.00
                 9.439   0.056979251590039
                 2.002    0.31320721150073
                0.5456    0.76037674173753
 p    1 1.00
                0.1517                   1
 d    1 1.00
                  0.55                   1

7 0
 s    8 1.00
                  6665  0.00069158396281299
                  1000  0.0053257961529341
                   228   0.027060721042034
                 64.71    0.10165684614077
                 21.06     0.2745748236174
                 7.495    0.44829431892377
                 2.797    0.28490261071525
                0.5215   0.015194859206082
 s    8 1.00
                  6665  -0.00029326965268655
                  1000  -0.0023180354739745
                   228  -0.011499786038565
                 64.71  -0.046826727009787
                 21.06   -0.12846616875047
                 7.495   -0.30126627246289
                 2.797   -0.25563070233011
                0.5215      1.093793361012
 s    1 1.00
                0.1596                   1
 p    3 1.00
                 9.439   0.056979251590039
                 2.002    0.31320721150073
                0.5456    0.76037674173753
 p    1 1.00
                0.1517                   1
 d    1 1.00
                  0.55                   1

8 0
 s    3 1.00
                 13.01   0.033498726389998
                 1.962    0.23480080117413
                0.4446     0.8136829578829
 s    1 1.00
                 0.122                   1
 p    1 1.00
                 0.727                   1

9 0
 s    8 1.00
                  6665  0.00069158396281299
                  1000  0.0053257961529341
                   228   0.027060721042034
                 64.71    0.10165684614077
                 21.06     0.2745748236174
                 7.495    0.44829431892377
                 2.797    0.28490261071525
                0.5215   0.015194859206082
 s    8 1.00
                  6665  -0.00029326965268655
                  1000  -0.0023180354739745
                   228  -0.011499786038565
                 64.71  -0.046826727009787
                 21.06   -0.12846616875047
                 7.495   -0.30126627246289
                 2.797   -0.25563070233011
                0.5215      1.093793361012
 s    1 1.00
                0.1596                   1
 p    3 1.00
                 9.439   0.056979251590039
                 2.002    0.31320721150073
                0.5456    0.76037674173753
 p    1 1.00
                0.1517                   1
 d    1 1.00
                  0.55                   1

10 0
 s    3 1.00
                 13.01   0.033498726389998
                 1.962    0.23480080117413
                0.4446     0.8136829578829
 s    1 1.00
                 0.122                   1
 p    1 1.00
                 0.727                   1

11 0
 s    3 1.00
                 13.01   0.033498726389998
                 1.962    0.23480080117413
                0.4446     0.8136829578829
 s    1 1.00
                 0.122                   1
 p    1 1.00
                 0.727                   1

12 0
 s    3 1.00
                 13.01   0.033498726389998
                 1.962    0.23480080117413
                0.4446     0.8136829578829
 s    1 1.00
                 0.122                   1
 p    1 1.00
                 0.727                   1

13 0
 s    8 1.00
                  6665  0.00069158396281299
                  1000  0.0053257961529341
                   228   0.027060721042034
                 64.71    0.10165684614077
                 21.06     0.2745748236174
                 7.495    0.44829431892377
                 2.797    0.28490261071525
                0.5215   0.015194859206082
 s    8 1.00
                  6665  -0.00029326965268655
                  1000  -0.0023180354739745
                   228  -0.011499786038565
                 64.71  -0.046826727009787
                 21.06   -0.12846616875047
                 7.495   -0.30126627246289
                 2.797   -0.25563070233011
                0.5215      1.093793361012
 s    1 1.00
                0.1596                   1
 p    3 1.00
                 9.439   0.056979251590039
                 2.002    0.31320721150073
                0.5456    0.76037674173753
 p    1 1.00
                0.1517                   1
 d    1 1.00
                  0.55                   1

14 0
 s    3 1.00
                 13.01   0.033498726389998
                 1.962    0.23480080117413
                0.4446     0.8136829578829
 s    1 1.00
                 0.122                   1
 p    1 1.00
                 0.727                   1

15 0
 s    3 1.00
                 13.01   0.033498726389998
                 1.962    0.23480080117413
                0.4446     0.8136829578829
 s    1 1.00
                 0.122                   1
 p    1 1.00
                 0.727                   1

16 0
 s    8 1.00
                  6665  0.00069158396281299
                  1000  0.0053257961529341
                   228   0.027060721042034
                 64.71    0.10165684614077
                 21.06     0.2745748236174
                 7.495    0.44829431892377
                 2.797    0.28490261071525
                0.5215   0.015194859206082
 s    8 1.00
                  6665  -0.00029326965268655
                  1000  -0.0023180354739745
                   228  -0.011499786038565
                 64.71  -0.046826727009787
                 21.06   -0.12846616875047
                 7.495   -0.30126627246289
                 2.797   -0.25563070233011
                0.5215      1.093793361012
 s    1 1.00
                0.1596                   1
 p    3 1.00
                 9.439   0.056979251590039
                 2.002    0.31320721150073
                0.5456    0.76037674173753
 p    1 1.00
                0.1517                   1
 d    1 1.00
                  0.55                   1

17 0
 s    3 1.00
                 13.01   0.033498726389998
                 1.962    0.23480080117413
                0.4446     0.8136829578829
 s    1 1.00
                 0.122                   1
 p    1 1.00
                 0.727                   1

18 0
 s    3 1.00
                 13.01   0.033498726389998
                 1.962    0.23480080117413
                0.4446     0.8136829578829
 s    1 1.00
                 0.122                   1
 p    1 1.00
                 0.727                   1

19 0
 s    8 1.00
                  6665  0.00069158396281299
                  1000  0.0053257961529341
                   228   0.027060721042034
                 64.71    0.10165684614077
                 21.06     0.2745748236174
                 7.495    0.44829431892377
                 2.797    0.28490261071525
                0.5215   0.015194859206082
 s    8 1.00
                  6665  -0.00029326965268655
                  1000  -0.0023180354739745
                   228  -0.011499786038565
                 64.71  -0.046826727009787
                 21.06   -0.12846616875047
                 7.495   -0.30126627246289
                 2.797   -0.25563070233011
                0.5215      1.093793361012
 s    1 1.00
                0.1596                   1
 p    3 1.00
                 9.439   0.056979251590039
                 2.002    0.31320721150073
                0.5456    0.76037674173753
 p    1 1.00
                0.1517                   1
 d    1 1.00
                  0.55                   1

20 0
 s    3 1.00
                 13.01   0.033498726389998
                 1.962    0.23480080117413
                0.4446     0.8136829578829
 s    1 1.00
                 0.122                   1
 p    1 1.00
                 0.727                   1

21 0
 s    8 1.00
                  6665  0.00069158396281299
                  1000  0.0053257961529341
                   228   0.027060721042034
                 64.71    0.10165684614077
                 21.06     0.2745748236174
                 7.495    0.44829431892377
                 2.797    0.28490261071525
                0.5215   0.015194859206082
 s    8 1.00
                  6665  -0.00029326965268655
                  1000  -0.0023180354739745
                   228  -0.011499786038565
                 64.71  -0.046826727009787
                 21.06   -0.12846616875047
                 7.495   -0.30126627246289
                 2.797   -0.25563070233011
                0.5215      1.093793361012
 s    1 1.00
                0.1596                   1
 p    3 1.00
                 9.439   0.056979251590039
                 2.002    0.31320721150073
                0.5456    0.76037674173753
 p    1 1.00
                0.1517                   1
 d    1 1.00
                  0.55                   1

22 0
 s    3 1.00
                 13.01   0.033498726389998
                 1.962    0.23480080117413
                0.4446     0.8136829578829
 s    1 1.00
                 0.122                   1
 p    1 1.00
                 0.727                   1

23 0
 s    3 1.00
                 13.01   0.033498726389998
                 1.962    0.23480080117413
                0.4446     0.8136829578829
 s    1 1.00
                 0.122                   1
 p    1 1.00
                 0.727                   1

24 0
 s    3 1.00
                 13.01   0.033498726389998
                 1.962    0.23480080117413
                0.4446     0.8136829578829
 s    1 1.00
                 0.122                   1
 p    1 1.00
                 0.727                   1

25 0
 s    8 1.00
                  6665  0.00069158396281299
                  1000  0.0053257961529341
                   228   0.027060721042034
                 64.71    0.10165684614077
                 21.06     0.2745748236174
                 7.495    0.44829431892377
                 2.797    0.28490261071525
                0.5215   0.015194859206082
 s    8 1.00
                  6665  -0.00029326965268655
                  1000  -0.0023180354739745
                   228  -0.011499786038565
                 64.71  -0.046826727009787
                 21.06   -0.12846616875047
                 7.495   -0.30126627246289
                 2.797   -0.25563070233011
                0.5215      1.093793361012
 s    1 1.00
                0.1596                   1
 p    3 1.00
                 9.439   0.056979251590039
                 2.002    0.31320721150073
                0.5456    0.76037674173753
 p    1 1.00
                0.1517                   1
 d    1 1.00
                  0.55                   1

26 0
 s    3 1.00
                 13.01   0.033498726389998
                 1.962    0.23480080117413
                0.4446     0.8136829578829
 s    1 1.00
                 0.122                   1
 p    1 1.00
                 0.727                   1

27 0
 s    3 1.00
                 13.01   0.033498726389998
                 1.962    0.23480080117413
                0.4446     0.8136829578829
 s    1 1.00
                 0.122                   1
 p    1 1.00
                 0.727                   1

28 0
 s    8 1.00
                  6665  0.00069158396281299
                  1000  0.0053257961529341
                   228   0.027060721042034
                 64.71    0.10165684614077
                 21.06     0.2745748236174
                 7.495    0.44829431892377
                 2.797    0.28490261071525
                0.5215   0.015194859206082
 s    8 1.00
                  6665  -0.00029326965268655
                  1000  -0.0023180354739745
                   228  -0.011499786038565
                 64.71  -0.046826727009787
                 21.06   -0.12846616875047
                 7.495   -0.30126627246289
                 2.797   -0.25563070233011
                0.5215      1.093793361012
 s    1 1.00
                0.1596                   1
 p    3 1.00
                 9.439   0.056979251590039
                 2.002    0.31320721150073
                0.5456    0.76037674173753
 p    1 1.00
                0.1517                   1
 d    1 1.00
                  0.55                   1

29 0
 s    3 1.00
                 13.01   0.033498726389998
                 1.962    0.23480080117413
                0.4446     0.8136829578829
 s    1 1.00
                 0.122                   1
 p    1 1.00
                 0.727                   1

30 0
 s    3 1.00
                 13.01   0.033498726389998
                 1.962    0.23480080117413
                0.4446     0.8136829578829
 s    1 1.00
                 0.122                   1
 p    1 1.00
                 0.727                   1

31 0
 s    8 1.00
                  6665  0.00069158396281299
                  1000  0.0053257961529341
                   228   0.027060721042034
                 64.71    0.10165684614077
                 21.06     0.2745748236174
                 7.495    0.44829431892377
                 2.797    0.28490261071525
                0.5215   0.015194859206082
 s    8 1.00
                  6665  -0.00029326965268655
                  1000  -0.0023180354739745
                   228  -0.011499786038565
                 64.71  -0.046826727009787
                 21.06   -0.12846616875047
                 7.495   -0.30126627246289
                 2.797   -0.25563070233011
                0.5215      1.093793361012
 s    1 1.00
                0.1596                   1
 p    3 1.00
                 9.439   0.056979251590039
                 2.002    0.31320721150073
                0.5456    0.76037674173753
 p    1 1.00
                0.1517                   1
 d    1 1.00
                  0.55                   1

32 0
 s    3 1.00
                 13.01   0.033498726389998
                 1.962    0.23480080117413
                0.4446     0.8136829578829
 s    1 1.00
                 0.122                   1
 p    1 1.00
                 0.727                   1

33 0
 s    3 1.00
                 13.01   0.033498726389998
                 1.962    0.23480080117413
                0.4446     0.8136829578829
 s    1 1.00
                 0.122                   1
 p    1 1.00
                 0.727                   1

34 0
 s    3 1.00
                 13.01   0.033498726389998
                 1.962    0.23480080117413
                0.4446     0.8136829578829
 s    1 1.00
                 0.122                   1
 p    1 1.00
                 0.727                   1

35 0
 s    3 1.00
                 13.01   0.033498726389998
                 1.962    0.23480080117413
                0.4446     0.8136829578829
 s    1 1.00
                 0.122                   1
 p    1 1.00
                 0.727                   1

36 0
 s    3 1.00
                 13.01   0.033498726389998
                 1.962    0.23480080117413
                0.4446     0.8136829578829
 s    1 1.00
                 0.122                   1
 p    1 1.00
                 0.727                   1

37 0
 s    3 1.00
                 13.01   0.033498726389998
                 1.962    0.23480080117413
                0.4446     0.8136829578829
 s    1 1.00
                 0.122                   1
 p    1 1.00
                 0.727                   1

[5d]
[7f]
[9g]

[MO]
 Sym= A
 Ene=               0
 Spin= Alpha
 Occup=    1.00000
   1    0.00011166937750916
   2    5.1638675711288e-05
   3    -0.00013458041313453
   4    -8.6276490389785e-08
   5    -5.7182144152253e-06
   6    -1.3821138194034e-05
   7    -3.4029962686251e-07
   8    2.4944970099299e-05
   9    6.369040594512e-05
  10    -3.4878114068547e-06
  11    1.5999417827527e-07
  12    -1.1035361291937e-06
  13    -8.594434180656e-07
  14    -2.5218135234597e-08
  15    3.5533515458803e-05
  16    0.00022328055451981
  17    4.7028048800039e-07
  18    -2.4200990527868e-06
  19    -2.2965854484651e-05
  20    3.1313201526192e-06
  21    -5.9956764804936e-05
  22    -1.4213810051609e-07
  23    9.0301010324767e-07
  24    2.5896422520997e-06
  25      -1.0013820802483
  26    -0.0019963282626988
  27    0.0069629553585583
  28    1.8813711890307e-06
  29    -9.2968125411039e-06
  30    0.0016338710557249
  31    1.3323752906829e-06
  32    3.1691652916467e-06
  33    -0.0019761273357261
  34    -0.00010876641380965
  35    2.7752636893395e-06
  36    -1.5023002358041e-06
  37    -6.6078995348408e-05
  38    0.00017177080616833
  39    -0.00029045959602134
  40    -0.00041702494381431
  41    -0.0015944629752728
  42    -8.4718688838275e-06
  43    3.7623980098603e-06
  44    -2.0764554395468e-05
  45    -7.3197072414251e-05
  46    5.7885188107217e-05
  47    -0.0036844799528364
  48    0.00050280534362147
  49    9.2198569248613e-06
  50    -3.6372759271474e-06
  51    -3.0234832204737e-05
  52    0.00011047492411147
  53    8.2161092585878e-05
  54    0.00016351709611694
  55    -0.0013764297457285
  56    -8.0522815903319e-05
  57    9.127717743909e-06
  58    3.5118547587059e-05
  59    0.0004200609742025
  60    -0.00047611540903027
  61    0.00098003157230898
  62    0.00011629868899723
  63    -0.000150594630856
  64    0.00014405646990962
  65    -5.3850922840447e-05
  66    0.00012669171760137
  67    4.1182270268961e-05
  68    9.106286695339e-05
  69    -0.00050165468567779
  70    7.6230883552412e-05
  71    -4.2135414247951e-05
  72    7.3984837371259e-05
  73    -0.0010235005155795
  74    0.00078926367214986
  75    0.00067784521832526
  76    0.00015266270400316
  77    0.00011108961232296
  78    -8.1876006657592e-05
  79    -6.284568585701e-05
  80    0.00015318748914577
  81    5.6826657978865e-05
  82    -0.00021860841178853
  83    -6.7132308218508e-05
  84    4.9293710580158e-05
  85    -4.7173060431979e-05
  86    -2.5301177896635e-05
  87    -4.8085047032979e-05
  88    0.00061489595036613
  89    1.6454939101325e-05
  90    1.677466825121e-05
  91    -1.1860294014408e-05
  92    -0.00026246308245055
  93    -0.00065083892905892
  94    1.3441792292789e-05
  95    -1.8668160416702e-05
  96    -1.148749674272e-05
  97    -8.6864708047806e-06
  98    1.9665108796425e-05
  99    4.971496989732e-05
 100    4.0277092515346e-05
 101    0.00016458643133643
 102    -6.2365220460985e-06
 103    1.0575684617259e-05
 104    -7.7557623786368e-05
 105    3.2729197959125e-05
 106    0.0002425293415505
 107    6.3621193174025e-05
 108    -8.361871459906e-06
 109    -7.7752899371264e-05
 110    -7.1888983667436e-05
 111    7.5791169876227e-05
 112    4.4414933926219e-05
 113    -2.1027224768722e-05
 114    -7.2403016578914e-05
 115    -0.00030538318681991
 116    0.00023028466199221
 117    -0.00080798713215317
 118    0.0002002037724519
 119    -1.3589270205564e-05
 120    0.00031733997130631
 121    -0.00021418954439009
 122    -4.2311835242377e-05
 123    0.00032974488182912
 124    1.1244849986093e-05
 125    -1.0193770599296e-05
 126    -7.3734449729235e-07
 127    2.4571555305178e-05
 128    -3.1498695179968e-05
 129    1.8646885670832e-05
 130    0.00033494730183867
 131    -7.8668145887682e-06
 132    -5.9975939582472e-06
 133    -2.9752624440081e-05
 134    -2.6108638706172e-05
 135    0.00012133281346472
 136    1.383236951431e-05
 137    2.5080193824495e-05
 138    2.7738243169904e-05
 139    3.2426210376497e-06
 140    1.7502027433677e-05
 141    -0.00031220967656695
 142    -8.2853783199662e-06
 143    2.6430247368584e-05
 144    3.8274012524774e-06
 145    0.00022824211850725
 146    -4.6715280226902e-05
 147    -5.7252400055772e-05
 148    2.2636428635596e-06
 149    -5.0059487317867e-06
 150    4.2457917794539e-06
 151    -1.2098702215576e-05
 152    4.6785576986071e-06
 153    0.00044835387031685
 154    0.00022400228711468
 155    1.8146368276793e-05
 156    -4.7054524097263e-05
 157    -3.6652489974948e-05
 158    0.00017865352987988
 159    0.00012826762964223
 160    7.1422181451443e-05
 161    2.1109866379035e-05
 162    -4.8665448488178e-06
 163    8.0696022799902e-05
 164    2.9494837402883e-06
 165    0.00023144189001404
 166    -0.00012677621628189
 167    8.3484536739366e-05
 168    -0.00020043255302396
 169    -0.00030732472954919
 170    0.00026157253581987
 171    3.7213174243492e-05
 172    1.1028491642385e-05
 173    -8.2277214942782e-06
 174    2.0381609102735e-05
 175    -5.9175310830228e-06
 176    3.3471643732163e-05
 177    -4.7945798254396e-06
 178    -9.3807945914215e-05
 179    2.7344293586277e-06
 180    -1.8687471885435e-06
 181    6.185446927911e-06
 182    -1.9538854628443e-05
 183    -2.085066785521e-05
 184    8.5882370480278e-05
 185    1.4646873302908e-05
 186    -6.8115117505472e-06
 187    1.7936906385301e-07
 188    -0.00012647263265525
 189    9.9510492796482e-05
 190    9.3262765127795e-05
 191    -1.2408037641486e-06
 192    -3.1304649524527e-06
 193    8.9154459681585e-06
 194    3.3965225467935e-06
 195    5.0361010192532e-06
 196    -1.3160951680222e-05
 197    1.2487668102396e-05
 198    -6.6989211539141e-06
 199    -3.5444017102235e-06
 200    1.6626125444418e-06
 201    0.00015912222937934
 202    8.2873202234562e-05
 203    1.4805608950237e-05
 204    -9.0679262399072e-07
 205    -8.2352916285275e-06
 206    8.1846697431364e-05
 207    -2.7669163566178e-05
 208    8.256504811746e-06
 209    -8.9834675162179e-06
 210    -1.8148582370374e-05
 211    8.9978034232965e-06
 212    4.0548582141188e-05
 213    -0.00027693708835506
 214    -4.2659675729606e-06
 215    -5.3164927457584e-06
 216    -2.0856398656501e-06
 217    -0.00018641344898056
 218    3.8393297009121e-05
 219    8.2089668926331e-05
 220    9.9668091944459e-06
 221    9.0520488026332e-06
 222    -2.311428191561e-06
 223    -1.1367929178754e-05
 224    6.4065646262784e-06
 225    -1.9730304629606e-05
 226    -5.5388876531787e-05
 227    1.2567631028804e-05
 228    1.3850752645599e-06
 229    8.0483959547289e-07
 230    -1.7670618123784e-05
 231    -6.1148863399594e-05
 232    4.0105099430084e-06
 233    -6.3755179817247e-06
 234    -1.2391919229023e-05
 235    -5.4239930356865e-06
 236    3.0837602875009e-06
 237    8.3505524901558e-05
 238    -1.1522162916477e-05
 239    9.6465264302685e-07
 240    6.1493553671358e-06
 241    -4.1389552671204e-05
 242    6.4765922526566e-05
 243    -1.704274918845e-05
 244    -1.8848236036375e-06
 245    -2.6797418818918e-06
 246    2.6303984487789e-06
 247    -1.5854644478261e-07
 248    -1.1128181576236e-06
 249    2.5160939380575e-05
 250    6.5423839909812e-06
 251    5.0454635770431e-06
 252    4.2925990277223e-07
 253    -1.4244698051046e-07
 254    2.911727414198e-05
 255    -4.6507452739169e-05
 256    7.0618226817125e-08
 257    -3.9399241609188e-06
 258    4.9620924399959e-07
 259    3.279881231223e-06
 260    4.5057682842075e-06
 261    -9.1427399970433e-05
 262    -1.1726126502112e-05
 263     1.06824212421e-05