[Molden Format]
made by pyscf v[2.0.1]
[Atoms] (AU)
O   1   8     0.00000000000000     0.00000000000000     6.40640788651141
H   2   1     0.00000000000000     0.00000000000000     4.58300606461044
H   3   1    -0.05031916615174     1.78353439551780     6.78227958297808
O   4   8     0.00000000000000     0.00000000000000     2.31533471513237
C   5   6     0.00000000000000     0.00000000000000     0.00000000000000
C   6   6     2.01118073026938    -1.40227222164369    -1.50774939176400
C   7   6    -2.01249334291722     1.41331050329955    -1.50319235519811
H   8   1     3.32037363730244    -2.26721897153159    -0.13599698591495
C   9   6     3.45899267434009     0.28739631745591    -3.37437943254505
H   10   1     1.07662969841332    -2.94725144642667    -2.56541439481080
H   11   1    -2.67503415753480     0.18421555839588    -3.06194479365997
H   12   1    -1.08005520873877     3.03851734677796    -2.43674295017013
C   13   6    -4.21607110578555     2.32938802552922     0.11994192435017
H   14   1     4.24440173074564     1.93368664387684    -2.34976285512790
H   15   1     2.18907033049676     1.04714335134846    -4.81494497423699
C   16   6     5.60746363007797    -1.12419643481196    -4.70268606082550
H   17   1    -3.46838323670267     3.50951302338067     1.66946842715333
H   18   1    -5.11873485366228     0.68575958301209     1.04047743976495
C   19   6    -6.18314754751344     3.80909592987882    -1.39656589068747
H   20   1     6.93011263717176    -1.87550812453645    -3.26656317360070
C   21   6     7.10306991577580     0.52877932406334    -6.57829775293605
H   22   1     4.82318879258361    -2.78573437948532    -5.70504560381835
H   23   1    -6.91582688743803     2.61304780074712    -2.95074552451969
H   24   1    -5.26532430573853     5.45420349051338    -2.31005832200284
C   25   6    -8.39941882261433     4.73263980500213     0.21800571437956
H   26   1     7.83338371486801     2.19084139882824    -5.57093109900697
H   27   1     5.73544244039420     1.27376866537418    -8.01071492370229
C   28   6     9.21124858443101    -0.89699110072176    -7.88926949186242
H   29   1    -7.66272760055236     5.92277078003992     1.77035591474408
H   30   1    -9.31497248082589     3.08753015622020     1.12614408368786
C   31   6   -10.35481709231879     6.21833079391143    -1.30905206253246
H   32   1    10.58815905329501    -1.61099162890610    -6.52093739071026
H   33   1    10.23506248045667     0.32468009384095    -9.23072870921204
H   34   1     8.47665842847139    -2.53598436989925    -8.94921964622535
H   35   1    -9.48948872868064     7.90013588951020    -2.18823918416067
H   36   1   -11.93332774482359     6.86460487874102    -0.11255798845995
H   37   1   -11.15126291841033     5.04495968327630    -2.83849898862534
[GTO]
1 0
 s    8 1.00
                 11720  0.00070964594651845
                  1759  0.0054672722921914
                 400.8   0.027823118610189
                 113.7    0.10474773971146
                 37.03    0.28292084635691
                 13.27    0.44849523869833
                 5.025    0.27081688521277
                 1.013    0.01545029160744
 s    8 1.00
                 11720  -0.00031444341168873
                  1759  -0.0024821376810179
                 400.8  -0.012316355381583
                 113.7  -0.050538917343672
                 37.03   -0.13938490331632
                 13.27   -0.32507749481778
                 5.025   -0.22984830758785
                 1.013     1.0953793467883
 s    1 1.00
                0.3023                   1
 p    3 1.00
                  17.7   0.062679166281506
                 3.854    0.33353656587936
                 1.046    0.74123964163973
 p    1 1.00
                0.2753                   1
 d    1 1.00
                 1.185                   1

2 0
 s    3 1.00
                 13.01   0.033498726389998
                 1.962    0.23480080117413
                0.4446     0.8136829578829
 s    1 1.00
                 0.122                   1
 p    1 1.00
                 0.727                   1

3 0
 s    3 1.00
                 13.01   0.033498726389998
                 1.962    0.23480080117413
                0.4446     0.8136829578829
 s    1 1.00
                 0.122                   1
 p    1 1.00
                 0.727                   1

4 0
 s    8 1.00
                 11720  0.00070964594651845
                  1759  0.0054672722921914
                 400.8   0.027823118610189
                 113.7    0.10474773971146
                 37.03    0.28292084635691
                 13.27    0.44849523869833
                 5.025    0.27081688521277
                 1.013    0.01545029160744
 s    8 1.00
                 11720  -0.00031444341168873
                  1759  -0.0024821376810179
                 400.8  -0.012316355381583
                 113.7  -0.050538917343672
                 37.03   -0.13938490331632
                 13.27   -0.32507749481778
                 5.025   -0.22984830758785
                 1.013     1.0953793467883
 s    1 1.00
                0.3023                   1
 p    3 1.00
                  17.7   0.062679166281506
                 3.854    0.33353656587936
                 1.046    0.74123964163973
 p    1 1.00
                0.2753                   1
 d    1 1.00
                 1.185                   1

5 0
 s    8 1.00
                  6665  0.00069158396281299
                  1000  0.0053257961529341
                   228   0.027060721042034
                 64.71    0.10165684614077
                 21.06     0.2745748236174
                 7.495    0.44829431892377
                 2.797    0.28490261071525
                0.5215   0.015194859206082
 s    8 1.00
                  6665  -0.00029326965268655
                  1000  -0.0023180354739745
                   228  -0.011499786038565
                 64.71  -0.046826727009787
                 21.06   -0.12846616875047
                 7.495   -0.30126627246289
                 2.797   -0.25563070233011
                0.5215      1.093793361012
 s    1 1.00
                0.1596                   1
 p    3 1.00
                 9.439   0.056979251590039
                 2.002    0.31320721150073
                0.5456    0.76037674173753
 p    1 1.00
                0.1517                   1
 d    1 1.00
                  0.55                   1

6 0
 s    8 1.00
                  6665  0.00069158396281299
                  1000  0.0053257961529341
                   228   0.027060721042034
                 64.71    0.10165684614077
                 21.06     0.2745748236174
                 7.495    0.44829431892377
                 2.797    0.28490261071525
                0.5215   0.015194859206082
 s    8 1.00
                  6665  -0.00029326965268655
                  1000  -0.0023180354739745
                   228  -0.011499786038565
                 64.71  -0.046826727009787
                 21.06   -0.12846616875047
                 7.495   -0.30126627246289
                 2.797   -0.25563070233011
                0.5215      1.093793361012
 s    1 1.00
                0.1596                   1
 p    3 1.00
                 9.439   0.056979251590039
                 2.002    0.31320721150073
                0.5456    0.76037674173753
 p    1 1.00
                0.1517                   1
 d    1 1.00
                  0.55                   1

7 0
 s    8 1.00
                  6665  0.00069158396281299
                  1000  0.0053257961529341
                   228   0.027060721042034
                 64.71    0.10165684614077
                 21.06     0.2745748236174
                 7.495    0.44829431892377
                 2.797    0.28490261071525
                0.5215   0.015194859206082
 s    8 1.00
                  6665  -0.00029326965268655
                  1000  -0.0023180354739745
                   228  -0.011499786038565
                 64.71  -0.046826727009787
                 21.06   -0.12846616875047
                 7.495   -0.30126627246289
                 2.797   -0.25563070233011
                0.5215      1.093793361012
 s    1 1.00
                0.1596                   1
 p    3 1.00
                 9.439   0.056979251590039
                 2.002    0.31320721150073
                0.5456    0.76037674173753
 p    1 1.00
                0.1517                   1
 d    1 1.00
                  0.55                   1

8 0
 s    3 1.00
                 13.01   0.033498726389998
                 1.962    0.23480080117413
                0.4446     0.8136829578829
 s    1 1.00
                 0.122                   1
 p    1 1.00
                 0.727                   1

9 0
 s    8 1.00
                  6665  0.00069158396281299
                  1000  0.0053257961529341
                   228   0.027060721042034
                 64.71    0.10165684614077
                 21.06     0.2745748236174
                 7.495    0.44829431892377
                 2.797    0.28490261071525
                0.5215   0.015194859206082
 s    8 1.00
                  6665  -0.00029326965268655
                  1000  -0.0023180354739745
                   228  -0.011499786038565
                 64.71  -0.046826727009787
                 21.06   -0.12846616875047
                 7.495   -0.30126627246289
                 2.797   -0.25563070233011
                0.5215      1.093793361012
 s    1 1.00
                0.1596                   1
 p    3 1.00
                 9.439   0.056979251590039
                 2.002    0.31320721150073
                0.5456    0.76037674173753
 p    1 1.00
                0.1517                   1
 d    1 1.00
                  0.55                   1

10 0
 s    3 1.00
                 13.01   0.033498726389998
                 1.962    0.23480080117413
                0.4446     0.8136829578829
 s    1 1.00
                 0.122                   1
 p    1 1.00
                 0.727                   1

11 0
 s    3 1.00
                 13.01   0.033498726389998
                 1.962    0.23480080117413
                0.4446     0.8136829578829
 s    1 1.00
                 0.122                   1
 p    1 1.00
                 0.727                   1

12 0
 s    3 1.00
                 13.01   0.033498726389998
                 1.962    0.23480080117413
                0.4446     0.8136829578829
 s    1 1.00
                 0.122                   1
 p    1 1.00
                 0.727                   1

13 0
 s    8 1.00
                  6665  0.00069158396281299
                  1000  0.0053257961529341
                   228   0.027060721042034
                 64.71    0.10165684614077
                 21.06     0.2745748236174
                 7.495    0.44829431892377
                 2.797    0.28490261071525
                0.5215   0.015194859206082
 s    8 1.00
                  6665  -0.00029326965268655
                  1000  -0.0023180354739745
                   228  -0.011499786038565
                 64.71  -0.046826727009787
                 21.06   -0.12846616875047
                 7.495   -0.30126627246289
                 2.797   -0.25563070233011
                0.5215      1.093793361012
 s    1 1.00
                0.1596                   1
 p    3 1.00
                 9.439   0.056979251590039
                 2.002    0.31320721150073
                0.5456    0.76037674173753
 p    1 1.00
                0.1517                   1
 d    1 1.00
                  0.55                   1

14 0
 s    3 1.00
                 13.01   0.033498726389998
                 1.962    0.23480080117413
                0.4446     0.8136829578829
 s    1 1.00
                 0.122                   1
 p    1 1.00
                 0.727                   1

15 0
 s    3 1.00
                 13.01   0.033498726389998
                 1.962    0.23480080117413
                0.4446     0.8136829578829
 s    1 1.00
                 0.122                   1
 p    1 1.00
                 0.727                   1

16 0
 s    8 1.00
                  6665  0.00069158396281299
                  1000  0.0053257961529341
                   228   0.027060721042034
                 64.71    0.10165684614077
                 21.06     0.2745748236174
                 7.495    0.44829431892377
                 2.797    0.28490261071525
                0.5215   0.015194859206082
 s    8 1.00
                  6665  -0.00029326965268655
                  1000  -0.0023180354739745
                   228  -0.011499786038565
                 64.71  -0.046826727009787
                 21.06   -0.12846616875047
                 7.495   -0.30126627246289
                 2.797   -0.25563070233011
                0.5215      1.093793361012
 s    1 1.00
                0.1596                   1
 p    3 1.00
                 9.439   0.056979251590039
                 2.002    0.31320721150073
                0.5456    0.76037674173753
 p    1 1.00
                0.1517                   1
 d    1 1.00
                  0.55                   1

17 0
 s    3 1.00
                 13.01   0.033498726389998
                 1.962    0.23480080117413
                0.4446     0.8136829578829
 s    1 1.00
                 0.122                   1
 p    1 1.00
                 0.727                   1

18 0
 s    3 1.00
                 13.01   0.033498726389998
                 1.962    0.23480080117413
                0.4446     0.8136829578829
 s    1 1.00
                 0.122                   1
 p    1 1.00
                 0.727                   1

19 0
 s    8 1.00
                  6665  0.00069158396281299
                  1000  0.0053257961529341
                   228   0.027060721042034
                 64.71    0.10165684614077
                 21.06     0.2745748236174
                 7.495    0.44829431892377
                 2.797    0.28490261071525
                0.5215   0.015194859206082
 s    8 1.00
                  6665  -0.00029326965268655
                  1000  -0.0023180354739745
                   228  -0.011499786038565
                 64.71  -0.046826727009787
                 21.06   -0.12846616875047
                 7.495   -0.30126627246289
                 2.797   -0.25563070233011
                0.5215      1.093793361012
 s    1 1.00
                0.1596                   1
 p    3 1.00
                 9.439   0.056979251590039
                 2.002    0.31320721150073
                0.5456    0.76037674173753
 p    1 1.00
                0.1517                   1
 d    1 1.00
                  0.55                   1

20 0
 s    3 1.00
                 13.01   0.033498726389998
                 1.962    0.23480080117413
                0.4446     0.8136829578829
 s    1 1.00
                 0.122                   1
 p    1 1.00
                 0.727                   1

21 0
 s    8 1.00
                  6665  0.00069158396281299
                  1000  0.0053257961529341
                   228   0.027060721042034
                 64.71    0.10165684614077
                 21.06     0.2745748236174
                 7.495    0.44829431892377
                 2.797    0.28490261071525
                0.5215   0.015194859206082
 s    8 1.00
                  6665  -0.00029326965268655
                  1000  -0.0023180354739745
                   228  -0.011499786038565
                 64.71  -0.046826727009787
                 21.06   -0.12846616875047
                 7.495   -0.30126627246289
                 2.797   -0.25563070233011
                0.5215      1.093793361012
 s    1 1.00
                0.1596                   1
 p    3 1.00
                 9.439   0.056979251590039
                 2.002    0.31320721150073
                0.5456    0.76037674173753
 p    1 1.00
                0.1517                   1
 d    1 1.00
                  0.55                   1

22 0
 s    3 1.00
                 13.01   0.033498726389998
                 1.962    0.23480080117413
                0.4446     0.8136829578829
 s    1 1.00
                 0.122                   1
 p    1 1.00
                 0.727                   1

23 0
 s    3 1.00
                 13.01   0.033498726389998
                 1.962    0.23480080117413
                0.4446     0.8136829578829
 s    1 1.00
                 0.122                   1
 p    1 1.00
                 0.727                   1

24 0
 s    3 1.00
                 13.01   0.033498726389998
                 1.962    0.23480080117413
                0.4446     0.8136829578829
 s    1 1.00
                 0.122                   1
 p    1 1.00
                 0.727                   1

25 0
 s    8 1.00
                  6665  0.00069158396281299
                  1000  0.0053257961529341
                   228   0.027060721042034
                 64.71    0.10165684614077
                 21.06     0.2745748236174
                 7.495    0.44829431892377
                 2.797    0.28490261071525
                0.5215   0.015194859206082
 s    8 1.00
                  6665  -0.00029326965268655
                  1000  -0.0023180354739745
                   228  -0.011499786038565
                 64.71  -0.046826727009787
                 21.06   -0.12846616875047
                 7.495   -0.30126627246289
                 2.797   -0.25563070233011
                0.5215      1.093793361012
 s    1 1.00
                0.1596                   1
 p    3 1.00
                 9.439   0.056979251590039
                 2.002    0.31320721150073
                0.5456    0.76037674173753
 p    1 1.00
                0.1517                   1
 d    1 1.00
                  0.55                   1

26 0
 s    3 1.00
                 13.01   0.033498726389998
                 1.962    0.23480080117413
                0.4446     0.8136829578829
 s    1 1.00
                 0.122                   1
 p    1 1.00
                 0.727                   1

27 0
 s    3 1.00
                 13.01   0.033498726389998
                 1.962    0.23480080117413
                0.4446     0.8136829578829
 s    1 1.00
                 0.122                   1
 p    1 1.00
                 0.727                   1

28 0
 s    8 1.00
                  6665  0.00069158396281299
                  1000  0.0053257961529341
                   228   0.027060721042034
                 64.71    0.10165684614077
                 21.06     0.2745748236174
                 7.495    0.44829431892377
                 2.797    0.28490261071525
                0.5215   0.015194859206082
 s    8 1.00
                  6665  -0.00029326965268655
                  1000  -0.0023180354739745
                   228  -0.011499786038565
                 64.71  -0.046826727009787
                 21.06   -0.12846616875047
                 7.495   -0.30126627246289
                 2.797   -0.25563070233011
                0.5215      1.093793361012
 s    1 1.00
                0.1596                   1
 p    3 1.00
                 9.439   0.056979251590039
                 2.002    0.31320721150073
                0.5456    0.76037674173753
 p    1 1.00
                0.1517                   1
 d    1 1.00
                  0.55                   1

29 0
 s    3 1.00
                 13.01   0.033498726389998
                 1.962    0.23480080117413
                0.4446     0.8136829578829
 s    1 1.00
                 0.122                   1
 p    1 1.00
                 0.727                   1

30 0
 s    3 1.00
                 13.01   0.033498726389998
                 1.962    0.23480080117413
                0.4446     0.8136829578829
 s    1 1.00
                 0.122                   1
 p    1 1.00
                 0.727                   1

31 0
 s    8 1.00
                  6665  0.00069158396281299
                  1000  0.0053257961529341
                   228   0.027060721042034
                 64.71    0.10165684614077
                 21.06     0.2745748236174
                 7.495    0.44829431892377
                 2.797    0.28490261071525
                0.5215   0.015194859206082
 s    8 1.00
                  6665  -0.00029326965268655
                  1000  -0.0023180354739745
                   228  -0.011499786038565
                 64.71  -0.046826727009787
                 21.06   -0.12846616875047
                 7.495   -0.30126627246289
                 2.797   -0.25563070233011
                0.5215      1.093793361012
 s    1 1.00
                0.1596                   1
 p    3 1.00
                 9.439   0.056979251590039
                 2.002    0.31320721150073
                0.5456    0.76037674173753
 p    1 1.00
                0.1517                   1
 d    1 1.00
                  0.55                   1

32 0
 s    3 1.00
                 13.01   0.033498726389998
                 1.962    0.23480080117413
                0.4446     0.8136829578829
 s    1 1.00
                 0.122                   1
 p    1 1.00
                 0.727                   1

33 0
 s    3 1.00
                 13.01   0.033498726389998
                 1.962    0.23480080117413
                0.4446     0.8136829578829
 s    1 1.00
                 0.122                   1
 p    1 1.00
                 0.727                   1

34 0
 s    3 1.00
                 13.01   0.033498726389998
                 1.962    0.23480080117413
                0.4446     0.8136829578829
 s    1 1.00
                 0.122                   1
 p    1 1.00
                 0.727                   1

35 0
 s    3 1.00
                 13.01   0.033498726389998
                 1.962    0.23480080117413
                0.4446     0.8136829578829
 s    1 1.00
                 0.122                   1
 p    1 1.00
                 0.727                   1

36 0
 s    3 1.00
                 13.01   0.033498726389998
                 1.962    0.23480080117413
                0.4446     0.8136829578829
 s    1 1.00
                 0.122                   1
 p    1 1.00
                 0.727                   1

37 0
 s    3 1.00
                 13.01   0.033498726389998
                 1.962    0.23480080117413
                0.4446     0.8136829578829
 s    1 1.00
                 0.122                   1
 p    1 1.00
                 0.727                   1

[5d]
[7f]
[9g]

[MO]
 Sym= A
 Ene=               0
 Spin= Alpha
 Occup=    1.00000
   1    -0.00015290793575782
   2    -2.8672677461266e-05
   3    -0.0002977864784725
   4    1.4259794961846e-06
   5    -7.4108302429697e-07
   6    0.00012501780933444
   7    -3.4543785865731e-06
   8    -8.1909239791202e-06
   9    0.00024380444643212
  10    -0.0001095969439989
  11    -1.7083555072498e-07
  12    1.6885653382265e-06
  13    4.9775963704228e-06
  14    3.209055581934e-07
  15    5.834333714646e-05
  16    -7.0198069421883e-05
  17    -9.7681273085344e-07
  18    5.1860681215553e-06
  19    0.00039392796082056
  20    3.7716445052972e-05
  21    -3.6564586921468e-05
  22    4.0216845377011e-07
  23    8.9032148567966e-06
  24    -5.382326861218e-06
  25       1.0014274468865
  26    0.0022164683286476
  27    -0.0068820950366912
  28    -5.1439652071806e-07
  29    1.6336779190724e-05
  30    -0.001477957479905
  31    6.523884320443e-07
  32    -4.9690951898681e-06
  33    0.0022383756522568
  34    0.00023433652366018
  35    -2.5536569680273e-06
  36    5.1433960981256e-07
  37    5.9437835893389e-05
  38    -0.00015714245541456
  39    0.00029925939212907
  40    0.00043079546383405
  41    0.0018709160659261
  42    6.5851752616951e-06
  43    -3.412952458804e-06
  44    3.8453637432463e-05
  45    4.5922591634774e-05
  46    -4.005286526923e-05
  47    0.0036219615137135
  48    -0.0005201996638661
  49    -8.6737966184674e-06
  50    2.1252386318181e-06
  51    3.6139407894312e-05
  52    -0.00012473415008863
  53    -8.2701175334892e-05
  54    -0.00016619855278474
  55    0.0013239177624633
  56    8.5272915343648e-05
  57    -1.356435546618e-05
  58    -4.031675085866e-05
  59    -0.00036311557902835
  60    0.00044834469775877
  61    -0.0009673485605958
  62    -0.00011176512275047
  63    0.0001589701126953
  64    -0.00015056384847843
  65    5.3473786196692e-05
  66    -0.00012602547378617
  67    -4.0037070787262e-05
  68    -8.8242782406959e-05
  69    0.0003911384713419
  70    -8.4276995208864e-05
  71    4.5188215915366e-05
  72    -8.1793489004881e-05
  73    0.00097021696253794
  74    -0.00074304418657151
  75    -0.0007031810332478
  76    -0.00014974288587821
  77    -0.0001173200999406
  78    8.5367681157394e-05
  79    6.2801036164323e-05
  80    -0.0001510028897303
  81    -6.4820524482616e-05
  82    0.0001950954284117
  83    6.7962206433069e-05
  84    -5.0281027973421e-05
  85    5.2116144836713e-05
  86    2.5395920230987e-05
  87    4.9030705949812e-05
  88    -0.00058982804781344
  89    -1.6519909363397e-05
  90    -1.5917761162939e-05
  91    1.3741871461432e-05
  92    0.00026797675022151
  93    0.00062735789614276
  94    -4.1689595533497e-05
  95    1.8567880489179e-05
  96    1.1085641622373e-05
  97    7.6196990975995e-06
  98    -2.053865843384e-05
  99    -5.1150755640458e-05
 100    -3.3748091513767e-05
 101    -0.00016163274656689
 102    5.6699735637002e-06
 103    -9.6972644838521e-06
 104    7.6205611513387e-05
 105    -3.0897079220544e-05
 106    -0.00024349592334391
 107    -6.2156399873688e-05
 108    6.5454417691684e-06
 109    7.8061782456079e-05
 110    7.3357461433151e-05
 111    -8.6943818323887e-05
 112    -4.3307343033435e-05
 113    2.1063659652751e-05
 114    7.1564648516027e-05
 115    0.00030320224131743
 116    -0.00026523082372754
 117    0.00085512731473813
 118    -0.00023193143575585
 119    2.3349402445191e-05
 120    -0.00038135592564493
 121     0.000175299241532
 122    5.638793094461e-05
 123    -0.00038192744475525
 124    -1.1360691660632e-05
 125    1.407822693942e-05
 126    -4.1469885401035e-06
 127    -2.3353434880968e-05
 128    2.5357584822717e-05
 129    -1.227685335026e-05
 130    -0.00032625840375769
 131    7.328248584966e-06
 132    5.4208220009511e-06
 133    3.0367862711359e-05
 134    2.0856183524176e-05
 135    -0.00011442197291603
 136    -1.7904073096987e-05
 137    -2.5105188122191e-05
 138    -2.4110080207197e-05
 139    -4.7262807503959e-06
 140    -1.7104551198665e-05
 141    0.00027349225772638
 142    3.2959230577752e-06
 143    -3.1493304868384e-05
 144    -1.0556568441631e-06
 145    -0.0001974102730356
 146    4.5066727637825e-05
 147    5.2770331923004e-05
 148    -1.8933544767763e-06
 149    6.2213303912979e-06
 150    -3.9398244529131e-06
 151    1.077121663799e-05
 152    -3.4694323544125e-06
 153    -0.00050927086684364
 154    -0.00024562224941804
 155    -1.5874787514694e-05
 156    5.0408453587308e-05
 157    4.0827774877225e-05
 158    -0.00021040672653348
 159    -0.00014609222096942
 160    -7.2812991572754e-05
 161    -2.5060132768293e-05
 162    6.637212568693e-06
 163    -7.8668873804981e-05
 164    1.7732757575569e-05
 165    -0.00026914781201108
 166    0.00015062976954643
 167    -9.9473515808254e-05
 168    0.00022569543899019
 169    0.00028053208782813
 170    -0.00024240656659911
 171    -2.9499212205716e-05
 172    -1.1269833247948e-05
 173    5.6193780455767e-06
 174    -1.9535873391725e-05
 175    5.8687500414379e-06
 176    -3.3212645309748e-05
 177    2.821263243758e-06
 178    8.9706144551838e-05
 179    -3.9387755439334e-06
 180    9.7311816940663e-07
 181    -5.2882451118588e-06
 182    2.0248562332574e-05
 183    2.064951789376e-05
 184    -7.8278861608391e-05
 185    -8.4584736080345e-06
 186    1.026900182504e-05
 187    -5.4185847330358e-06
 188    0.00013411914063507
 189    -0.00010214293965396
 190    -0.0001089850183337
 191    2.6323675836929e-07
 192    3.0994351227068e-06
 193    -7.3396951220363e-06
 194    -2.8623510217142e-06
 195    -5.4844921228926e-06
 196    1.812684796863e-05
 197    -6.9741503502345e-06
 198    5.5081485434206e-06
 199    3.4269589318895e-06
 200    -1.3610688366112e-06
 201    -0.00016973762454477
 202    -9.5324013743339e-05
 203    -1.3261723731275e-05
 204    -9.2471371955479e-07
 205    7.9385164101999e-06
 206    -8.6242280887756e-05
 207    2.1653820753342e-05
 208    -5.7250261699083e-06
 209    7.9298522496417e-06
 210    1.8520399011531e-05
 211    -7.9115786162025e-06
 212    -3.5920949375073e-05
 213    0.0002688756176068
 214    4.9644548361388e-06
 215    6.2257477424196e-06
 216    2.7946286334649e-06
 217    0.00018154707515101
 218    -3.6930356789084e-05
 219    -8.1142549899225e-05
 220    -1.1125957623239e-05
 221    -8.0853357987625e-06
 222    1.9292193881278e-06
 223    1.1734443358123e-05
 224    -7.2828135468533e-06
 225    2.3311207561664e-05
 226    6.0400363704021e-05
 227    -1.2818294414045e-05
 228    -1.3628296492341e-06
 229    -5.5379841771688e-07
 230    1.8979502067748e-05
 231    5.5478900989113e-05
 232    -3.6806158806627e-06
 233    6.7705672692244e-06
 234    1.2459304386119e-05
 235    6.2549964761361e-06
 236    6.3690034265091e-07
 237    -9.8370741684082e-05
 238    7.4384722928885e-06
 239    -4.8275493307762e-07
 240    -3.0910802048774e-06
 241    4.6879026592954e-05
 242    -6.5737161155191e-05
 243    1.226486577286e-05
 244    1.7174206527547e-06
 245    3.1998105077455e-06
 246    -2.2940002260785e-06
 247    -3.5607880915245e-07
 248    1.2311562710305e-06
 249    -2.3641927545611e-05
 250    -6.1692431251115e-06
 251    -5.2685231987412e-06
 252    -6.1354654825674e-07
 253    -4.3565846595245e-07
 254    -2.9175145966939e-05
 255    4.6775842803741e-05
 256    2.4714286277961e-07
 257    4.3106728355302e-06
 258    -7.8372502776726e-07
 259    -2.5413318800473e-06
 260    -1.2555765758362e-07
 261    8.9082952845631e-05
 262     1.49326850499e-05