[Molden Format]
made by pyscf v[2.0.1]
[Atoms] (AU)
O   1   8     0.00000000000000     0.00000000000000     8.29613401107647
H   2   1     0.00000000000000     0.00000000000000     6.47273218917551
H   3   1    -0.05031916615174     1.78353065140343     8.67200570754314
O   4   8     0.00000000000000     0.00000000000000     2.31533471513237
C   5   6     0.00000000000000     0.00000000000000     0.00000000000000
C   6   6     2.01118073026938    -1.40227222164369    -1.50774939176400
C   7   6    -2.01249334291722     1.41331050329955    -1.50315905028694
H   8   1     3.32037363730244    -2.26721897153159    -0.13599698591495
C   9   6     3.45899267434009     0.28739631745591    -3.37437943254505
H   10   1     1.07662969841332    -2.94725144642667    -2.56541439481080
H   11   1    -2.67503415753480     0.18421555839588    -3.06194479365997
H   12   1    -1.07974048864772     3.03851734677796    -2.43674295017013
C   13   6    -4.21607110578555     2.32938802552922     0.11994162256091
H   14   1     4.24440173074564     1.93368664142019    -2.34976285512790
H   15   1     2.15020713235517     1.04714335134846    -4.81494497423699
C   16   6     5.60746363007797    -1.12419643481196    -4.70268606082550
H   17   1    -3.46838323670267     3.50951302338067     1.66946842715333
H   18   1    -5.11873485366228     0.68575958301209     1.04047743976495
C   19   6    -6.18314754751344     3.80909592987882    -1.39656589068747
H   20   1     6.93011263717176    -1.87550812453645    -3.26656317360070
C   21   6     7.06356622236532     0.52877932406334    -6.57829775293605
H   22   1     4.82318879258361    -2.78573437948532    -5.70504560381835
H   23   1    -6.91582688743803     2.61304780074712    -2.95074552451969
H   24   1    -5.26532430573853     5.45420349051338    -2.31005832200284
C   25   6    -8.39941882261433     4.73263980500213     0.21800571437956
H   26   1     7.83338371486801     2.19084139882824    -5.57093109900697
H   27   1     5.73544244039420     1.27376866537418    -8.01071492370229
C   28   6     9.21124858443101    -0.89699110072176    -7.88926949186242
H   29   1    -7.66272760055236     5.92277078003992     1.77035591474408
H   30   1    -9.31497248082589     3.08753015622020     1.12614408368786
C   31   6   -10.35481709231879     6.21833079391143    -1.30905206253246
H   32   1    10.58815905329501    -1.61074586756696    -6.49512691622620
H   33   1    10.23506248045667     0.32468009384095    -9.23072870921204
H   34   1     8.47665842847139    -2.53598436989925    -8.94921964622535
H   35   1    -9.48948872868064     7.90013588951020    -2.18823918416067
H   36   1   -11.93332513000955     6.86460487874102    -0.11255798845995
H   37   1   -11.15126291841033     5.04495968327630    -2.83849898862534
[GTO]
1 0
 s    8 1.00
                 11720  0.00070964594651845
                  1759  0.0054672722921914
                 400.8   0.027823118610189
                 113.7    0.10474773971146
                 37.03    0.28292084635691
                 13.27    0.44849523869833
                 5.025    0.27081688521277
                 1.013    0.01545029160744
 s    8 1.00
                 11720  -0.00031444341168873
                  1759  -0.0024821376810179
                 400.8  -0.012316355381583
                 113.7  -0.050538917343672
                 37.03   -0.13938490331632
                 13.27   -0.32507749481778
                 5.025   -0.22984830758785
                 1.013     1.0953793467883
 s    1 1.00
                0.3023                   1
 p    3 1.00
                  17.7   0.062679166281506
                 3.854    0.33353656587936
                 1.046    0.74123964163973
 p    1 1.00
                0.2753                   1
 d    1 1.00
                 1.185                   1

2 0
 s    3 1.00
                 13.01   0.033498726389998
                 1.962    0.23480080117413
                0.4446     0.8136829578829
 s    1 1.00
                 0.122                   1
 p    1 1.00
                 0.727                   1

3 0
 s    3 1.00
                 13.01   0.033498726389998
                 1.962    0.23480080117413
                0.4446     0.8136829578829
 s    1 1.00
                 0.122                   1
 p    1 1.00
                 0.727                   1

4 0
 s    8 1.00
                 11720  0.00070964594651845
                  1759  0.0054672722921914
                 400.8   0.027823118610189
                 113.7    0.10474773971146
                 37.03    0.28292084635691
                 13.27    0.44849523869833
                 5.025    0.27081688521277
                 1.013    0.01545029160744
 s    8 1.00
                 11720  -0.00031444341168873
                  1759  -0.0024821376810179
                 400.8  -0.012316355381583
                 113.7  -0.050538917343672
                 37.03   -0.13938490331632
                 13.27   -0.32507749481778
                 5.025   -0.22984830758785
                 1.013     1.0953793467883
 s    1 1.00
                0.3023                   1
 p    3 1.00
                  17.7   0.062679166281506
                 3.854    0.33353656587936
                 1.046    0.74123964163973
 p    1 1.00
                0.2753                   1
 d    1 1.00
                 1.185                   1

5 0
 s    8 1.00
                  6665  0.00069158396281299
                  1000  0.0053257961529341
                   228   0.027060721042034
                 64.71    0.10165684614077
                 21.06     0.2745748236174
                 7.495    0.44829431892377
                 2.797    0.28490261071525
                0.5215   0.015194859206082
 s    8 1.00
                  6665  -0.00029326965268655
                  1000  -0.0023180354739745
                   228  -0.011499786038565
                 64.71  -0.046826727009787
                 21.06   -0.12846616875047
                 7.495   -0.30126627246289
                 2.797   -0.25563070233011
                0.5215      1.093793361012
 s    1 1.00
                0.1596                   1
 p    3 1.00
                 9.439   0.056979251590039
                 2.002    0.31320721150073
                0.5456    0.76037674173753
 p    1 1.00
                0.1517                   1
 d    1 1.00
                  0.55                   1

6 0
 s    8 1.00
                  6665  0.00069158396281299
                  1000  0.0053257961529341
                   228   0.027060721042034
                 64.71    0.10165684614077
                 21.06     0.2745748236174
                 7.495    0.44829431892377
                 2.797    0.28490261071525
                0.5215   0.015194859206082
 s    8 1.00
                  6665  -0.00029326965268655
                  1000  -0.0023180354739745
                   228  -0.011499786038565
                 64.71  -0.046826727009787
                 21.06   -0.12846616875047
                 7.495   -0.30126627246289
                 2.797   -0.25563070233011
                0.5215      1.093793361012
 s    1 1.00
                0.1596                   1
 p    3 1.00
                 9.439   0.056979251590039
                 2.002    0.31320721150073
                0.5456    0.76037674173753
 p    1 1.00
                0.1517                   1
 d    1 1.00
                  0.55                   1

7 0
 s    8 1.00
                  6665  0.00069158396281299
                  1000  0.0053257961529341
                   228   0.027060721042034
                 64.71    0.10165684614077
                 21.06     0.2745748236174
                 7.495    0.44829431892377
                 2.797    0.28490261071525
                0.5215   0.015194859206082
 s    8 1.00
                  6665  -0.00029326965268655
                  1000  -0.0023180354739745
                   228  -0.011499786038565
                 64.71  -0.046826727009787
                 21.06   -0.12846616875047
                 7.495   -0.30126627246289
                 2.797   -0.25563070233011
                0.5215      1.093793361012
 s    1 1.00
                0.1596                   1
 p    3 1.00
                 9.439   0.056979251590039
                 2.002    0.31320721150073
                0.5456    0.76037674173753
 p    1 1.00
                0.1517                   1
 d    1 1.00
                  0.55                   1

8 0
 s    3 1.00
                 13.01   0.033498726389998
                 1.962    0.23480080117413
                0.4446     0.8136829578829
 s    1 1.00
                 0.122                   1
 p    1 1.00
                 0.727                   1

9 0
 s    8 1.00
                  6665  0.00069158396281299
                  1000  0.0053257961529341
                   228   0.027060721042034
                 64.71    0.10165684614077
                 21.06     0.2745748236174
                 7.495    0.44829431892377
                 2.797    0.28490261071525
                0.5215   0.015194859206082
 s    8 1.00
                  6665  -0.00029326965268655
                  1000  -0.0023180354739745
                   228  -0.011499786038565
                 64.71  -0.046826727009787
                 21.06   -0.12846616875047
                 7.495   -0.30126627246289
                 2.797   -0.25563070233011
                0.5215      1.093793361012
 s    1 1.00
                0.1596                   1
 p    3 1.00
                 9.439   0.056979251590039
                 2.002    0.31320721150073
                0.5456    0.76037674173753
 p    1 1.00
                0.1517                   1
 d    1 1.00
                  0.55                   1

10 0
 s    3 1.00
                 13.01   0.033498726389998
                 1.962    0.23480080117413
                0.4446     0.8136829578829
 s    1 1.00
                 0.122                   1
 p    1 1.00
                 0.727                   1

11 0
 s    3 1.00
                 13.01   0.033498726389998
                 1.962    0.23480080117413
                0.4446     0.8136829578829
 s    1 1.00
                 0.122                   1
 p    1 1.00
                 0.727                   1

12 0
 s    3 1.00
                 13.01   0.033498726389998
                 1.962    0.23480080117413
                0.4446     0.8136829578829
 s    1 1.00
                 0.122                   1
 p    1 1.00
                 0.727                   1

13 0
 s    8 1.00
                  6665  0.00069158396281299
                  1000  0.0053257961529341
                   228   0.027060721042034
                 64.71    0.10165684614077
                 21.06     0.2745748236174
                 7.495    0.44829431892377
                 2.797    0.28490261071525
                0.5215   0.015194859206082
 s    8 1.00
                  6665  -0.00029326965268655
                  1000  -0.0023180354739745
                   228  -0.011499786038565
                 64.71  -0.046826727009787
                 21.06   -0.12846616875047
                 7.495   -0.30126627246289
                 2.797   -0.25563070233011
                0.5215      1.093793361012
 s    1 1.00
                0.1596                   1
 p    3 1.00
                 9.439   0.056979251590039
                 2.002    0.31320721150073
                0.5456    0.76037674173753
 p    1 1.00
                0.1517                   1
 d    1 1.00
                  0.55                   1

14 0
 s    3 1.00
                 13.01   0.033498726389998
                 1.962    0.23480080117413
                0.4446     0.8136829578829
 s    1 1.00
                 0.122                   1
 p    1 1.00
                 0.727                   1

15 0
 s    3 1.00
                 13.01   0.033498726389998
                 1.962    0.23480080117413
                0.4446     0.8136829578829
 s    1 1.00
                 0.122                   1
 p    1 1.00
                 0.727                   1

16 0
 s    8 1.00
                  6665  0.00069158396281299
                  1000  0.0053257961529341
                   228   0.027060721042034
                 64.71    0.10165684614077
                 21.06     0.2745748236174
                 7.495    0.44829431892377
                 2.797    0.28490261071525
                0.5215   0.015194859206082
 s    8 1.00
                  6665  -0.00029326965268655
                  1000  -0.0023180354739745
                   228  -0.011499786038565
                 64.71  -0.046826727009787
                 21.06   -0.12846616875047
                 7.495   -0.30126627246289
                 2.797   -0.25563070233011
                0.5215      1.093793361012
 s    1 1.00
                0.1596                   1
 p    3 1.00
                 9.439   0.056979251590039
                 2.002    0.31320721150073
                0.5456    0.76037674173753
 p    1 1.00
                0.1517                   1
 d    1 1.00
                  0.55                   1

17 0
 s    3 1.00
                 13.01   0.033498726389998
                 1.962    0.23480080117413
                0.4446     0.8136829578829
 s    1 1.00
                 0.122                   1
 p    1 1.00
                 0.727                   1

18 0
 s    3 1.00
                 13.01   0.033498726389998
                 1.962    0.23480080117413
                0.4446     0.8136829578829
 s    1 1.00
                 0.122                   1
 p    1 1.00
                 0.727                   1

19 0
 s    8 1.00
                  6665  0.00069158396281299
                  1000  0.0053257961529341
                   228   0.027060721042034
                 64.71    0.10165684614077
                 21.06     0.2745748236174
                 7.495    0.44829431892377
                 2.797    0.28490261071525
                0.5215   0.015194859206082
 s    8 1.00
                  6665  -0.00029326965268655
                  1000  -0.0023180354739745
                   228  -0.011499786038565
                 64.71  -0.046826727009787
                 21.06   -0.12846616875047
                 7.495   -0.30126627246289
                 2.797   -0.25563070233011
                0.5215      1.093793361012
 s    1 1.00
                0.1596                   1
 p    3 1.00
                 9.439   0.056979251590039
                 2.002    0.31320721150073
                0.5456    0.76037674173753
 p    1 1.00
                0.1517                   1
 d    1 1.00
                  0.55                   1

20 0
 s    3 1.00
                 13.01   0.033498726389998
                 1.962    0.23480080117413
                0.4446     0.8136829578829
 s    1 1.00
                 0.122                   1
 p    1 1.00
                 0.727                   1

21 0
 s    8 1.00
                  6665  0.00069158396281299
                  1000  0.0053257961529341
                   228   0.027060721042034
                 64.71    0.10165684614077
                 21.06     0.2745748236174
                 7.495    0.44829431892377
                 2.797    0.28490261071525
                0.5215   0.015194859206082
 s    8 1.00
                  6665  -0.00029326965268655
                  1000  -0.0023180354739745
                   228  -0.011499786038565
                 64.71  -0.046826727009787
                 21.06   -0.12846616875047
                 7.495   -0.30126627246289
                 2.797   -0.25563070233011
                0.5215      1.093793361012
 s    1 1.00
                0.1596                   1
 p    3 1.00
                 9.439   0.056979251590039
                 2.002    0.31320721150073
                0.5456    0.76037674173753
 p    1 1.00
                0.1517                   1
 d    1 1.00
                  0.55                   1

22 0
 s    3 1.00
                 13.01   0.033498726389998
                 1.962    0.23480080117413
                0.4446     0.8136829578829
 s    1 1.00
                 0.122                   1
 p    1 1.00
                 0.727                   1

23 0
 s    3 1.00
                 13.01   0.033498726389998
                 1.962    0.23480080117413
                0.4446     0.8136829578829
 s    1 1.00
                 0.122                   1
 p    1 1.00
                 0.727                   1

24 0
 s    3 1.00
                 13.01   0.033498726389998
                 1.962    0.23480080117413
                0.4446     0.8136829578829
 s    1 1.00
                 0.122                   1
 p    1 1.00
                 0.727                   1

25 0
 s    8 1.00
                  6665  0.00069158396281299
                  1000  0.0053257961529341
                   228   0.027060721042034
                 64.71    0.10165684614077
                 21.06     0.2745748236174
                 7.495    0.44829431892377
                 2.797    0.28490261071525
                0.5215   0.015194859206082
 s    8 1.00
                  6665  -0.00029326965268655
                  1000  -0.0023180354739745
                   228  -0.011499786038565
                 64.71  -0.046826727009787
                 21.06   -0.12846616875047
                 7.495   -0.30126627246289
                 2.797   -0.25563070233011
                0.5215      1.093793361012
 s    1 1.00
                0.1596                   1
 p    3 1.00
                 9.439   0.056979251590039
                 2.002    0.31320721150073
                0.5456    0.76037674173753
 p    1 1.00
                0.1517                   1
 d    1 1.00
                  0.55                   1

26 0
 s    3 1.00
                 13.01   0.033498726389998
                 1.962    0.23480080117413
                0.4446     0.8136829578829
 s    1 1.00
                 0.122                   1
 p    1 1.00
                 0.727                   1

27 0
 s    3 1.00
                 13.01   0.033498726389998
                 1.962    0.23480080117413
                0.4446     0.8136829578829
 s    1 1.00
                 0.122                   1
 p    1 1.00
                 0.727                   1

28 0
 s    8 1.00
                  6665  0.00069158396281299
                  1000  0.0053257961529341
                   228   0.027060721042034
                 64.71    0.10165684614077
                 21.06     0.2745748236174
                 7.495    0.44829431892377
                 2.797    0.28490261071525
                0.5215   0.015194859206082
 s    8 1.00
                  6665  -0.00029326965268655
                  1000  -0.0023180354739745
                   228  -0.011499786038565
                 64.71  -0.046826727009787
                 21.06   -0.12846616875047
                 7.495   -0.30126627246289
                 2.797   -0.25563070233011
                0.5215      1.093793361012
 s    1 1.00
                0.1596                   1
 p    3 1.00
                 9.439   0.056979251590039
                 2.002    0.31320721150073
                0.5456    0.76037674173753
 p    1 1.00
                0.1517                   1
 d    1 1.00
                  0.55                   1

29 0
 s    3 1.00
                 13.01   0.033498726389998
                 1.962    0.23480080117413
                0.4446     0.8136829578829
 s    1 1.00
                 0.122                   1
 p    1 1.00
                 0.727                   1

30 0
 s    3 1.00
                 13.01   0.033498726389998
                 1.962    0.23480080117413
                0.4446     0.8136829578829
 s    1 1.00
                 0.122                   1
 p    1 1.00
                 0.727                   1

31 0
 s    8 1.00
                  6665  0.00069158396281299
                  1000  0.0053257961529341
                   228   0.027060721042034
                 64.71    0.10165684614077
                 21.06     0.2745748236174
                 7.495    0.44829431892377
                 2.797    0.28490261071525
                0.5215   0.015194859206082
 s    8 1.00
                  6665  -0.00029326965268655
                  1000  -0.0023180354739745
                   228  -0.011499786038565
                 64.71  -0.046826727009787
                 21.06   -0.12846616875047
                 7.495   -0.30126627246289
                 2.797   -0.25563070233011
                0.5215      1.093793361012
 s    1 1.00
                0.1596                   1
 p    3 1.00
                 9.439   0.056979251590039
                 2.002    0.31320721150073
                0.5456    0.76037674173753
 p    1 1.00
                0.1517                   1
 d    1 1.00
                  0.55                   1

32 0
 s    3 1.00
                 13.01   0.033498726389998
                 1.962    0.23480080117413
                0.4446     0.8136829578829
 s    1 1.00
                 0.122                   1
 p    1 1.00
                 0.727                   1

33 0
 s    3 1.00
                 13.01   0.033498726389998
                 1.962    0.23480080117413
                0.4446     0.8136829578829
 s    1 1.00
                 0.122                   1
 p    1 1.00
                 0.727                   1

34 0
 s    3 1.00
                 13.01   0.033498726389998
                 1.962    0.23480080117413
                0.4446     0.8136829578829
 s    1 1.00
                 0.122                   1
 p    1 1.00
                 0.727                   1

35 0
 s    3 1.00
                 13.01   0.033498726389998
                 1.962    0.23480080117413
                0.4446     0.8136829578829
 s    1 1.00
                 0.122                   1
 p    1 1.00
                 0.727                   1

36 0
 s    3 1.00
                 13.01   0.033498726389998
                 1.962    0.23480080117413
                0.4446     0.8136829578829
 s    1 1.00
                 0.122                   1
 p    1 1.00
                 0.727                   1

37 0
 s    3 1.00
                 13.01   0.033498726389998
                 1.962    0.23480080117413
                0.4446     0.8136829578829
 s    1 1.00
                 0.122                   1
 p    1 1.00
                 0.727                   1

[5d]
[7f]
[9g]

[MO]
 Sym= A
 Ene=               0
 Spin= Alpha
 Occup=    1.00000
   1    7.0826791961572e-05
   2    5.1316495193022e-05
   3    -0.00013396780495005
   4    -1.2246022114141e-07
   5    -5.7281121606953e-06
   6    -1.3642930121287e-05
   7    -2.2087767138023e-07
   8    2.5180803682725e-05
   9    6.3942711389564e-05
  10    -3.4993659796655e-06
  11    1.5633297382511e-07
  12    -1.0928505016364e-06
  13    -8.7813195107514e-07
  14    -1.7615289860943e-08
  15    3.5531430843534e-05
  16    0.00022331248654699
  17    5.879591061583e-07
  18    -2.5177022180098e-06
  19    -2.3006812862564e-05
  20    3.1861040052943e-06
  21    -6.1106828777705e-05
  22    -1.4354185604728e-07
  23    1.0002287937962e-06
  24    2.6530273790622e-06
  25      -1.0013821853535
  26    -0.0019986720716652
  27    0.0069632181827997
  28    5.1818953150693e-06
  29    -1.1345014760188e-05
  30    0.0016355333924497
  31    5.3662018974291e-07
  32    3.0053254375518e-06
  33    -0.0019719164469706
  34    -0.00010819656435207
  35    2.7995922619114e-06
  36    -1.5142594977092e-06
  37    -6.6226130966213e-05
  38    0.00017237996407738
  39    -0.00029143481487776
  40    -0.00041034926010642
  41    -0.0015504266524035
  42    -1.6072173121878e-05
  43    1.0009728730707e-05
  44    -2.8205466346696e-05
  45    -8.6672832506909e-05
  46    6.834199538688e-05
  47    -0.0036916281014912
  48    0.00050168525633341
  49    8.3803687353771e-06
  50    -2.7826601311243e-06
  51    -3.017227913494e-05
  52    0.00011111927673558
  53    8.4117056784477e-05
  54    0.00016465611982628
  55    -0.0013869007513468
  56    -7.8683331307744e-05
  57    7.208089334798e-06
  58    3.4103734063253e-05
  59    0.00042802557451765
  60    -0.00048229105898519
  61    0.00098059139201665
  62    0.00011584317542685
  63    -0.0001498201240009
  64    0.00014344237213705
  65    -5.4097763277139e-05
  66    0.00012662829683705
  67    3.8565413379644e-05
  68    9.5030596272476e-05
  69    -0.00052740884692406
  70    6.2054136995287e-05
  71    -4.1258055742685e-05
  72    6.1654120943556e-05
  73    -0.0010196472513767
  74    0.00078405375334755
  75    0.00066270982555366
  76    0.00013924300711037
  77    0.00012086779180368
  78    -8.9466213165826e-05
  79    -5.8084665822418e-05
  80    0.00014939075617982
  81    5.8640945562431e-05
  82    -0.00021808889936873
  83    -6.7152728891579e-05
  84    4.9293749239693e-05
  85    -4.7032374681848e-05
  86    -2.5311776878749e-05
  87    -4.9060225040616e-05
  88    0.00062364479757033
  89    1.5684997470464e-05
  90    1.7243903090857e-05
  91    -1.1162002298601e-05
  92    -0.00026307781885253
  93    -0.00065144053817836
  94    1.0422242991401e-05
  95    -1.9056106704663e-05
  96    -1.1616385531715e-05
  97    -8.0624005665902e-06
  98    1.9341991226075e-05
  99    4.8812391181155e-05
 100    4.1177999683703e-05
 101    0.00016627809494585
 102    -6.2702717887306e-06
 103    1.0769906697842e-05
 104    -7.7497882776302e-05
 105    2.0059600512971e-05
 106    0.00020764511743292
 107    6.3929927774627e-05
 108    -8.0889588919754e-06
 109    -7.6614277137324e-05
 110    -7.8097270613039e-05
 111    6.6597884209002e-05
 112    4.4214208064226e-05
 113    -2.0242334815409e-05
 114    -7.1638411472718e-05
 115    -0.00014453415111657
 116    0.00011534586577899
 117    -0.00084372507063353
 118    1.5162546652871e-05
 119    1.8027640603255e-05
 120    -3.2531047824986e-05
 121    -0.00028506250506677
 122    -3.681032458233e-05
 123    0.00015494156248812
 124    6.5015434321147e-06
 125    -8.3684172516562e-06
 126    -1.6601881199892e-05
 127    3.2555539270693e-05
 128    -5.2562237716183e-05
 129    2.013528229246e-05
 130    0.00033829824266993
 131    -8.1049700936416e-06
 132    -6.0147150810187e-06
 133    -2.9676815382519e-05
 134    -2.6116528282114e-05
 135    0.00011651602539308
 136    1.3775013578244e-05
 137    2.5322347418647e-05
 138    2.7554463997702e-05
 139    -2.8081470769686e-05
 140    4.0273005712627e-05
 141    -0.00030470949510574
 142    -6.5599948997277e-06
 143    5.0024466625073e-06
 144    3.8596468507159e-06
 145    0.00023167953963856
 146    -5.8458259815435e-05
 147    -5.9755125835289e-05
 148    2.0843145077635e-06
 149    -3.8779673338793e-06
 150    4.756337657815e-06
 151    -1.2544884286022e-05
 152    5.4421327355456e-06
 153    0.00010809477098376
 154    9.950835613304e-05
 155    2.6031622087385e-05
 156    -2.8728430916012e-05
 157    -2.0013950279668e-05
 158    3.4427773710487e-05
 159    8.7809664559016e-05
 160    5.9620907907253e-05
 161    8.4884490298656e-06
 162    -7.0373060869144e-06
 163    -0.00011105173097533
 164    6.4965560876407e-05
 165    0.00030526470099446
 166    2.3813215903788e-05
 167    -1.5427136571278e-05
 168    -2.7875555942881e-05
 169    -0.00023628451204497
 170    0.00021282624115055
 171    0.00013041982378368
 172    4.4012085981089e-06
 173    -9.8450408221289e-06
 174    1.3628640033264e-05
 175    -4.2225193077865e-06
 176    1.9594648475838e-05
 177    1.3933656330291e-05
 178    -8.948620399901e-05
 179    1.1897544822256e-06
 180    -1.6702932330547e-06
 181    4.6957580555042e-06
 182    -6.5920640546302e-08
 183    -2.0462880118162e-05
 184    8.4706253939061e-05
 185    1.9406940810901e-05
 186    -4.2926679936236e-06
 187    4.5512599003985e-06
 188    -0.00012391110225942
 189    0.00010127757623597
 190    9.5675710768394e-05
 191    -1.4924231841446e-06
 192    -3.2203307143134e-06
 193    8.6060776004915e-06
 194    2.588497858172e-06
 195    5.9919415693131e-06
 196    1.3440780758257e-05
 197    2.0696181066471e-05
 198    -5.6623446299722e-06
 199    -1.9039430501206e-06
 200    3.0850427586434e-06
 201    5.9281968023422e-05
 202    1.1760032265592e-05
 203    1.5339443766252e-05
 204    -6.6499039389897e-06
 205    -8.5375893439416e-06
 206    3.312864563504e-05
 207    -5.8371948904318e-05
 208    1.3851741671939e-05
 209    -7.8992040509232e-06
 210    -1.4518035962578e-05
 211    -2.8507325482681e-05
 212    1.2791823790991e-05
 213    -0.00028889193344569
 214    3.7638991721303e-05
 215    -2.4440297818831e-05
 216    3.9697711091633e-05
 217    -0.00017581970054843
 218    3.9457038965882e-05
 219    9.9642819343236e-05
 220    2.7835299006673e-06
 221     1.23888204925e-05
 222    -2.1688128483548e-06
 223    -9.127187223313e-06
 224    3.8495564890011e-06
 225    -1.2875766812427e-05
 226    -5.1383564816729e-05
 227    1.2510260870001e-05
 228    1.087747832831e-06
 229    6.4872024936586e-07
 230    -2.2005036269598e-05
 231    -6.1465631486166e-05
 232    3.9825663101463e-06
 233    -6.1119636076227e-06
 234    -1.2456971424083e-05
 235    -6.6187343745565e-06
 236    1.3192608121421e-06
 237    8.0856969441422e-05
 238    -1.2010805243787e-05
 239    1.4133767536475e-06
 240    5.3752644129383e-06
 241    -4.0982203605985e-05
 242    6.5228180471556e-05
 243    -1.7961234853143e-05
 244    -1.8509922975266e-06
 245    -2.7706412042414e-06
 246    2.8863219996645e-06
 247    -4.6869499778502e-07
 248    -1.1093989967579e-06
 249    3.3052637550081e-05
 250    1.0918705294779e-06
 251    4.9825520002039e-06
 252    -3.3532160572286e-07
 253    6.7722945011187e-08
 254    2.2579351267818e-05
 255    -5.0316195144017e-05
 256    9.037074042277e-07
 257    -4.5412208195925e-06
 258    1.6586650801302e-06
 259    3.132073965585e-05
 260    2.1303809477122e-05
 261    -7.6419179817613e-05
 262    -5.139007659185e-05