[Molden Format]
made by pyscf v[2.0.1]
[Atoms] (AU)
O   1   8     0.00000000000000     0.00000000000000     8.67407923598948
H   2   1     0.00000000000000     0.00000000000000     6.85067741408852
H   3   1    -0.05031916615174     1.78353065140343     9.04995093245615
O   4   8     0.00000000000000     0.00000000000000     2.31533471513237
C   5   6     0.00000000000000     0.00000000000000     0.00000000000000
C   6   6     2.01118073026938    -1.40227222164369    -1.50774939176400
C   7   6    -2.01249334291722     1.41331050329955    -1.50315905028694
H   8   1     3.32037363730244    -2.26721897153159    -0.13599698591495
C   9   6     3.45899267434009     0.28739631745591    -3.37437943254505
H   10   1     1.07662969841332    -2.94725144642667    -2.56541439481080
H   11   1    -2.67503415753480     0.18421555839588    -3.06194479365997
H   12   1    -1.07974048864772     3.03851734677796    -2.43674295017013
C   13   6    -4.21607110578555     2.32938802552922     0.11994162256091
H   14   1     4.24440173074564     1.93368664142019    -2.34976285512790
H   15   1     2.15020713235517     1.04714335134846    -4.81494497423699
C   16   6     5.60746363007797    -1.12419643481196    -4.70268606082550
H   17   1    -3.46838323670267     3.50951302338067     1.66946842715333
H   18   1    -5.11873485366228     0.68575958301209     1.04047743976495
C   19   6    -6.18314754751344     3.80909592987882    -1.39656589068747
H   20   1     6.93011263717176    -1.87550812453645    -3.26656317360070
C   21   6     7.06356622236532     0.52877932406334    -6.57829775293605
H   22   1     4.82318879258361    -2.78573437948532    -5.70504560381835
H   23   1    -6.91582688743803     2.61304780074712    -2.95074552451969
H   24   1    -5.26532430573853     5.45420349051338    -2.31005832200284
C   25   6    -8.39941882261433     4.73263980500213     0.21800571437956
H   26   1     7.83338371486801     2.19084139882824    -5.57093109900697
H   27   1     5.73544244039420     1.27376866537418    -8.01071492370229
C   28   6     9.21124858443101    -0.89699110072176    -7.88926949186242
H   29   1    -7.66272760055236     5.92277078003992     1.77035591474408
H   30   1    -9.31497248082589     3.08753015622020     1.12614408368786
C   31   6   -10.35481709231879     6.21833079391143    -1.30905206253246
H   32   1    10.58815905329501    -1.61074586756696    -6.49512691622620
H   33   1    10.23506248045667     0.32468009384095    -9.23072870921204
H   34   1     8.47665842847139    -2.53598436989925    -8.94921964622535
H   35   1    -9.48948872868064     7.90013588951020    -2.18823918416067
H   36   1   -11.93332513000955     6.86460487874102    -0.11255798845995
H   37   1   -11.15126291841033     5.04495968327630    -2.83849898862534
[GTO]
1 0
 s    8 1.00
                 11720  0.00070964594651845
                  1759  0.0054672722921914
                 400.8   0.027823118610189
                 113.7    0.10474773971146
                 37.03    0.28292084635691
                 13.27    0.44849523869833
                 5.025    0.27081688521277
                 1.013    0.01545029160744
 s    8 1.00
                 11720  -0.00031444341168873
                  1759  -0.0024821376810179
                 400.8  -0.012316355381583
                 113.7  -0.050538917343672
                 37.03   -0.13938490331632
                 13.27   -0.32507749481778
                 5.025   -0.22984830758785
                 1.013     1.0953793467883
 s    1 1.00
                0.3023                   1
 p    3 1.00
                  17.7   0.062679166281506
                 3.854    0.33353656587936
                 1.046    0.74123964163973
 p    1 1.00
                0.2753                   1
 d    1 1.00
                 1.185                   1

2 0
 s    3 1.00
                 13.01   0.033498726389998
                 1.962    0.23480080117413
                0.4446     0.8136829578829
 s    1 1.00
                 0.122                   1
 p    1 1.00
                 0.727                   1

3 0
 s    3 1.00
                 13.01   0.033498726389998
                 1.962    0.23480080117413
                0.4446     0.8136829578829
 s    1 1.00
                 0.122                   1
 p    1 1.00
                 0.727                   1

4 0
 s    8 1.00
                 11720  0.00070964594651845
                  1759  0.0054672722921914
                 400.8   0.027823118610189
                 113.7    0.10474773971146
                 37.03    0.28292084635691
                 13.27    0.44849523869833
                 5.025    0.27081688521277
                 1.013    0.01545029160744
 s    8 1.00
                 11720  -0.00031444341168873
                  1759  -0.0024821376810179
                 400.8  -0.012316355381583
                 113.7  -0.050538917343672
                 37.03   -0.13938490331632
                 13.27   -0.32507749481778
                 5.025   -0.22984830758785
                 1.013     1.0953793467883
 s    1 1.00
                0.3023                   1
 p    3 1.00
                  17.7   0.062679166281506
                 3.854    0.33353656587936
                 1.046    0.74123964163973
 p    1 1.00
                0.2753                   1
 d    1 1.00
                 1.185                   1

5 0
 s    8 1.00
                  6665  0.00069158396281299
                  1000  0.0053257961529341
                   228   0.027060721042034
                 64.71    0.10165684614077
                 21.06     0.2745748236174
                 7.495    0.44829431892377
                 2.797    0.28490261071525
                0.5215   0.015194859206082
 s    8 1.00
                  6665  -0.00029326965268655
                  1000  -0.0023180354739745
                   228  -0.011499786038565
                 64.71  -0.046826727009787
                 21.06   -0.12846616875047
                 7.495   -0.30126627246289
                 2.797   -0.25563070233011
                0.5215      1.093793361012
 s    1 1.00
                0.1596                   1
 p    3 1.00
                 9.439   0.056979251590039
                 2.002    0.31320721150073
                0.5456    0.76037674173753
 p    1 1.00
                0.1517                   1
 d    1 1.00
                  0.55                   1

6 0
 s    8 1.00
                  6665  0.00069158396281299
                  1000  0.0053257961529341
                   228   0.027060721042034
                 64.71    0.10165684614077
                 21.06     0.2745748236174
                 7.495    0.44829431892377
                 2.797    0.28490261071525
                0.5215   0.015194859206082
 s    8 1.00
                  6665  -0.00029326965268655
                  1000  -0.0023180354739745
                   228  -0.011499786038565
                 64.71  -0.046826727009787
                 21.06   -0.12846616875047
                 7.495   -0.30126627246289
                 2.797   -0.25563070233011
                0.5215      1.093793361012
 s    1 1.00
                0.1596                   1
 p    3 1.00
                 9.439   0.056979251590039
                 2.002    0.31320721150073
                0.5456    0.76037674173753
 p    1 1.00
                0.1517                   1
 d    1 1.00
                  0.55                   1

7 0
 s    8 1.00
                  6665  0.00069158396281299
                  1000  0.0053257961529341
                   228   0.027060721042034
                 64.71    0.10165684614077
                 21.06     0.2745748236174
                 7.495    0.44829431892377
                 2.797    0.28490261071525
                0.5215   0.015194859206082
 s    8 1.00
                  6665  -0.00029326965268655
                  1000  -0.0023180354739745
                   228  -0.011499786038565
                 64.71  -0.046826727009787
                 21.06   -0.12846616875047
                 7.495   -0.30126627246289
                 2.797   -0.25563070233011
                0.5215      1.093793361012
 s    1 1.00
                0.1596                   1
 p    3 1.00
                 9.439   0.056979251590039
                 2.002    0.31320721150073
                0.5456    0.76037674173753
 p    1 1.00
                0.1517                   1
 d    1 1.00
                  0.55                   1

8 0
 s    3 1.00
                 13.01   0.033498726389998
                 1.962    0.23480080117413
                0.4446     0.8136829578829
 s    1 1.00
                 0.122                   1
 p    1 1.00
                 0.727                   1

9 0
 s    8 1.00
                  6665  0.00069158396281299
                  1000  0.0053257961529341
                   228   0.027060721042034
                 64.71    0.10165684614077
                 21.06     0.2745748236174
                 7.495    0.44829431892377
                 2.797    0.28490261071525
                0.5215   0.015194859206082
 s    8 1.00
                  6665  -0.00029326965268655
                  1000  -0.0023180354739745
                   228  -0.011499786038565
                 64.71  -0.046826727009787
                 21.06   -0.12846616875047
                 7.495   -0.30126627246289
                 2.797   -0.25563070233011
                0.5215      1.093793361012
 s    1 1.00
                0.1596                   1
 p    3 1.00
                 9.439   0.056979251590039
                 2.002    0.31320721150073
                0.5456    0.76037674173753
 p    1 1.00
                0.1517                   1
 d    1 1.00
                  0.55                   1

10 0
 s    3 1.00
                 13.01   0.033498726389998
                 1.962    0.23480080117413
                0.4446     0.8136829578829
 s    1 1.00
                 0.122                   1
 p    1 1.00
                 0.727                   1

11 0
 s    3 1.00
                 13.01   0.033498726389998
                 1.962    0.23480080117413
                0.4446     0.8136829578829
 s    1 1.00
                 0.122                   1
 p    1 1.00
                 0.727                   1

12 0
 s    3 1.00
                 13.01   0.033498726389998
                 1.962    0.23480080117413
                0.4446     0.8136829578829
 s    1 1.00
                 0.122                   1
 p    1 1.00
                 0.727                   1

13 0
 s    8 1.00
                  6665  0.00069158396281299
                  1000  0.0053257961529341
                   228   0.027060721042034
                 64.71    0.10165684614077
                 21.06     0.2745748236174
                 7.495    0.44829431892377
                 2.797    0.28490261071525
                0.5215   0.015194859206082
 s    8 1.00
                  6665  -0.00029326965268655
                  1000  -0.0023180354739745
                   228  -0.011499786038565
                 64.71  -0.046826727009787
                 21.06   -0.12846616875047
                 7.495   -0.30126627246289
                 2.797   -0.25563070233011
                0.5215      1.093793361012
 s    1 1.00
                0.1596                   1
 p    3 1.00
                 9.439   0.056979251590039
                 2.002    0.31320721150073
                0.5456    0.76037674173753
 p    1 1.00
                0.1517                   1
 d    1 1.00
                  0.55                   1

14 0
 s    3 1.00
                 13.01   0.033498726389998
                 1.962    0.23480080117413
                0.4446     0.8136829578829
 s    1 1.00
                 0.122                   1
 p    1 1.00
                 0.727                   1

15 0
 s    3 1.00
                 13.01   0.033498726389998
                 1.962    0.23480080117413
                0.4446     0.8136829578829
 s    1 1.00
                 0.122                   1
 p    1 1.00
                 0.727                   1

16 0
 s    8 1.00
                  6665  0.00069158396281299
                  1000  0.0053257961529341
                   228   0.027060721042034
                 64.71    0.10165684614077
                 21.06     0.2745748236174
                 7.495    0.44829431892377
                 2.797    0.28490261071525
                0.5215   0.015194859206082
 s    8 1.00
                  6665  -0.00029326965268655
                  1000  -0.0023180354739745
                   228  -0.011499786038565
                 64.71  -0.046826727009787
                 21.06   -0.12846616875047
                 7.495   -0.30126627246289
                 2.797   -0.25563070233011
                0.5215      1.093793361012
 s    1 1.00
                0.1596                   1
 p    3 1.00
                 9.439   0.056979251590039
                 2.002    0.31320721150073
                0.5456    0.76037674173753
 p    1 1.00
                0.1517                   1
 d    1 1.00
                  0.55                   1

17 0
 s    3 1.00
                 13.01   0.033498726389998
                 1.962    0.23480080117413
                0.4446     0.8136829578829
 s    1 1.00
                 0.122                   1
 p    1 1.00
                 0.727                   1

18 0
 s    3 1.00
                 13.01   0.033498726389998
                 1.962    0.23480080117413
                0.4446     0.8136829578829
 s    1 1.00
                 0.122                   1
 p    1 1.00
                 0.727                   1

19 0
 s    8 1.00
                  6665  0.00069158396281299
                  1000  0.0053257961529341
                   228   0.027060721042034
                 64.71    0.10165684614077
                 21.06     0.2745748236174
                 7.495    0.44829431892377
                 2.797    0.28490261071525
                0.5215   0.015194859206082
 s    8 1.00
                  6665  -0.00029326965268655
                  1000  -0.0023180354739745
                   228  -0.011499786038565
                 64.71  -0.046826727009787
                 21.06   -0.12846616875047
                 7.495   -0.30126627246289
                 2.797   -0.25563070233011
                0.5215      1.093793361012
 s    1 1.00
                0.1596                   1
 p    3 1.00
                 9.439   0.056979251590039
                 2.002    0.31320721150073
                0.5456    0.76037674173753
 p    1 1.00
                0.1517                   1
 d    1 1.00
                  0.55                   1

20 0
 s    3 1.00
                 13.01   0.033498726389998
                 1.962    0.23480080117413
                0.4446     0.8136829578829
 s    1 1.00
                 0.122                   1
 p    1 1.00
                 0.727                   1

21 0
 s    8 1.00
                  6665  0.00069158396281299
                  1000  0.0053257961529341
                   228   0.027060721042034
                 64.71    0.10165684614077
                 21.06     0.2745748236174
                 7.495    0.44829431892377
                 2.797    0.28490261071525
                0.5215   0.015194859206082
 s    8 1.00
                  6665  -0.00029326965268655
                  1000  -0.0023180354739745
                   228  -0.011499786038565
                 64.71  -0.046826727009787
                 21.06   -0.12846616875047
                 7.495   -0.30126627246289
                 2.797   -0.25563070233011
                0.5215      1.093793361012
 s    1 1.00
                0.1596                   1
 p    3 1.00
                 9.439   0.056979251590039
                 2.002    0.31320721150073
                0.5456    0.76037674173753
 p    1 1.00
                0.1517                   1
 d    1 1.00
                  0.55                   1

22 0
 s    3 1.00
                 13.01   0.033498726389998
                 1.962    0.23480080117413
                0.4446     0.8136829578829
 s    1 1.00
                 0.122                   1
 p    1 1.00
                 0.727                   1

23 0
 s    3 1.00
                 13.01   0.033498726389998
                 1.962    0.23480080117413
                0.4446     0.8136829578829
 s    1 1.00
                 0.122                   1
 p    1 1.00
                 0.727                   1

24 0
 s    3 1.00
                 13.01   0.033498726389998
                 1.962    0.23480080117413
                0.4446     0.8136829578829
 s    1 1.00
                 0.122                   1
 p    1 1.00
                 0.727                   1

25 0
 s    8 1.00
                  6665  0.00069158396281299
                  1000  0.0053257961529341
                   228   0.027060721042034
                 64.71    0.10165684614077
                 21.06     0.2745748236174
                 7.495    0.44829431892377
                 2.797    0.28490261071525
                0.5215   0.015194859206082
 s    8 1.00
                  6665  -0.00029326965268655
                  1000  -0.0023180354739745
                   228  -0.011499786038565
                 64.71  -0.046826727009787
                 21.06   -0.12846616875047
                 7.495   -0.30126627246289
                 2.797   -0.25563070233011
                0.5215      1.093793361012
 s    1 1.00
                0.1596                   1
 p    3 1.00
                 9.439   0.056979251590039
                 2.002    0.31320721150073
                0.5456    0.76037674173753
 p    1 1.00
                0.1517                   1
 d    1 1.00
                  0.55                   1

26 0
 s    3 1.00
                 13.01   0.033498726389998
                 1.962    0.23480080117413
                0.4446     0.8136829578829
 s    1 1.00
                 0.122                   1
 p    1 1.00
                 0.727                   1

27 0
 s    3 1.00
                 13.01   0.033498726389998
                 1.962    0.23480080117413
                0.4446     0.8136829578829
 s    1 1.00
                 0.122                   1
 p    1 1.00
                 0.727                   1

28 0
 s    8 1.00
                  6665  0.00069158396281299
                  1000  0.0053257961529341
                   228   0.027060721042034
                 64.71    0.10165684614077
                 21.06     0.2745748236174
                 7.495    0.44829431892377
                 2.797    0.28490261071525
                0.5215   0.015194859206082
 s    8 1.00
                  6665  -0.00029326965268655
                  1000  -0.0023180354739745
                   228  -0.011499786038565
                 64.71  -0.046826727009787
                 21.06   -0.12846616875047
                 7.495   -0.30126627246289
                 2.797   -0.25563070233011
                0.5215      1.093793361012
 s    1 1.00
                0.1596                   1
 p    3 1.00
                 9.439   0.056979251590039
                 2.002    0.31320721150073
                0.5456    0.76037674173753
 p    1 1.00
                0.1517                   1
 d    1 1.00
                  0.55                   1

29 0
 s    3 1.00
                 13.01   0.033498726389998
                 1.962    0.23480080117413
                0.4446     0.8136829578829
 s    1 1.00
                 0.122                   1
 p    1 1.00
                 0.727                   1

30 0
 s    3 1.00
                 13.01   0.033498726389998
                 1.962    0.23480080117413
                0.4446     0.8136829578829
 s    1 1.00
                 0.122                   1
 p    1 1.00
                 0.727                   1

31 0
 s    8 1.00
                  6665  0.00069158396281299
                  1000  0.0053257961529341
                   228   0.027060721042034
                 64.71    0.10165684614077
                 21.06     0.2745748236174
                 7.495    0.44829431892377
                 2.797    0.28490261071525
                0.5215   0.015194859206082
 s    8 1.00
                  6665  -0.00029326965268655
                  1000  -0.0023180354739745
                   228  -0.011499786038565
                 64.71  -0.046826727009787
                 21.06   -0.12846616875047
                 7.495   -0.30126627246289
                 2.797   -0.25563070233011
                0.5215      1.093793361012
 s    1 1.00
                0.1596                   1
 p    3 1.00
                 9.439   0.056979251590039
                 2.002    0.31320721150073
                0.5456    0.76037674173753
 p    1 1.00
                0.1517                   1
 d    1 1.00
                  0.55                   1

32 0
 s    3 1.00
                 13.01   0.033498726389998
                 1.962    0.23480080117413
                0.4446     0.8136829578829
 s    1 1.00
                 0.122                   1
 p    1 1.00
                 0.727                   1

33 0
 s    3 1.00
                 13.01   0.033498726389998
                 1.962    0.23480080117413
                0.4446     0.8136829578829
 s    1 1.00
                 0.122                   1
 p    1 1.00
                 0.727                   1

34 0
 s    3 1.00
                 13.01   0.033498726389998
                 1.962    0.23480080117413
                0.4446     0.8136829578829
 s    1 1.00
                 0.122                   1
 p    1 1.00
                 0.727                   1

35 0
 s    3 1.00
                 13.01   0.033498726389998
                 1.962    0.23480080117413
                0.4446     0.8136829578829
 s    1 1.00
                 0.122                   1
 p    1 1.00
                 0.727                   1

36 0
 s    3 1.00
                 13.01   0.033498726389998
                 1.962    0.23480080117413
                0.4446     0.8136829578829
 s    1 1.00
                 0.122                   1
 p    1 1.00
                 0.727                   1

37 0
 s    3 1.00
                 13.01   0.033498726389998
                 1.962    0.23480080117413
                0.4446     0.8136829578829
 s    1 1.00
                 0.122                   1
 p    1 1.00
                 0.727                   1

[5d]
[7f]
[9g]

[MO]
 Sym= A
 Ene=               0
 Spin= Alpha
 Occup=    1.00000
   1    -3.3115914241392e-06
   2    -6.2018823660254e-06
   3    1.858821043538e-05
   4    -4.4104597522265e-07
   5    9.1306744222367e-07
   6    -5.405015351973e-07
   7    7.1803223894408e-07
   8    -6.172760343612e-07
   9    -8.3419832435601e-06
  10    1.3070337033267e-06
  11    1.5425125874943e-07
  12    -5.9312285655112e-08
  13    -1.9638425609251e-07
  14    3.9921045033537e-08
  15    -4.8547300645106e-07
  16    -2.1426983807422e-05
  17    9.0430901179609e-07
  18    -4.4616209198265e-07
  19    -4.66728580392e-06
  20    -5.4726691382349e-07
  21    -3.6979882596571e-08
  22    -1.2580438377685e-07
  23    1.1053571103651e-06
  24    5.2028558424785e-07
  25    1.317691460438e-06
  26    -7.5568677415918e-06
  27    -5.3969336376074e-05
  28    2.2167577725208e-05
  29    -4.7519750895965e-06
  30    1.4414499466801e-05
  31    -6.1442368133033e-05
  32    4.2401367785898e-05
  33    4.2816135930004e-05
  34    1.7535514499465e-06
  35    -2.7610378170586e-06
  36    1.2341385479259e-06
  37    4.4669331900499e-07
  38    -2.1540249008615e-06
  39    -8.814600290501e-05
  40    -0.00020857332345582
  41    0.00083343548524419
  42    7.0607637017821e-05
  43    -6.0932359618048e-05
  44    7.1561680474528e-05
  45    0.00034763166207203
  46    -0.00026946769682303
  47    -0.00016224823066892
  48    -1.1322240668843e-05
  49    -4.8891103634613e-05
  50    3.3691891954388e-05
  51    4.7448152759689e-06
  52    -2.8175994946989e-05
  53    -1.4750913792764e-05
  54    -0.00011866357121769
  55    -0.00017306732043478
  56    -0.0001232975500476
  57    -9.0890366083811e-05
  58    0.00013208447415107
  59    0.00066909098571347
  60    -0.00021787723199272
  61    -0.00042733556968519
  62    -1.3784500202919e-06
  63    3.5214736341257e-05
  64    -1.9096419837591e-05
  65    -2.8644574006891e-05
  66    2.8200795819691e-05
  67    -0.00014539123379245
  68    -0.00011934089258567
  69    -0.00078088832947563
  70    -4.5061737795887e-05
  71    5.0975832080606e-05
  72    -9.5871589659791e-05
  73    0.00041583815685983
  74    -0.00013577386323954
  75    -0.00027444323615636
  76    -1.5753764702804e-05
  77    0.00011299615266824
  78    -5.9165830678061e-05
  79    -4.1953079971859e-05
  80    3.0880071155434e-05
  81    -4.2880957077608e-05
  82    -2.9010746371519e-05
  83    -1.9125559496334e-05
  84    6.7046901212807e-06
  85    2.729458449471e-05
  86    -0.00038851320709072
  87    -0.00074984206046276
  88    0.00042202714038175
  89    -0.00044458904316277
  90    0.00036018576613049
  91    0.00025241952154133
  92    0.00039926851014516
  93    0.00027716890307995
  94    -0.00046888950034777
  95    1.2958850967971e-05
  96    1.3897263464577e-05
  97    3.3775091479222e-05
  98    -5.5766091841102e-05
  99    1.0733159038371e-05
 100    1.7660342034098e-05
 101    8.7057082760253e-05
 102    -3.6060673213244e-05
 103    1.087461117852e-05
 104    1.5049947189735e-05
 105    -8.6782864177384e-05
 106    -0.00010807548516698
 107    -2.7843474738118e-05
 108    -3.254339586229e-06
 109    5.4523830524426e-06
 110    -6.4427387336003e-05
 111    -2.5364249855513e-05
 112    -4.0188443594732e-06
 113    1.5459784564463e-05
 114    7.7062756039364e-06
 115     0.057462934951535
 116    -0.0016571042347495
 117    -0.00034324277378713
 118    3.8211072731928e-05
 119    5.8220441605616e-05
 120    -0.0012133080237353
 121    0.00026576427852896
 122    -4.0496866735129e-05
 123    -0.0011150678990186
 124    -2.7965769214302e-05
 125    -3.0628735815318e-05
 126    6.8245643937177e-06
 127    2.2467046971756e-05
 128    -3.1905146312324e-05
 129    2.8246932130968e-06
 130    0.00013893370176758
 131    -3.1828916996776e-05
 132    9.0718933810473e-06
 133    5.9956467335845e-05
 134    -0.00015885389391558
 135    -0.0002193178814989
 136    -5.7789563189258e-05
 137    1.7319344408172e-06
 138    1.4346118145923e-05
 139     0.043123613938429
 140    2.5239596964407e-05
 141    0.00097006537330336
 142    -0.00028937631726803
 143    -0.0013889867056249
 144    -0.00080900865836145
 145    0.0010895986277757
 146    -0.00043773595356647
 147    -0.0015607227477331
 148    -5.8348167012989e-06
 149    9.2752196750852e-05
 150    0.00011319698453232
 151    -2.1886120458224e-05
 152    3.9708509907804e-05
 153    -0.0017195156654723
 154    -0.00015425683214409
 155    2.9695237409595e-05
 156    0.00013404409363855
 157    0.00012955076522487
 158    -0.0014891058097865
 159    -9.6633930183976e-05
 160    -0.00012223811968122
 161    -0.00011570198166848
 162    6.1855899149375e-05
 163      0.24072010945403
 164    0.0016413914615697
 165    -0.0044136905642894
 166    -0.00040859642742959
 167    0.00026592510748445
 168    -4.5437613886985e-05
 169    0.00055319975516676
 170    -0.00010790227426428
 171    -0.00085907550071832
 172    1.696340761249e-05
 173    -0.00017368456716929
 174    0.00010003930808229
 175    1.1084517977693e-06
 176    6.8890013994636e-05
 177    -0.00034293349277714
 178    -7.9539522810638e-05
 179    -2.3008658717679e-05
 180    -8.3995167692265e-06
 181    2.1435958750571e-05
 182      0.54930031573637
 183     0.002341127443778
 184    -0.0058395781316991
 185    0.00047028492063899
 186    -0.00022133770640362
 187    -0.00040491421249878
 188    0.00081181468845868
 189    0.0003803348353589
 190    -0.0008437997116158
 191    -3.4473293495575e-05
 192    0.00025037215703178
 193    6.1192368966022e-05
 194    -5.4908440963705e-05
 195    5.9309296580602e-05
 196    0.0013844512374122
 197    0.00067070883257071
 198    -9.1625530622562e-06
 199    9.554592157153e-05
 200    4.6874541022114e-05
 201    0.00017977689093717
 202    0.00012516677242675
 203    -2.3438621382934e-05
 204    -8.7174711677558e-05
 205    -7.3275279084665e-05
 206    0.00022897887043371
 207    0.00015042067283683
 208    7.5162663113092e-05
 209    8.2790115565388e-05
 210    -3.4137945192313e-05
 211     -0.57919743559632
 212    -0.0029259264641288
 213    0.0079407913606409
 214    0.00072532039067795
 215    -0.00040433752973606
 216    -0.00011457823950898
 217    0.00093347695642244
 218    -0.00031464873477268
 219    -0.00096552080818101
 220    -3.3821526362698e-05
 221    -6.9164765270612e-05
 222    1.4006312138859e-05
 223    9.2894621178659e-05
 224    -0.00013698583648637
 225    -0.00030469505536405
 226    0.00076577509390088
 227    0.00014617130986051
 228    0.00017203730547297
 229    0.00016338869881236
 230    -0.00035718606833815
 231    0.0006249043797511
 232    -0.00016613681405058
 233    3.0449061027902e-05
 234    -0.00020863702495608
 235      0.55129849008325
 236    0.0027258980307408
 237    -0.003869403600299
 238    -8.5811894606928e-05
 239    0.00024518721117402
 240    0.00014484011741187
 241    4.1450707531156e-05
 242    0.00034463567668845
 243    -4.9977699600911e-05
 244    5.0567802950594e-05
 245    0.00011806288018029
 246    -0.00011642243707712
 247    -5.6369616361968e-05
 248    0.00016654947508746
 249    -0.00010634579377229
 250    -0.00068026568694792
 251    -8.9890370025199e-05
 252    -0.00018806112676724
 253    -0.00018071647217844
 254    -9.1165721510127e-05
 255    -0.00065453908615326
 256    0.00014663342069649
 257    0.00021672185854496
 258    -8.9973831856026e-05
 259     0.028479464497773
 260    -1.3537503722434e-05
 261    -0.0019604293712153
 262    -0.00052653074698181