[Molden Format]
made by pyscf v[2.0.1]
[Atoms] (AU)
O   1   8     0.00000000000000     0.00000000000000    10.18586013564153
H   2   1     0.00000000000000     0.00000000000000     8.36245831374057
H   3   1    -0.05031916615174     1.78353065140343    10.56173183210820
O   4   8     0.00000000000000     0.00000000000000     2.31533471513237
C   5   6     0.00000000000000     0.00000000000000     0.00000000000000
C   6   6     2.01118073026938    -1.40227222164369    -1.50774939176400
C   7   6    -2.01249334291722     1.41331050329955    -1.50315905028694
H   8   1     3.32037363730244    -2.26721897153159    -0.13599698591495
C   9   6     3.45899267434009     0.28739631745591    -3.37437943254505
H   10   1     1.07662969841332    -2.94725144642667    -2.56541439481080
H   11   1    -2.67503415753480     0.18421555839588    -3.06194479365997
H   12   1    -1.07974048864772     3.03851734677796    -2.43674295017013
C   13   6    -4.21607110578555     2.32938802552922     0.11994162256091
H   14   1     4.24440173074564     1.93368664142019    -2.34976285512790
H   15   1     2.15020713235517     1.04714335134846    -4.81494497423699
C   16   6     5.60746363007797    -1.12419643481196    -4.70268606082550
H   17   1    -3.46838323670267     3.50951302338067     1.66946842715333
H   18   1    -5.11873485366228     0.68575958301209     1.04047743976495
C   19   6    -6.18314754751344     3.80909592987882    -1.39656589068747
H   20   1     6.93011263717176    -1.87550812453645    -3.26656317360070
C   21   6     7.06356622236532     0.52877932406334    -6.57829775293605
H   22   1     4.82318879258361    -2.78573437948532    -5.70504560381835
H   23   1    -6.91582688743803     2.61304780074712    -2.95074552451969
H   24   1    -5.26532430573853     5.45420349051338    -2.31005832200284
C   25   6    -8.39941882261433     4.73263980500213     0.21800571437956
H   26   1     7.83338371486801     2.19084139882824    -5.57093109900697
H   27   1     5.73544244039420     1.27376866537418    -8.01071492370229
C   28   6     9.21124858443101    -0.89699110072176    -7.88926949186242
H   29   1    -7.66272760055236     5.92277078003992     1.77035591474408
H   30   1    -9.31497248082589     3.08753015622020     1.12614408368786
C   31   6   -10.35481709231879     6.21833079391143    -1.30905206253246
H   32   1    10.58815905329501    -1.61074586756696    -6.49512691622620
H   33   1    10.23506248045667     0.32468009384095    -9.23072870921204
H   34   1     8.47665842847139    -2.53598436989925    -8.94921964622535
H   35   1    -9.48948872868064     7.90013588951020    -2.18823918416067
H   36   1   -11.93332513000955     6.86460487874102    -0.11255798845995
H   37   1   -11.15126291841033     5.04495968327630    -2.83849898862534
[GTO]
1 0
 s    8 1.00
                 11720  0.00070964594651845
                  1759  0.0054672722921914
                 400.8   0.027823118610189
                 113.7    0.10474773971146
                 37.03    0.28292084635691
                 13.27    0.44849523869833
                 5.025    0.27081688521277
                 1.013    0.01545029160744
 s    8 1.00
                 11720  -0.00031444341168873
                  1759  -0.0024821376810179
                 400.8  -0.012316355381583
                 113.7  -0.050538917343672
                 37.03   -0.13938490331632
                 13.27   -0.32507749481778
                 5.025   -0.22984830758785
                 1.013     1.0953793467883
 s    1 1.00
                0.3023                   1
 p    3 1.00
                  17.7   0.062679166281506
                 3.854    0.33353656587936
                 1.046    0.74123964163973
 p    1 1.00
                0.2753                   1
 d    1 1.00
                 1.185                   1

2 0
 s    3 1.00
                 13.01   0.033498726389998
                 1.962    0.23480080117413
                0.4446     0.8136829578829
 s    1 1.00
                 0.122                   1
 p    1 1.00
                 0.727                   1

3 0
 s    3 1.00
                 13.01   0.033498726389998
                 1.962    0.23480080117413
                0.4446     0.8136829578829
 s    1 1.00
                 0.122                   1
 p    1 1.00
                 0.727                   1

4 0
 s    8 1.00
                 11720  0.00070964594651845
                  1759  0.0054672722921914
                 400.8   0.027823118610189
                 113.7    0.10474773971146
                 37.03    0.28292084635691
                 13.27    0.44849523869833
                 5.025    0.27081688521277
                 1.013    0.01545029160744
 s    8 1.00
                 11720  -0.00031444341168873
                  1759  -0.0024821376810179
                 400.8  -0.012316355381583
                 113.7  -0.050538917343672
                 37.03   -0.13938490331632
                 13.27   -0.32507749481778
                 5.025   -0.22984830758785
                 1.013     1.0953793467883
 s    1 1.00
                0.3023                   1
 p    3 1.00
                  17.7   0.062679166281506
                 3.854    0.33353656587936
                 1.046    0.74123964163973
 p    1 1.00
                0.2753                   1
 d    1 1.00
                 1.185                   1

5 0
 s    8 1.00
                  6665  0.00069158396281299
                  1000  0.0053257961529341
                   228   0.027060721042034
                 64.71    0.10165684614077
                 21.06     0.2745748236174
                 7.495    0.44829431892377
                 2.797    0.28490261071525
                0.5215   0.015194859206082
 s    8 1.00
                  6665  -0.00029326965268655
                  1000  -0.0023180354739745
                   228  -0.011499786038565
                 64.71  -0.046826727009787
                 21.06   -0.12846616875047
                 7.495   -0.30126627246289
                 2.797   -0.25563070233011
                0.5215      1.093793361012
 s    1 1.00
                0.1596                   1
 p    3 1.00
                 9.439   0.056979251590039
                 2.002    0.31320721150073
                0.5456    0.76037674173753
 p    1 1.00
                0.1517                   1
 d    1 1.00
                  0.55                   1

6 0
 s    8 1.00
                  6665  0.00069158396281299
                  1000  0.0053257961529341
                   228   0.027060721042034
                 64.71    0.10165684614077
                 21.06     0.2745748236174
                 7.495    0.44829431892377
                 2.797    0.28490261071525
                0.5215   0.015194859206082
 s    8 1.00
                  6665  -0.00029326965268655
                  1000  -0.0023180354739745
                   228  -0.011499786038565
                 64.71  -0.046826727009787
                 21.06   -0.12846616875047
                 7.495   -0.30126627246289
                 2.797   -0.25563070233011
                0.5215      1.093793361012
 s    1 1.00
                0.1596                   1
 p    3 1.00
                 9.439   0.056979251590039
                 2.002    0.31320721150073
                0.5456    0.76037674173753
 p    1 1.00
                0.1517                   1
 d    1 1.00
                  0.55                   1

7 0
 s    8 1.00
                  6665  0.00069158396281299
                  1000  0.0053257961529341
                   228   0.027060721042034
                 64.71    0.10165684614077
                 21.06     0.2745748236174
                 7.495    0.44829431892377
                 2.797    0.28490261071525
                0.5215   0.015194859206082
 s    8 1.00
                  6665  -0.00029326965268655
                  1000  -0.0023180354739745
                   228  -0.011499786038565
                 64.71  -0.046826727009787
                 21.06   -0.12846616875047
                 7.495   -0.30126627246289
                 2.797   -0.25563070233011
                0.5215      1.093793361012
 s    1 1.00
                0.1596                   1
 p    3 1.00
                 9.439   0.056979251590039
                 2.002    0.31320721150073
                0.5456    0.76037674173753
 p    1 1.00
                0.1517                   1
 d    1 1.00
                  0.55                   1

8 0
 s    3 1.00
                 13.01   0.033498726389998
                 1.962    0.23480080117413
                0.4446     0.8136829578829
 s    1 1.00
                 0.122                   1
 p    1 1.00
                 0.727                   1

9 0
 s    8 1.00
                  6665  0.00069158396281299
                  1000  0.0053257961529341
                   228   0.027060721042034
                 64.71    0.10165684614077
                 21.06     0.2745748236174
                 7.495    0.44829431892377
                 2.797    0.28490261071525
                0.5215   0.015194859206082
 s    8 1.00
                  6665  -0.00029326965268655
                  1000  -0.0023180354739745
                   228  -0.011499786038565
                 64.71  -0.046826727009787
                 21.06   -0.12846616875047
                 7.495   -0.30126627246289
                 2.797   -0.25563070233011
                0.5215      1.093793361012
 s    1 1.00
                0.1596                   1
 p    3 1.00
                 9.439   0.056979251590039
                 2.002    0.31320721150073
                0.5456    0.76037674173753
 p    1 1.00
                0.1517                   1
 d    1 1.00
                  0.55                   1

10 0
 s    3 1.00
                 13.01   0.033498726389998
                 1.962    0.23480080117413
                0.4446     0.8136829578829
 s    1 1.00
                 0.122                   1
 p    1 1.00
                 0.727                   1

11 0
 s    3 1.00
                 13.01   0.033498726389998
                 1.962    0.23480080117413
                0.4446     0.8136829578829
 s    1 1.00
                 0.122                   1
 p    1 1.00
                 0.727                   1

12 0
 s    3 1.00
                 13.01   0.033498726389998
                 1.962    0.23480080117413
                0.4446     0.8136829578829
 s    1 1.00
                 0.122                   1
 p    1 1.00
                 0.727                   1

13 0
 s    8 1.00
                  6665  0.00069158396281299
                  1000  0.0053257961529341
                   228   0.027060721042034
                 64.71    0.10165684614077
                 21.06     0.2745748236174
                 7.495    0.44829431892377
                 2.797    0.28490261071525
                0.5215   0.015194859206082
 s    8 1.00
                  6665  -0.00029326965268655
                  1000  -0.0023180354739745
                   228  -0.011499786038565
                 64.71  -0.046826727009787
                 21.06   -0.12846616875047
                 7.495   -0.30126627246289
                 2.797   -0.25563070233011
                0.5215      1.093793361012
 s    1 1.00
                0.1596                   1
 p    3 1.00
                 9.439   0.056979251590039
                 2.002    0.31320721150073
                0.5456    0.76037674173753
 p    1 1.00
                0.1517                   1
 d    1 1.00
                  0.55                   1

14 0
 s    3 1.00
                 13.01   0.033498726389998
                 1.962    0.23480080117413
                0.4446     0.8136829578829
 s    1 1.00
                 0.122                   1
 p    1 1.00
                 0.727                   1

15 0
 s    3 1.00
                 13.01   0.033498726389998
                 1.962    0.23480080117413
                0.4446     0.8136829578829
 s    1 1.00
                 0.122                   1
 p    1 1.00
                 0.727                   1

16 0
 s    8 1.00
                  6665  0.00069158396281299
                  1000  0.0053257961529341
                   228   0.027060721042034
                 64.71    0.10165684614077
                 21.06     0.2745748236174
                 7.495    0.44829431892377
                 2.797    0.28490261071525
                0.5215   0.015194859206082
 s    8 1.00
                  6665  -0.00029326965268655
                  1000  -0.0023180354739745
                   228  -0.011499786038565
                 64.71  -0.046826727009787
                 21.06   -0.12846616875047
                 7.495   -0.30126627246289
                 2.797   -0.25563070233011
                0.5215      1.093793361012
 s    1 1.00
                0.1596                   1
 p    3 1.00
                 9.439   0.056979251590039
                 2.002    0.31320721150073
                0.5456    0.76037674173753
 p    1 1.00
                0.1517                   1
 d    1 1.00
                  0.55                   1

17 0
 s    3 1.00
                 13.01   0.033498726389998
                 1.962    0.23480080117413
                0.4446     0.8136829578829
 s    1 1.00
                 0.122                   1
 p    1 1.00
                 0.727                   1

18 0
 s    3 1.00
                 13.01   0.033498726389998
                 1.962    0.23480080117413
                0.4446     0.8136829578829
 s    1 1.00
                 0.122                   1
 p    1 1.00
                 0.727                   1

19 0
 s    8 1.00
                  6665  0.00069158396281299
                  1000  0.0053257961529341
                   228   0.027060721042034
                 64.71    0.10165684614077
                 21.06     0.2745748236174
                 7.495    0.44829431892377
                 2.797    0.28490261071525
                0.5215   0.015194859206082
 s    8 1.00
                  6665  -0.00029326965268655
                  1000  -0.0023180354739745
                   228  -0.011499786038565
                 64.71  -0.046826727009787
                 21.06   -0.12846616875047
                 7.495   -0.30126627246289
                 2.797   -0.25563070233011
                0.5215      1.093793361012
 s    1 1.00
                0.1596                   1
 p    3 1.00
                 9.439   0.056979251590039
                 2.002    0.31320721150073
                0.5456    0.76037674173753
 p    1 1.00
                0.1517                   1
 d    1 1.00
                  0.55                   1

20 0
 s    3 1.00
                 13.01   0.033498726389998
                 1.962    0.23480080117413
                0.4446     0.8136829578829
 s    1 1.00
                 0.122                   1
 p    1 1.00
                 0.727                   1

21 0
 s    8 1.00
                  6665  0.00069158396281299
                  1000  0.0053257961529341
                   228   0.027060721042034
                 64.71    0.10165684614077
                 21.06     0.2745748236174
                 7.495    0.44829431892377
                 2.797    0.28490261071525
                0.5215   0.015194859206082
 s    8 1.00
                  6665  -0.00029326965268655
                  1000  -0.0023180354739745
                   228  -0.011499786038565
                 64.71  -0.046826727009787
                 21.06   -0.12846616875047
                 7.495   -0.30126627246289
                 2.797   -0.25563070233011
                0.5215      1.093793361012
 s    1 1.00
                0.1596                   1
 p    3 1.00
                 9.439   0.056979251590039
                 2.002    0.31320721150073
                0.5456    0.76037674173753
 p    1 1.00
                0.1517                   1
 d    1 1.00
                  0.55                   1

22 0
 s    3 1.00
                 13.01   0.033498726389998
                 1.962    0.23480080117413
                0.4446     0.8136829578829
 s    1 1.00
                 0.122                   1
 p    1 1.00
                 0.727                   1

23 0
 s    3 1.00
                 13.01   0.033498726389998
                 1.962    0.23480080117413
                0.4446     0.8136829578829
 s    1 1.00
                 0.122                   1
 p    1 1.00
                 0.727                   1

24 0
 s    3 1.00
                 13.01   0.033498726389998
                 1.962    0.23480080117413
                0.4446     0.8136829578829
 s    1 1.00
                 0.122                   1
 p    1 1.00
                 0.727                   1

25 0
 s    8 1.00
                  6665  0.00069158396281299
                  1000  0.0053257961529341
                   228   0.027060721042034
                 64.71    0.10165684614077
                 21.06     0.2745748236174
                 7.495    0.44829431892377
                 2.797    0.28490261071525
                0.5215   0.015194859206082
 s    8 1.00
                  6665  -0.00029326965268655
                  1000  -0.0023180354739745
                   228  -0.011499786038565
                 64.71  -0.046826727009787
                 21.06   -0.12846616875047
                 7.495   -0.30126627246289
                 2.797   -0.25563070233011
                0.5215      1.093793361012
 s    1 1.00
                0.1596                   1
 p    3 1.00
                 9.439   0.056979251590039
                 2.002    0.31320721150073
                0.5456    0.76037674173753
 p    1 1.00
                0.1517                   1
 d    1 1.00
                  0.55                   1

26 0
 s    3 1.00
                 13.01   0.033498726389998
                 1.962    0.23480080117413
                0.4446     0.8136829578829
 s    1 1.00
                 0.122                   1
 p    1 1.00
                 0.727                   1

27 0
 s    3 1.00
                 13.01   0.033498726389998
                 1.962    0.23480080117413
                0.4446     0.8136829578829
 s    1 1.00
                 0.122                   1
 p    1 1.00
                 0.727                   1

28 0
 s    8 1.00
                  6665  0.00069158396281299
                  1000  0.0053257961529341
                   228   0.027060721042034
                 64.71    0.10165684614077
                 21.06     0.2745748236174
                 7.495    0.44829431892377
                 2.797    0.28490261071525
                0.5215   0.015194859206082
 s    8 1.00
                  6665  -0.00029326965268655
                  1000  -0.0023180354739745
                   228  -0.011499786038565
                 64.71  -0.046826727009787
                 21.06   -0.12846616875047
                 7.495   -0.30126627246289
                 2.797   -0.25563070233011
                0.5215      1.093793361012
 s    1 1.00
                0.1596                   1
 p    3 1.00
                 9.439   0.056979251590039
                 2.002    0.31320721150073
                0.5456    0.76037674173753
 p    1 1.00
                0.1517                   1
 d    1 1.00
                  0.55                   1

29 0
 s    3 1.00
                 13.01   0.033498726389998
                 1.962    0.23480080117413
                0.4446     0.8136829578829
 s    1 1.00
                 0.122                   1
 p    1 1.00
                 0.727                   1

30 0
 s    3 1.00
                 13.01   0.033498726389998
                 1.962    0.23480080117413
                0.4446     0.8136829578829
 s    1 1.00
                 0.122                   1
 p    1 1.00
                 0.727                   1

31 0
 s    8 1.00
                  6665  0.00069158396281299
                  1000  0.0053257961529341
                   228   0.027060721042034
                 64.71    0.10165684614077
                 21.06     0.2745748236174
                 7.495    0.44829431892377
                 2.797    0.28490261071525
                0.5215   0.015194859206082
 s    8 1.00
                  6665  -0.00029326965268655
                  1000  -0.0023180354739745
                   228  -0.011499786038565
                 64.71  -0.046826727009787
                 21.06   -0.12846616875047
                 7.495   -0.30126627246289
                 2.797   -0.25563070233011
                0.5215      1.093793361012
 s    1 1.00
                0.1596                   1
 p    3 1.00
                 9.439   0.056979251590039
                 2.002    0.31320721150073
                0.5456    0.76037674173753
 p    1 1.00
                0.1517                   1
 d    1 1.00
                  0.55                   1

32 0
 s    3 1.00
                 13.01   0.033498726389998
                 1.962    0.23480080117413
                0.4446     0.8136829578829
 s    1 1.00
                 0.122                   1
 p    1 1.00
                 0.727                   1

33 0
 s    3 1.00
                 13.01   0.033498726389998
                 1.962    0.23480080117413
                0.4446     0.8136829578829
 s    1 1.00
                 0.122                   1
 p    1 1.00
                 0.727                   1

34 0
 s    3 1.00
                 13.01   0.033498726389998
                 1.962    0.23480080117413
                0.4446     0.8136829578829
 s    1 1.00
                 0.122                   1
 p    1 1.00
                 0.727                   1

35 0
 s    3 1.00
                 13.01   0.033498726389998
                 1.962    0.23480080117413
                0.4446     0.8136829578829
 s    1 1.00
                 0.122                   1
 p    1 1.00
                 0.727                   1

36 0
 s    3 1.00
                 13.01   0.033498726389998
                 1.962    0.23480080117413
                0.4446     0.8136829578829
 s    1 1.00
                 0.122                   1
 p    1 1.00
                 0.727                   1

37 0
 s    3 1.00
                 13.01   0.033498726389998
                 1.962    0.23480080117413
                0.4446     0.8136829578829
 s    1 1.00
                 0.122                   1
 p    1 1.00
                 0.727                   1

[5d]
[7f]
[9g]

[MO]
 Sym= A
 Ene=               0
 Spin= Alpha
 Occup=    1.00000
   1    1.3707973093034e-06
   2    2.5265851646553e-06
   3    -8.0183115601979e-06
   4    7.5800421908643e-08
   5    -3.6610319999477e-07
   6    1.5528159591456e-07
   7    -1.4934366036917e-07
   8    7.8320840681582e-07
   9    4.6540447353042e-06
  10    -8.2226900012504e-07
  11    -2.5703838566247e-08
  12    3.7213944903093e-08
  13    3.5471445073287e-08
  14    -6.6182002533059e-09
  15    5.4485113353664e-07
  16    1.0162472763755e-05
  17    -1.4251101538872e-07
  18    3.5997953340065e-08
  19    2.9896823004549e-06
  20    3.8702558643513e-07
  21    -1.8996578201991e-06
  22    2.9981375146303e-08
  23    -1.0259961983158e-07
  24    -2.1039591126812e-07
  25    -2.3056997983977e-06
  26    7.8221927619228e-06
  27    5.2151191213493e-05
  28    -2.0660651850113e-05
  29    3.9242207901496e-06
  30    -1.8524700114881e-05
  31    5.7999026798422e-05
  32    -3.9006216303329e-05
  33    -3.8266975376319e-05
  34    -1.9434456343915e-06
  35    2.8877494692267e-06
  36    -1.4453641724554e-06
  37    -7.4579283932033e-07
  38    2.3130440836108e-06
  39    9.2266764395121e-05
  40    0.00022578524844588
  41    -0.00085110515311798
  42    -7.6328956302972e-05
  43    6.6497449649666e-05
  44    -7.6816457727358e-05
  45    -0.00031479160192853
  46    0.00024320006761334
  47    0.00017225435515492
  48    1.1727558547957e-05
  49    4.7028778873838e-05
  50    -3.2123346441283e-05
  51    -3.5547171455275e-06
  52    2.8475839919511e-05
  53    2.433315386185e-05
  54    0.00014165622937306
  55    0.0001933427185639
  56    0.00013086189673861
  57    0.00010819660015012
  58    -0.00014539048213341
  59    -0.00064861911640476
  60    0.00023231748272609
  61    0.00038357200656982
  62    1.6677478639052e-06
  63    -3.3470909188726e-05
  64    1.9110855067745e-05
  65    3.0736681838641e-05
  66    -2.7759510247554e-05
  67    0.00014989759612334
  68    0.00012971225545967
  69      0.00087485644706
  70    2.8425703578841e-05
  71    -5.0442691383319e-05
  72    0.00012067602452491
  73    -0.00042319619294879
  74    0.00012093480187108
  75    0.00031248721794252
  76    1.0046234185268e-05
  77    -0.00011546015125939
  78    6.8724387645604e-05
  79    4.2063532258608e-05
  80    -4.313870036848e-05
  81    4.3744314888116e-05
  82    3.7887003537994e-05
  83    1.9237336808474e-05
  84    -6.2706580669598e-06
  85    -2.843641591863e-05
  86    0.00035810218551237
  87    0.00072469852723407
  88    -0.00048522747624746
  89    0.00047709742265147
  90    -0.00039844978460475
  91    -0.00026766309000306
  92    -0.00040443429678223
  93    -0.0002980958895888
  94    0.00048969917041881
  95    -7.819044120527e-06
  96    -3.2221467572644e-05
  97    -3.6955444403002e-05
  98    7.1718590017513e-05
  99    -7.7653063131061e-06
 100    -1.9384007568726e-05
 101    -9.0628866153073e-05
 102    3.669517585802e-05
 103    -1.0161716655378e-05
 104    -1.4349410975883e-05
 105    8.5425796633505e-05
 106    0.00011882853945212
 107    2.8053491391266e-05
 108    3.8166051166043e-06
 109    -5.7221456491089e-06
 110    3.7057356892699e-05
 111    1.0267265007233e-05
 112    2.4058858218221e-06
 113    -1.6899866320194e-05
 114    -8.6874809280823e-06
 115    -0.061864293722533
 116    0.0019414667731878
 117    0.00049651078748152
 118    -0.00013573555490598
 119    0.00022604109268247
 120    0.0012341516866748
 121    -0.00027903609165865
 122    0.00015675413460395
 123    0.0011300316411107
 124    1.8258686107656e-06
 125    2.6454722867915e-05
 126    -2.0952014184918e-06
 127    -2.0134033733696e-05
 128    3.337434227644e-06
 129    -6.3520297275995e-05
 130    -0.00018985181811805
 131    3.2279310408506e-05
 132    -5.321178209008e-06
 133    -5.7101463806201e-05
 134    0.00010948341293909
 135    0.0001880955776729
 136    5.4227722820732e-05
 137    -2.7729776044141e-07
 138    -1.7183111727987e-05
 139    -0.063553942130564
 140    -2.7031346863006e-05
 141    -0.00063163343781959
 142    0.00045426913105454
 143    0.0018384900063583
 144    0.00058424548998816
 145    -0.00097968752392589
 146    0.00066750424047559
 147     0.001416182778753
 148    1.1305086510166e-05
 149    -0.00012867715775333
 150    -0.00014746556491649
 151    2.0245978070485e-05
 152    -2.9550077344352e-05
 153    0.0019359751181193
 154    0.00012510767010447
 155    -3.9991860369439e-05
 156    -0.00014741244643875
 157    -0.00015227683775457
 158    0.0014679206134494
 159    2.9897129382137e-05
 160    0.00012415796308271
 161    0.00012581939788338
 162    -6.3128082959439e-05
 163     -0.27189788071537
 164    -0.0018658852566071
 165    0.0048843997999723
 166    0.00036279232864024
 167    9.8601404335357e-06
 168    0.0010190283485235
 169    -0.00061785973225791
 170    0.00024567342752408
 171    0.0013904579947525
 172    -3.9063288646059e-05
 173    0.00015672395894789
 174    -0.00013156717880228
 175    4.8036522703081e-05
 176    -0.00013635669426827
 177    0.00020977920446714
 178    -1.6157497636377e-05
 179    2.4886417944103e-05
 180    1.7970417063228e-05
 181    -2.1049127080163e-05
 182     -0.57258177060692
 183    -0.0023464282276065
 184    0.0061821181202857
 185    -0.0008508734621509
 186    3.7636751505056e-05
 187    0.00069619967191561
 188    -0.00092641763332216
 189    -0.0004907502262557
 190    0.00093426857907181
 191    4.9038035606058e-05
 192    -0.00026990946613625
 193    -9.5016570088357e-05
 194    5.9612270313266e-05
 195    -3.4120864858773e-05
 196    -0.0016238839452913
 197    -0.00083278421562573
 198    5.3741266316871e-06
 199    -9.3957737097092e-05
 200    -5.2794980651243e-05
 201    -0.0010205337725647
 202    -0.00053744115701912
 203    4.5121174360211e-06
 204    5.8878395027807e-05
 205    5.0063567291602e-05
 206    -0.00047854400690657
 207    -0.00030536833335044
 208    -6.9522239542687e-05
 209    -6.8693965790265e-05
 210    5.3804553252811e-05
 211      0.57797719192417
 212    0.0030615109254614
 213    -0.0078535941704033
 214    -0.00047238300505355
 215    0.00028626511707642
 216    -0.00047373718693121
 217    -0.00090715953117434
 218    0.00030853639700938
 219    0.00066995717159366
 220    6.5382732323604e-06
 221    5.1111990653079e-05
 222    -2.8860774124395e-05
 223    -5.339673728782e-05
 224    0.00010017136603715
 225    0.00019988117870795
 226    -0.00087307412133406
 227    -0.00015565171739509
 228    -0.00018025137322021
 229    -0.00016251767006571
 230    0.00037833147657757
 231    -0.00066329948216837
 232    0.00016917168412918
 233    -3.9991399519467e-05
 234    0.00022423453767733
 235     -0.51121390008784
 236    -0.0025613574691883
 237    0.0033765958977521
 238    0.00029617676335017
 239    -0.0002980129431571
 240    -0.00029251525119893
 241    0.00012685325747568
 242    -0.00037321170414419
 243    -7.7490540641237e-05
 244    -4.1967859945055e-05
 245    -0.00011864404104137
 246    0.00010111602212661
 247    6.2839270682624e-05
 248    -0.00014716170590182
 249    -0.00026354089877106
 250    0.00044371136219168
 251    0.00010122270986616
 252    0.00020196642236502
 253    0.00018628242860373
 254    -0.00010092885427212
 255    0.00054573902055515
 256    -0.00015058813163157
 257    -0.00023237258006346
 258    8.0804498796044e-05
 259    0.0029094331566604
 260    0.00027963759738826
 261    0.0017469617647223
 262    0.00059859105927463
 263    -0.00046465310683718