[Molden Format]
made by pyscf v[2.0.1]
[Atoms] (AU)
O   1   8     0.00000000000000     0.00000000000000     9.05202446090250
H   2   1     0.00000000000000     0.00000000000000     7.22862263900153
H   3   1    -0.05031916615174     1.78353065140343     9.42789615736916
O   4   8     0.00000000000000     0.00000000000000     2.31533471513237
C   5   6     0.00000000000000     0.00000000000000     0.00000000000000
C   6   6     2.01118073026938    -1.40227222164369    -1.50774939176400
C   7   6    -2.01249334291722     1.41331050329955    -1.50315905028694
H   8   1     3.32037363730244    -2.26721897153159    -0.13599698591495
C   9   6     3.45899267434009     0.28739631745591    -3.37437943254505
H   10   1     1.07662969841332    -2.94725144642667    -2.56541439481080
H   11   1    -2.67503415753480     0.18421555839588    -3.06194479365997
H   12   1    -1.07974048864772     3.03851734677796    -2.43674295017013
C   13   6    -4.21607110578555     2.32938802552922     0.11994162256091
H   14   1     4.24440173074564     1.93368664142019    -2.34976285512790
H   15   1     2.15020713235517     1.04714335134846    -4.81494497423699
C   16   6     5.60746363007797    -1.12419643481196    -4.70268606082550
H   17   1    -3.46838323670267     3.50951302338067     1.66946842715333
H   18   1    -5.11873485366228     0.68575958301209     1.04047743976495
C   19   6    -6.18314754751344     3.80909592987882    -1.39656589068747
H   20   1     6.93011263717176    -1.87550812453645    -3.26656317360070
C   21   6     7.06356622236532     0.52877932406334    -6.57829775293605
H   22   1     4.82318879258361    -2.78573437948532    -5.70504560381835
H   23   1    -6.91582688743803     2.61304780074712    -2.95074552451969
H   24   1    -5.26532430573853     5.45420349051338    -2.31005832200284
C   25   6    -8.39941882261433     4.73263980500213     0.21800571437956
H   26   1     7.83338371486801     2.19084139882824    -5.57093109900697
H   27   1     5.73544244039420     1.27376866537418    -8.01071492370229
C   28   6     9.21124858443101    -0.89699110072176    -7.88926949186242
H   29   1    -7.66272760055236     5.92277078003992     1.77035591474408
H   30   1    -9.31497248082589     3.08753015622020     1.12614408368786
C   31   6   -10.35481709231879     6.21833079391143    -1.30905206253246
H   32   1    10.58815905329501    -1.61074586756696    -6.49512691622620
H   33   1    10.23506248045667     0.32468009384095    -9.23072870921204
H   34   1     8.47665842847139    -2.53598436989925    -8.94921964622535
H   35   1    -9.48948872868064     7.90013588951020    -2.18823918416067
H   36   1   -11.93332513000955     6.86460487874102    -0.11255798845995
H   37   1   -11.15126291841033     5.04495968327630    -2.83849898862534
[GTO]
1 0
 s    8 1.00
                 11720  0.00070964594651845
                  1759  0.0054672722921914
                 400.8   0.027823118610189
                 113.7    0.10474773971146
                 37.03    0.28292084635691
                 13.27    0.44849523869833
                 5.025    0.27081688521277
                 1.013    0.01545029160744
 s    8 1.00
                 11720  -0.00031444341168873
                  1759  -0.0024821376810179
                 400.8  -0.012316355381583
                 113.7  -0.050538917343672
                 37.03   -0.13938490331632
                 13.27   -0.32507749481778
                 5.025   -0.22984830758785
                 1.013     1.0953793467883
 s    1 1.00
                0.3023                   1
 p    3 1.00
                  17.7   0.062679166281506
                 3.854    0.33353656587936
                 1.046    0.74123964163973
 p    1 1.00
                0.2753                   1
 d    1 1.00
                 1.185                   1

2 0
 s    3 1.00
                 13.01   0.033498726389998
                 1.962    0.23480080117413
                0.4446     0.8136829578829
 s    1 1.00
                 0.122                   1
 p    1 1.00
                 0.727                   1

3 0
 s    3 1.00
                 13.01   0.033498726389998
                 1.962    0.23480080117413
                0.4446     0.8136829578829
 s    1 1.00
                 0.122                   1
 p    1 1.00
                 0.727                   1

4 0
 s    8 1.00
                 11720  0.00070964594651845
                  1759  0.0054672722921914
                 400.8   0.027823118610189
                 113.7    0.10474773971146
                 37.03    0.28292084635691
                 13.27    0.44849523869833
                 5.025    0.27081688521277
                 1.013    0.01545029160744
 s    8 1.00
                 11720  -0.00031444341168873
                  1759  -0.0024821376810179
                 400.8  -0.012316355381583
                 113.7  -0.050538917343672
                 37.03   -0.13938490331632
                 13.27   -0.32507749481778
                 5.025   -0.22984830758785
                 1.013     1.0953793467883
 s    1 1.00
                0.3023                   1
 p    3 1.00
                  17.7   0.062679166281506
                 3.854    0.33353656587936
                 1.046    0.74123964163973
 p    1 1.00
                0.2753                   1
 d    1 1.00
                 1.185                   1

5 0
 s    8 1.00
                  6665  0.00069158396281299
                  1000  0.0053257961529341
                   228   0.027060721042034
                 64.71    0.10165684614077
                 21.06     0.2745748236174
                 7.495    0.44829431892377
                 2.797    0.28490261071525
                0.5215   0.015194859206082
 s    8 1.00
                  6665  -0.00029326965268655
                  1000  -0.0023180354739745
                   228  -0.011499786038565
                 64.71  -0.046826727009787
                 21.06   -0.12846616875047
                 7.495   -0.30126627246289
                 2.797   -0.25563070233011
                0.5215      1.093793361012
 s    1 1.00
                0.1596                   1
 p    3 1.00
                 9.439   0.056979251590039
                 2.002    0.31320721150073
                0.5456    0.76037674173753
 p    1 1.00
                0.1517                   1
 d    1 1.00
                  0.55                   1

6 0
 s    8 1.00
                  6665  0.00069158396281299
                  1000  0.0053257961529341
                   228   0.027060721042034
                 64.71    0.10165684614077
                 21.06     0.2745748236174
                 7.495    0.44829431892377
                 2.797    0.28490261071525
                0.5215   0.015194859206082
 s    8 1.00
                  6665  -0.00029326965268655
                  1000  -0.0023180354739745
                   228  -0.011499786038565
                 64.71  -0.046826727009787
                 21.06   -0.12846616875047
                 7.495   -0.30126627246289
                 2.797   -0.25563070233011
                0.5215      1.093793361012
 s    1 1.00
                0.1596                   1
 p    3 1.00
                 9.439   0.056979251590039
                 2.002    0.31320721150073
                0.5456    0.76037674173753
 p    1 1.00
                0.1517                   1
 d    1 1.00
                  0.55                   1

7 0
 s    8 1.00
                  6665  0.00069158396281299
                  1000  0.0053257961529341
                   228   0.027060721042034
                 64.71    0.10165684614077
                 21.06     0.2745748236174
                 7.495    0.44829431892377
                 2.797    0.28490261071525
                0.5215   0.015194859206082
 s    8 1.00
                  6665  -0.00029326965268655
                  1000  -0.0023180354739745
                   228  -0.011499786038565
                 64.71  -0.046826727009787
                 21.06   -0.12846616875047
                 7.495   -0.30126627246289
                 2.797   -0.25563070233011
                0.5215      1.093793361012
 s    1 1.00
                0.1596                   1
 p    3 1.00
                 9.439   0.056979251590039
                 2.002    0.31320721150073
                0.5456    0.76037674173753
 p    1 1.00
                0.1517                   1
 d    1 1.00
                  0.55                   1

8 0
 s    3 1.00
                 13.01   0.033498726389998
                 1.962    0.23480080117413
                0.4446     0.8136829578829
 s    1 1.00
                 0.122                   1
 p    1 1.00
                 0.727                   1

9 0
 s    8 1.00
                  6665  0.00069158396281299
                  1000  0.0053257961529341
                   228   0.027060721042034
                 64.71    0.10165684614077
                 21.06     0.2745748236174
                 7.495    0.44829431892377
                 2.797    0.28490261071525
                0.5215   0.015194859206082
 s    8 1.00
                  6665  -0.00029326965268655
                  1000  -0.0023180354739745
                   228  -0.011499786038565
                 64.71  -0.046826727009787
                 21.06   -0.12846616875047
                 7.495   -0.30126627246289
                 2.797   -0.25563070233011
                0.5215      1.093793361012
 s    1 1.00
                0.1596                   1
 p    3 1.00
                 9.439   0.056979251590039
                 2.002    0.31320721150073
                0.5456    0.76037674173753
 p    1 1.00
                0.1517                   1
 d    1 1.00
                  0.55                   1

10 0
 s    3 1.00
                 13.01   0.033498726389998
                 1.962    0.23480080117413
                0.4446     0.8136829578829
 s    1 1.00
                 0.122                   1
 p    1 1.00
                 0.727                   1

11 0
 s    3 1.00
                 13.01   0.033498726389998
                 1.962    0.23480080117413
                0.4446     0.8136829578829
 s    1 1.00
                 0.122                   1
 p    1 1.00
                 0.727                   1

12 0
 s    3 1.00
                 13.01   0.033498726389998
                 1.962    0.23480080117413
                0.4446     0.8136829578829
 s    1 1.00
                 0.122                   1
 p    1 1.00
                 0.727                   1

13 0
 s    8 1.00
                  6665  0.00069158396281299
                  1000  0.0053257961529341
                   228   0.027060721042034
                 64.71    0.10165684614077
                 21.06     0.2745748236174
                 7.495    0.44829431892377
                 2.797    0.28490261071525
                0.5215   0.015194859206082
 s    8 1.00
                  6665  -0.00029326965268655
                  1000  -0.0023180354739745
                   228  -0.011499786038565
                 64.71  -0.046826727009787
                 21.06   -0.12846616875047
                 7.495   -0.30126627246289
                 2.797   -0.25563070233011
                0.5215      1.093793361012
 s    1 1.00
                0.1596                   1
 p    3 1.00
                 9.439   0.056979251590039
                 2.002    0.31320721150073
                0.5456    0.76037674173753
 p    1 1.00
                0.1517                   1
 d    1 1.00
                  0.55                   1

14 0
 s    3 1.00
                 13.01   0.033498726389998
                 1.962    0.23480080117413
                0.4446     0.8136829578829
 s    1 1.00
                 0.122                   1
 p    1 1.00
                 0.727                   1

15 0
 s    3 1.00
                 13.01   0.033498726389998
                 1.962    0.23480080117413
                0.4446     0.8136829578829
 s    1 1.00
                 0.122                   1
 p    1 1.00
                 0.727                   1

16 0
 s    8 1.00
                  6665  0.00069158396281299
                  1000  0.0053257961529341
                   228   0.027060721042034
                 64.71    0.10165684614077
                 21.06     0.2745748236174
                 7.495    0.44829431892377
                 2.797    0.28490261071525
                0.5215   0.015194859206082
 s    8 1.00
                  6665  -0.00029326965268655
                  1000  -0.0023180354739745
                   228  -0.011499786038565
                 64.71  -0.046826727009787
                 21.06   -0.12846616875047
                 7.495   -0.30126627246289
                 2.797   -0.25563070233011
                0.5215      1.093793361012
 s    1 1.00
                0.1596                   1
 p    3 1.00
                 9.439   0.056979251590039
                 2.002    0.31320721150073
                0.5456    0.76037674173753
 p    1 1.00
                0.1517                   1
 d    1 1.00
                  0.55                   1

17 0
 s    3 1.00
                 13.01   0.033498726389998
                 1.962    0.23480080117413
                0.4446     0.8136829578829
 s    1 1.00
                 0.122                   1
 p    1 1.00
                 0.727                   1

18 0
 s    3 1.00
                 13.01   0.033498726389998
                 1.962    0.23480080117413
                0.4446     0.8136829578829
 s    1 1.00
                 0.122                   1
 p    1 1.00
                 0.727                   1

19 0
 s    8 1.00
                  6665  0.00069158396281299
                  1000  0.0053257961529341
                   228   0.027060721042034
                 64.71    0.10165684614077
                 21.06     0.2745748236174
                 7.495    0.44829431892377
                 2.797    0.28490261071525
                0.5215   0.015194859206082
 s    8 1.00
                  6665  -0.00029326965268655
                  1000  -0.0023180354739745
                   228  -0.011499786038565
                 64.71  -0.046826727009787
                 21.06   -0.12846616875047
                 7.495   -0.30126627246289
                 2.797   -0.25563070233011
                0.5215      1.093793361012
 s    1 1.00
                0.1596                   1
 p    3 1.00
                 9.439   0.056979251590039
                 2.002    0.31320721150073
                0.5456    0.76037674173753
 p    1 1.00
                0.1517                   1
 d    1 1.00
                  0.55                   1

20 0
 s    3 1.00
                 13.01   0.033498726389998
                 1.962    0.23480080117413
                0.4446     0.8136829578829
 s    1 1.00
                 0.122                   1
 p    1 1.00
                 0.727                   1

21 0
 s    8 1.00
                  6665  0.00069158396281299
                  1000  0.0053257961529341
                   228   0.027060721042034
                 64.71    0.10165684614077
                 21.06     0.2745748236174
                 7.495    0.44829431892377
                 2.797    0.28490261071525
                0.5215   0.015194859206082
 s    8 1.00
                  6665  -0.00029326965268655
                  1000  -0.0023180354739745
                   228  -0.011499786038565
                 64.71  -0.046826727009787
                 21.06   -0.12846616875047
                 7.495   -0.30126627246289
                 2.797   -0.25563070233011
                0.5215      1.093793361012
 s    1 1.00
                0.1596                   1
 p    3 1.00
                 9.439   0.056979251590039
                 2.002    0.31320721150073
                0.5456    0.76037674173753
 p    1 1.00
                0.1517                   1
 d    1 1.00
                  0.55                   1

22 0
 s    3 1.00
                 13.01   0.033498726389998
                 1.962    0.23480080117413
                0.4446     0.8136829578829
 s    1 1.00
                 0.122                   1
 p    1 1.00
                 0.727                   1

23 0
 s    3 1.00
                 13.01   0.033498726389998
                 1.962    0.23480080117413
                0.4446     0.8136829578829
 s    1 1.00
                 0.122                   1
 p    1 1.00
                 0.727                   1

24 0
 s    3 1.00
                 13.01   0.033498726389998
                 1.962    0.23480080117413
                0.4446     0.8136829578829
 s    1 1.00
                 0.122                   1
 p    1 1.00
                 0.727                   1

25 0
 s    8 1.00
                  6665  0.00069158396281299
                  1000  0.0053257961529341
                   228   0.027060721042034
                 64.71    0.10165684614077
                 21.06     0.2745748236174
                 7.495    0.44829431892377
                 2.797    0.28490261071525
                0.5215   0.015194859206082
 s    8 1.00
                  6665  -0.00029326965268655
                  1000  -0.0023180354739745
                   228  -0.011499786038565
                 64.71  -0.046826727009787
                 21.06   -0.12846616875047
                 7.495   -0.30126627246289
                 2.797   -0.25563070233011
                0.5215      1.093793361012
 s    1 1.00
                0.1596                   1
 p    3 1.00
                 9.439   0.056979251590039
                 2.002    0.31320721150073
                0.5456    0.76037674173753
 p    1 1.00
                0.1517                   1
 d    1 1.00
                  0.55                   1

26 0
 s    3 1.00
                 13.01   0.033498726389998
                 1.962    0.23480080117413
                0.4446     0.8136829578829
 s    1 1.00
                 0.122                   1
 p    1 1.00
                 0.727                   1

27 0
 s    3 1.00
                 13.01   0.033498726389998
                 1.962    0.23480080117413
                0.4446     0.8136829578829
 s    1 1.00
                 0.122                   1
 p    1 1.00
                 0.727                   1

28 0
 s    8 1.00
                  6665  0.00069158396281299
                  1000  0.0053257961529341
                   228   0.027060721042034
                 64.71    0.10165684614077
                 21.06     0.2745748236174
                 7.495    0.44829431892377
                 2.797    0.28490261071525
                0.5215   0.015194859206082
 s    8 1.00
                  6665  -0.00029326965268655
                  1000  -0.0023180354739745
                   228  -0.011499786038565
                 64.71  -0.046826727009787
                 21.06   -0.12846616875047
                 7.495   -0.30126627246289
                 2.797   -0.25563070233011
                0.5215      1.093793361012
 s    1 1.00
                0.1596                   1
 p    3 1.00
                 9.439   0.056979251590039
                 2.002    0.31320721150073
                0.5456    0.76037674173753
 p    1 1.00
                0.1517                   1
 d    1 1.00
                  0.55                   1

29 0
 s    3 1.00
                 13.01   0.033498726389998
                 1.962    0.23480080117413
                0.4446     0.8136829578829
 s    1 1.00
                 0.122                   1
 p    1 1.00
                 0.727                   1

30 0
 s    3 1.00
                 13.01   0.033498726389998
                 1.962    0.23480080117413
                0.4446     0.8136829578829
 s    1 1.00
                 0.122                   1
 p    1 1.00
                 0.727                   1

31 0
 s    8 1.00
                  6665  0.00069158396281299
                  1000  0.0053257961529341
                   228   0.027060721042034
                 64.71    0.10165684614077
                 21.06     0.2745748236174
                 7.495    0.44829431892377
                 2.797    0.28490261071525
                0.5215   0.015194859206082
 s    8 1.00
                  6665  -0.00029326965268655
                  1000  -0.0023180354739745
                   228  -0.011499786038565
                 64.71  -0.046826727009787
                 21.06   -0.12846616875047
                 7.495   -0.30126627246289
                 2.797   -0.25563070233011
                0.5215      1.093793361012
 s    1 1.00
                0.1596                   1
 p    3 1.00
                 9.439   0.056979251590039
                 2.002    0.31320721150073
                0.5456    0.76037674173753
 p    1 1.00
                0.1517                   1
 d    1 1.00
                  0.55                   1

32 0
 s    3 1.00
                 13.01   0.033498726389998
                 1.962    0.23480080117413
                0.4446     0.8136829578829
 s    1 1.00
                 0.122                   1
 p    1 1.00
                 0.727                   1

33 0
 s    3 1.00
                 13.01   0.033498726389998
                 1.962    0.23480080117413
                0.4446     0.8136829578829
 s    1 1.00
                 0.122                   1
 p    1 1.00
                 0.727                   1

34 0
 s    3 1.00
                 13.01   0.033498726389998
                 1.962    0.23480080117413
                0.4446     0.8136829578829
 s    1 1.00
                 0.122                   1
 p    1 1.00
                 0.727                   1

35 0
 s    3 1.00
                 13.01   0.033498726389998
                 1.962    0.23480080117413
                0.4446     0.8136829578829
 s    1 1.00
                 0.122                   1
 p    1 1.00
                 0.727                   1

36 0
 s    3 1.00
                 13.01   0.033498726389998
                 1.962    0.23480080117413
                0.4446     0.8136829578829
 s    1 1.00
                 0.122                   1
 p    1 1.00
                 0.727                   1

37 0
 s    3 1.00
                 13.01   0.033498726389998
                 1.962    0.23480080117413
                0.4446     0.8136829578829
 s    1 1.00
                 0.122                   1
 p    1 1.00
                 0.727                   1

[5d]
[7f]
[9g]

[MO]
 Sym= A
 Ene=               0
 Spin= Alpha
 Occup=    1.00000
   1    2.7005542257419e-06
   2    5.0330904798378e-06
   3    -1.558999592772e-05
   4    2.9976743494253e-07
   5    -7.426233999134e-07
   6    4.708604105752e-07
   7    -5.0786769343508e-07
   8    7.2596442935951e-07
   9    7.5141598252204e-06
  10    -1.2609434290036e-06
  11    -1.0043128994157e-07
  12    5.0198207881193e-08
  13    1.4673779344125e-07
  14    -2.6479469700204e-08
  15    5.2224802018663e-07
  16    1.811339325092e-05
  17    -5.8584899708814e-07
  18    2.7915652514055e-07
  19    4.6167568527507e-06
  20    5.301059563739e-07
  21    -8.5270052557178e-07
  22    9.9987001115518e-08
  23    -7.5834493063063e-07
  24    -4.2927005066389e-07
  25    -1.2418425942228e-06
  26    8.1148393586072e-06
  27    5.0655845669112e-05
  28    -2.1823603036415e-05
  29    4.5808030038173e-06
  30    -1.5546568501245e-05
  31    6.0632200117258e-05
  32    -4.153582001416e-05
  33    -4.0406892454494e-05
  34    -1.9663279276217e-06
  35    2.7860545492391e-06
  36    -1.3302587912845e-06
  37    -4.5344998202453e-07
  38    1.9860376447595e-06
  39    8.7887652112929e-05
  40    0.00021113623783826
  41    -0.00083250347521054
  42    -7.0571684358072e-05
  43    6.2151404443898e-05
  44    -7.3747437333234e-05
  45    -0.00035275499770243
  46    0.00026996739365543
  47    0.00017096296777866
  48    1.2456940268144e-05
  49    4.8983633565814e-05
  50    -3.3695957832487e-05
  51    -4.2145629460193e-06
  52    2.8258588956807e-05
  53    1.7176417665097e-05
  54    0.00012523193669192
  55    0.0002032072391753
  56    0.00012677991325892
  57    9.8236057162257e-05
  58    -0.00013756962787722
  59    -0.00066326712655132
  60    0.00023190804097922
  61    0.00041031951597152
  62    1.5405441378591e-06
  63    -3.4846873950089e-05
  64    1.9555840022856e-05
  65    2.9926548797548e-05
  66    -2.8453507343008e-05
  67    0.00014001312826153
  68    0.00010959411924638
  69    0.00080669799255616
  70    4.4589081117905e-05
  71    -5.3516255233798e-05
  72    0.00010068539188358
  73    -0.00043018838264263
  74    0.00013525807740424
  75    0.0002791462456344
  76    1.3881163257029e-05
  77    -0.00011594778101809
  78    6.4769889321303e-05
  79    4.1947216324173e-05
  80    -3.7100943779931e-05
  81    4.2776221566141e-05
  82    3.5711953922866e-05
  83    1.8915079180409e-05
  84    -6.4794229959916e-06
  85    -2.7929015347338e-05
  86    0.00037055284543555
  87    0.00073248669852368
  88    -0.00046181700111059
  89    0.0004590833931493
  90    -0.00037705031725263
  91    -0.00025898181864328
  92    -0.00040360030430816
  93    -0.00028247679664455
  94    0.00047714055872512
  95    -9.9118717226257e-06
  96    -2.2713869610768e-05
  97    -3.5156782337067e-05
  98    6.2983484436141e-05
  99    -8.6699550869892e-06
 100    -1.9379957843053e-05
 101    -8.641629280279e-05
 102    3.662412685043e-05
 103    -1.0597561803956e-05
 104    -1.4753238113889e-05
 105    8.4772057816038e-05
 106    0.00011385048561082
 107    2.9039659417826e-05
 108    2.1198184073794e-06
 109    -5.7808096507759e-06
 110    4.8669842614901e-05
 111    1.8105265489961e-05
 112    4.8508243531129e-06
 113    -1.6271497446908e-05
 114    -8.1438151099558e-06
 115    -0.059372290201687
 116    0.0018301730213068
 117    0.00048215730088959
 118    -9.4953670276117e-05
 119    9.5223349984411e-05
 120    0.0012490963521958
 121    -0.00030390431766634
 122    0.0001219228615287
 123    0.0011283849417003
 124    1.7998333447384e-05
 125    3.2366299048679e-05
 126    -7.5680055676328e-06
 127    -2.4547598550066e-05
 128    1.9595732250679e-05
 129    -3.2777032460933e-05
 130    -0.00016254420795443
 131    3.2301364760426e-05
 132    -7.2558330068798e-06
 133    -5.821397243011e-05
 134    0.00013155621101322
 135    0.00020179633575955
 136    5.5555431703684e-05
 137    -1.0212598723423e-06
 138    -1.5696348147626e-05
 139    -0.052969156785038
 140    -2.4463795015431e-05
 141    -0.00078711069397204
 142    0.00036753691430591
 143     0.001605171742516
 144    0.00067968722922171
 145    -0.0010364477200975
 146    0.00055221943878351
 147    0.0014807261031891
 148    8.6192282238975e-06
 149    -0.00011142497139604
 150    -0.00012860244271903
 151    2.1610437285995e-05
 152    -3.426293105852e-05
 153    0.0018668388139633
 154    0.00015365816273907
 155    -3.5753726496031e-05
 156    -0.00014321206959255
 157    -0.00014356100791439
 158    0.0015052941794034
 159    7.6553784692356e-05
 160    0.00012484102262995
 161    0.00012280398936074
 162    -6.3358500072953e-05
 163     -0.24690135914708
 164    -0.0016555093119245
 165    0.0045876751144138
 166    0.00046148644757925
 167    -0.00011777992133957
 168    0.00043543517569128
 169    -0.00058611366770606
 170    0.00020572589764148
 171    0.0010650444142354
 172    -2.5030751415398e-05
 173    0.00016946355916533
 174    -0.00011846668639688
 175    1.7042260336094e-05
 176    -9.3088163350625e-05
 177    0.00026409894124798
 178    2.5089506618049e-05
 179    2.4489293878422e-05
 180    1.2793657517556e-05
 181    -2.115908010801e-05
 182     -0.55703510883588
 183    -0.0023259239334671
 184    0.0059718165917583
 185    -0.00064243938086281
 186    0.00010221962973956
 187    0.00054570279220751
 188    -0.00085912542462884
 189    -0.00044637241410594
 190    0.0008841585903004
 191    4.0761575894501e-05
 192    -0.00026069682444523
 193    -7.7211578464302e-05
 194    5.7130766159663e-05
 195    -4.6996196529531e-05
 196    -0.0014895911297911
 197    -0.00074477026773608
 198    7.6379086048268e-06
 199    -9.3611495740412e-05
 200    -4.9869765863394e-05
 201    -0.00053379591735702
 202    -0.00029365689122444
 203    1.7363073263634e-05
 204    7.3960027442343e-05
 205    6.2391131073064e-05
 206    -0.00024791813102324
 207    -0.00017458412123643
 208    -7.2324090438876e-05
 209    -8.0860214079348e-05
 210    4.5633142888473e-05
 211      0.58886301030439
 212    0.0030328506311469
 213    -0.0079937855270904
 214    -0.00062385231692668
 215    0.00034437077752435
 216    -7.5482983509014e-05
 217    -0.00094658699047668
 218    0.00031722360629773
 219    0.00087391734246521
 220    2.2011562381075e-05
 221    6.0625414334302e-05
 222    -1.942846213375e-05
 223    -7.8818507183667e-05
 224    0.00013139489499164
 225    0.00023726577013472
 226    -0.00081864157458871
 227    -0.00014904996292048
 228    -0.00017440468882558
 229    -0.00016111791900505
 230    0.00034931287916207
 231    -0.00064868598230839
 232    0.00016589855707378
 233    -3.4980304363516e-05
 234    0.00021394489299885
 235     -0.52981933585106
 236     -0.00263464430924
 237    0.0036219605909529
 238    0.00016816573589863
 239    -0.00026175325077517
 240    -0.00020759858909779
 241    3.0078125818701e-05
 242    -0.00035251170457083
 243    -6.998055143308e-06
 244    -4.6102618031749e-05
 245    -0.00011921589187976
 246    0.0001089869613273
 247    6.0023182959032e-05
 248    -0.00015652018194383
 249    -2.1208174290338e-05
 250    0.00060638369532039
 251    9.5197278360656e-05
 252    0.0001949189183968
 253    0.00018417507747981
 254    4.4398348295216e-05
 255    0.00064294882148456
 256    -0.0001489260486022
 257    -0.00022494226112637
 258    8.6529414701986e-05
 259     0.002112578105796
 260    0.00020024919778257
 261    0.0017239556494972
 262    0.00052501986792041
 263    -0.00039776936872728