[Molden Format]
made by pyscf v[2.0.1]
[Atoms] (AU)
O   1   8     0.00000000000000     0.00000000000000     9.42996968581551
H   2   1     0.00000000000000     0.00000000000000     7.60656786391454
H   3   1    -0.05031916615174     1.78353065140343     9.80584138228218
O   4   8     0.00000000000000     0.00000000000000     2.31533471513237
C   5   6     0.00000000000000     0.00000000000000     0.00000000000000
C   6   6     2.01118073026938    -1.40227222164369    -1.50774939176400
C   7   6    -2.01249334291722     1.41331050329955    -1.50315905028694
H   8   1     3.32037363730244    -2.26721897153159    -0.13599698591495
C   9   6     3.45899267434009     0.28739631745591    -3.37437943254505
H   10   1     1.07662969841332    -2.94725144642667    -2.56541439481080
H   11   1    -2.67503415753480     0.18421555839588    -3.06194479365997
H   12   1    -1.07974048864772     3.03851734677796    -2.43674295017013
C   13   6    -4.21607110578555     2.32938802552922     0.11994162256091
H   14   1     4.24440173074564     1.93368664142019    -2.34976285512790
H   15   1     2.15020713235517     1.04714335134846    -4.81494497423699
C   16   6     5.60746363007797    -1.12419643481196    -4.70268606082550
H   17   1    -3.46838323670267     3.50951302338067     1.66946842715333
H   18   1    -5.11873485366228     0.68575958301209     1.04047743976495
C   19   6    -6.18314754751344     3.80909592987882    -1.39656589068747
H   20   1     6.93011263717176    -1.87550812453645    -3.26656317360070
C   21   6     7.06356622236532     0.52877932406334    -6.57829775293605
H   22   1     4.82318879258361    -2.78573437948532    -5.70504560381835
H   23   1    -6.91582688743803     2.61304780074712    -2.95074552451969
H   24   1    -5.26532430573853     5.45420349051338    -2.31005832200284
C   25   6    -8.39941882261433     4.73263980500213     0.21800571437956
H   26   1     7.83338371486801     2.19084139882824    -5.57093109900697
H   27   1     5.73544244039420     1.27376866537418    -8.01071492370229
C   28   6     9.21124858443101    -0.89699110072176    -7.88926949186242
H   29   1    -7.66272760055236     5.92277078003992     1.77035591474408
H   30   1    -9.31497248082589     3.08753015622020     1.12614408368786
C   31   6   -10.35481709231879     6.21833079391143    -1.30905206253246
H   32   1    10.58815905329501    -1.61074586756696    -6.49512691622620
H   33   1    10.23506248045667     0.32468009384095    -9.23072870921204
H   34   1     8.47665842847139    -2.53598436989925    -8.94921964622535
H   35   1    -9.48948872868064     7.90013588951020    -2.18823918416067
H   36   1   -11.93332513000955     6.86460487874102    -0.11255798845995
H   37   1   -11.15126291841033     5.04495968327630    -2.83849898862534
[GTO]
1 0
 s    8 1.00
                 11720  0.00070964594651845
                  1759  0.0054672722921914
                 400.8   0.027823118610189
                 113.7    0.10474773971146
                 37.03    0.28292084635691
                 13.27    0.44849523869833
                 5.025    0.27081688521277
                 1.013    0.01545029160744
 s    8 1.00
                 11720  -0.00031444341168873
                  1759  -0.0024821376810179
                 400.8  -0.012316355381583
                 113.7  -0.050538917343672
                 37.03   -0.13938490331632
                 13.27   -0.32507749481778
                 5.025   -0.22984830758785
                 1.013     1.0953793467883
 s    1 1.00
                0.3023                   1
 p    3 1.00
                  17.7   0.062679166281506
                 3.854    0.33353656587936
                 1.046    0.74123964163973
 p    1 1.00
                0.2753                   1
 d    1 1.00
                 1.185                   1

2 0
 s    3 1.00
                 13.01   0.033498726389998
                 1.962    0.23480080117413
                0.4446     0.8136829578829
 s    1 1.00
                 0.122                   1
 p    1 1.00
                 0.727                   1

3 0
 s    3 1.00
                 13.01   0.033498726389998
                 1.962    0.23480080117413
                0.4446     0.8136829578829
 s    1 1.00
                 0.122                   1
 p    1 1.00
                 0.727                   1

4 0
 s    8 1.00
                 11720  0.00070964594651845
                  1759  0.0054672722921914
                 400.8   0.027823118610189
                 113.7    0.10474773971146
                 37.03    0.28292084635691
                 13.27    0.44849523869833
                 5.025    0.27081688521277
                 1.013    0.01545029160744
 s    8 1.00
                 11720  -0.00031444341168873
                  1759  -0.0024821376810179
                 400.8  -0.012316355381583
                 113.7  -0.050538917343672
                 37.03   -0.13938490331632
                 13.27   -0.32507749481778
                 5.025   -0.22984830758785
                 1.013     1.0953793467883
 s    1 1.00
                0.3023                   1
 p    3 1.00
                  17.7   0.062679166281506
                 3.854    0.33353656587936
                 1.046    0.74123964163973
 p    1 1.00
                0.2753                   1
 d    1 1.00
                 1.185                   1

5 0
 s    8 1.00
                  6665  0.00069158396281299
                  1000  0.0053257961529341
                   228   0.027060721042034
                 64.71    0.10165684614077
                 21.06     0.2745748236174
                 7.495    0.44829431892377
                 2.797    0.28490261071525
                0.5215   0.015194859206082
 s    8 1.00
                  6665  -0.00029326965268655
                  1000  -0.0023180354739745
                   228  -0.011499786038565
                 64.71  -0.046826727009787
                 21.06   -0.12846616875047
                 7.495   -0.30126627246289
                 2.797   -0.25563070233011
                0.5215      1.093793361012
 s    1 1.00
                0.1596                   1
 p    3 1.00
                 9.439   0.056979251590039
                 2.002    0.31320721150073
                0.5456    0.76037674173753
 p    1 1.00
                0.1517                   1
 d    1 1.00
                  0.55                   1

6 0
 s    8 1.00
                  6665  0.00069158396281299
                  1000  0.0053257961529341
                   228   0.027060721042034
                 64.71    0.10165684614077
                 21.06     0.2745748236174
                 7.495    0.44829431892377
                 2.797    0.28490261071525
                0.5215   0.015194859206082
 s    8 1.00
                  6665  -0.00029326965268655
                  1000  -0.0023180354739745
                   228  -0.011499786038565
                 64.71  -0.046826727009787
                 21.06   -0.12846616875047
                 7.495   -0.30126627246289
                 2.797   -0.25563070233011
                0.5215      1.093793361012
 s    1 1.00
                0.1596                   1
 p    3 1.00
                 9.439   0.056979251590039
                 2.002    0.31320721150073
                0.5456    0.76037674173753
 p    1 1.00
                0.1517                   1
 d    1 1.00
                  0.55                   1

7 0
 s    8 1.00
                  6665  0.00069158396281299
                  1000  0.0053257961529341
                   228   0.027060721042034
                 64.71    0.10165684614077
                 21.06     0.2745748236174
                 7.495    0.44829431892377
                 2.797    0.28490261071525
                0.5215   0.015194859206082
 s    8 1.00
                  6665  -0.00029326965268655
                  1000  -0.0023180354739745
                   228  -0.011499786038565
                 64.71  -0.046826727009787
                 21.06   -0.12846616875047
                 7.495   -0.30126627246289
                 2.797   -0.25563070233011
                0.5215      1.093793361012
 s    1 1.00
                0.1596                   1
 p    3 1.00
                 9.439   0.056979251590039
                 2.002    0.31320721150073
                0.5456    0.76037674173753
 p    1 1.00
                0.1517                   1
 d    1 1.00
                  0.55                   1

8 0
 s    3 1.00
                 13.01   0.033498726389998
                 1.962    0.23480080117413
                0.4446     0.8136829578829
 s    1 1.00
                 0.122                   1
 p    1 1.00
                 0.727                   1

9 0
 s    8 1.00
                  6665  0.00069158396281299
                  1000  0.0053257961529341
                   228   0.027060721042034
                 64.71    0.10165684614077
                 21.06     0.2745748236174
                 7.495    0.44829431892377
                 2.797    0.28490261071525
                0.5215   0.015194859206082
 s    8 1.00
                  6665  -0.00029326965268655
                  1000  -0.0023180354739745
                   228  -0.011499786038565
                 64.71  -0.046826727009787
                 21.06   -0.12846616875047
                 7.495   -0.30126627246289
                 2.797   -0.25563070233011
                0.5215      1.093793361012
 s    1 1.00
                0.1596                   1
 p    3 1.00
                 9.439   0.056979251590039
                 2.002    0.31320721150073
                0.5456    0.76037674173753
 p    1 1.00
                0.1517                   1
 d    1 1.00
                  0.55                   1

10 0
 s    3 1.00
                 13.01   0.033498726389998
                 1.962    0.23480080117413
                0.4446     0.8136829578829
 s    1 1.00
                 0.122                   1
 p    1 1.00
                 0.727                   1

11 0
 s    3 1.00
                 13.01   0.033498726389998
                 1.962    0.23480080117413
                0.4446     0.8136829578829
 s    1 1.00
                 0.122                   1
 p    1 1.00
                 0.727                   1

12 0
 s    3 1.00
                 13.01   0.033498726389998
                 1.962    0.23480080117413
                0.4446     0.8136829578829
 s    1 1.00
                 0.122                   1
 p    1 1.00
                 0.727                   1

13 0
 s    8 1.00
                  6665  0.00069158396281299
                  1000  0.0053257961529341
                   228   0.027060721042034
                 64.71    0.10165684614077
                 21.06     0.2745748236174
                 7.495    0.44829431892377
                 2.797    0.28490261071525
                0.5215   0.015194859206082
 s    8 1.00
                  6665  -0.00029326965268655
                  1000  -0.0023180354739745
                   228  -0.011499786038565
                 64.71  -0.046826727009787
                 21.06   -0.12846616875047
                 7.495   -0.30126627246289
                 2.797   -0.25563070233011
                0.5215      1.093793361012
 s    1 1.00
                0.1596                   1
 p    3 1.00
                 9.439   0.056979251590039
                 2.002    0.31320721150073
                0.5456    0.76037674173753
 p    1 1.00
                0.1517                   1
 d    1 1.00
                  0.55                   1

14 0
 s    3 1.00
                 13.01   0.033498726389998
                 1.962    0.23480080117413
                0.4446     0.8136829578829
 s    1 1.00
                 0.122                   1
 p    1 1.00
                 0.727                   1

15 0
 s    3 1.00
                 13.01   0.033498726389998
                 1.962    0.23480080117413
                0.4446     0.8136829578829
 s    1 1.00
                 0.122                   1
 p    1 1.00
                 0.727                   1

16 0
 s    8 1.00
                  6665  0.00069158396281299
                  1000  0.0053257961529341
                   228   0.027060721042034
                 64.71    0.10165684614077
                 21.06     0.2745748236174
                 7.495    0.44829431892377
                 2.797    0.28490261071525
                0.5215   0.015194859206082
 s    8 1.00
                  6665  -0.00029326965268655
                  1000  -0.0023180354739745
                   228  -0.011499786038565
                 64.71  -0.046826727009787
                 21.06   -0.12846616875047
                 7.495   -0.30126627246289
                 2.797   -0.25563070233011
                0.5215      1.093793361012
 s    1 1.00
                0.1596                   1
 p    3 1.00
                 9.439   0.056979251590039
                 2.002    0.31320721150073
                0.5456    0.76037674173753
 p    1 1.00
                0.1517                   1
 d    1 1.00
                  0.55                   1

17 0
 s    3 1.00
                 13.01   0.033498726389998
                 1.962    0.23480080117413
                0.4446     0.8136829578829
 s    1 1.00
                 0.122                   1
 p    1 1.00
                 0.727                   1

18 0
 s    3 1.00
                 13.01   0.033498726389998
                 1.962    0.23480080117413
                0.4446     0.8136829578829
 s    1 1.00
                 0.122                   1
 p    1 1.00
                 0.727                   1

19 0
 s    8 1.00
                  6665  0.00069158396281299
                  1000  0.0053257961529341
                   228   0.027060721042034
                 64.71    0.10165684614077
                 21.06     0.2745748236174
                 7.495    0.44829431892377
                 2.797    0.28490261071525
                0.5215   0.015194859206082
 s    8 1.00
                  6665  -0.00029326965268655
                  1000  -0.0023180354739745
                   228  -0.011499786038565
                 64.71  -0.046826727009787
                 21.06   -0.12846616875047
                 7.495   -0.30126627246289
                 2.797   -0.25563070233011
                0.5215      1.093793361012
 s    1 1.00
                0.1596                   1
 p    3 1.00
                 9.439   0.056979251590039
                 2.002    0.31320721150073
                0.5456    0.76037674173753
 p    1 1.00
                0.1517                   1
 d    1 1.00
                  0.55                   1

20 0
 s    3 1.00
                 13.01   0.033498726389998
                 1.962    0.23480080117413
                0.4446     0.8136829578829
 s    1 1.00
                 0.122                   1
 p    1 1.00
                 0.727                   1

21 0
 s    8 1.00
                  6665  0.00069158396281299
                  1000  0.0053257961529341
                   228   0.027060721042034
                 64.71    0.10165684614077
                 21.06     0.2745748236174
                 7.495    0.44829431892377
                 2.797    0.28490261071525
                0.5215   0.015194859206082
 s    8 1.00
                  6665  -0.00029326965268655
                  1000  -0.0023180354739745
                   228  -0.011499786038565
                 64.71  -0.046826727009787
                 21.06   -0.12846616875047
                 7.495   -0.30126627246289
                 2.797   -0.25563070233011
                0.5215      1.093793361012
 s    1 1.00
                0.1596                   1
 p    3 1.00
                 9.439   0.056979251590039
                 2.002    0.31320721150073
                0.5456    0.76037674173753
 p    1 1.00
                0.1517                   1
 d    1 1.00
                  0.55                   1

22 0
 s    3 1.00
                 13.01   0.033498726389998
                 1.962    0.23480080117413
                0.4446     0.8136829578829
 s    1 1.00
                 0.122                   1
 p    1 1.00
                 0.727                   1

23 0
 s    3 1.00
                 13.01   0.033498726389998
                 1.962    0.23480080117413
                0.4446     0.8136829578829
 s    1 1.00
                 0.122                   1
 p    1 1.00
                 0.727                   1

24 0
 s    3 1.00
                 13.01   0.033498726389998
                 1.962    0.23480080117413
                0.4446     0.8136829578829
 s    1 1.00
                 0.122                   1
 p    1 1.00
                 0.727                   1

25 0
 s    8 1.00
                  6665  0.00069158396281299
                  1000  0.0053257961529341
                   228   0.027060721042034
                 64.71    0.10165684614077
                 21.06     0.2745748236174
                 7.495    0.44829431892377
                 2.797    0.28490261071525
                0.5215   0.015194859206082
 s    8 1.00
                  6665  -0.00029326965268655
                  1000  -0.0023180354739745
                   228  -0.011499786038565
                 64.71  -0.046826727009787
                 21.06   -0.12846616875047
                 7.495   -0.30126627246289
                 2.797   -0.25563070233011
                0.5215      1.093793361012
 s    1 1.00
                0.1596                   1
 p    3 1.00
                 9.439   0.056979251590039
                 2.002    0.31320721150073
                0.5456    0.76037674173753
 p    1 1.00
                0.1517                   1
 d    1 1.00
                  0.55                   1

26 0
 s    3 1.00
                 13.01   0.033498726389998
                 1.962    0.23480080117413
                0.4446     0.8136829578829
 s    1 1.00
                 0.122                   1
 p    1 1.00
                 0.727                   1

27 0
 s    3 1.00
                 13.01   0.033498726389998
                 1.962    0.23480080117413
                0.4446     0.8136829578829
 s    1 1.00
                 0.122                   1
 p    1 1.00
                 0.727                   1

28 0
 s    8 1.00
                  6665  0.00069158396281299
                  1000  0.0053257961529341
                   228   0.027060721042034
                 64.71    0.10165684614077
                 21.06     0.2745748236174
                 7.495    0.44829431892377
                 2.797    0.28490261071525
                0.5215   0.015194859206082
 s    8 1.00
                  6665  -0.00029326965268655
                  1000  -0.0023180354739745
                   228  -0.011499786038565
                 64.71  -0.046826727009787
                 21.06   -0.12846616875047
                 7.495   -0.30126627246289
                 2.797   -0.25563070233011
                0.5215      1.093793361012
 s    1 1.00
                0.1596                   1
 p    3 1.00
                 9.439   0.056979251590039
                 2.002    0.31320721150073
                0.5456    0.76037674173753
 p    1 1.00
                0.1517                   1
 d    1 1.00
                  0.55                   1

29 0
 s    3 1.00
                 13.01   0.033498726389998
                 1.962    0.23480080117413
                0.4446     0.8136829578829
 s    1 1.00
                 0.122                   1
 p    1 1.00
                 0.727                   1

30 0
 s    3 1.00
                 13.01   0.033498726389998
                 1.962    0.23480080117413
                0.4446     0.8136829578829
 s    1 1.00
                 0.122                   1
 p    1 1.00
                 0.727                   1

31 0
 s    8 1.00
                  6665  0.00069158396281299
                  1000  0.0053257961529341
                   228   0.027060721042034
                 64.71    0.10165684614077
                 21.06     0.2745748236174
                 7.495    0.44829431892377
                 2.797    0.28490261071525
                0.5215   0.015194859206082
 s    8 1.00
                  6665  -0.00029326965268655
                  1000  -0.0023180354739745
                   228  -0.011499786038565
                 64.71  -0.046826727009787
                 21.06   -0.12846616875047
                 7.495   -0.30126627246289
                 2.797   -0.25563070233011
                0.5215      1.093793361012
 s    1 1.00
                0.1596                   1
 p    3 1.00
                 9.439   0.056979251590039
                 2.002    0.31320721150073
                0.5456    0.76037674173753
 p    1 1.00
                0.1517                   1
 d    1 1.00
                  0.55                   1

32 0
 s    3 1.00
                 13.01   0.033498726389998
                 1.962    0.23480080117413
                0.4446     0.8136829578829
 s    1 1.00
                 0.122                   1
 p    1 1.00
                 0.727                   1

33 0
 s    3 1.00
                 13.01   0.033498726389998
                 1.962    0.23480080117413
                0.4446     0.8136829578829
 s    1 1.00
                 0.122                   1
 p    1 1.00
                 0.727                   1

34 0
 s    3 1.00
                 13.01   0.033498726389998
                 1.962    0.23480080117413
                0.4446     0.8136829578829
 s    1 1.00
                 0.122                   1
 p    1 1.00
                 0.727                   1

35 0
 s    3 1.00
                 13.01   0.033498726389998
                 1.962    0.23480080117413
                0.4446     0.8136829578829
 s    1 1.00
                 0.122                   1
 p    1 1.00
                 0.727                   1

36 0
 s    3 1.00
                 13.01   0.033498726389998
                 1.962    0.23480080117413
                0.4446     0.8136829578829
 s    1 1.00
                 0.122                   1
 p    1 1.00
                 0.727                   1

37 0
 s    3 1.00
                 13.01   0.033498726389998
                 1.962    0.23480080117413
                0.4446     0.8136829578829
 s    1 1.00
                 0.122                   1
 p    1 1.00
                 0.727                   1

[5d]
[7f]
[9g]

[MO]
 Sym= A
 Ene=               0
 Spin= Alpha
 Occup=    1.00000
   1    -4.4956739864657e-07
   2    -4.1949196541292e-07
   3    -7.7930783028494e-06
   4    -3.8117909499771e-08
   5    1.5353042102528e-07
   6    1.7128998621665e-06
   7    -1.0608326970745e-07
   8    1.0160266006089e-06
   9      4.2932358066e-06
  10    -7.8530630494489e-08
  11    -2.4094526302636e-08
  12    7.1051334313578e-08
  13    9.1142898582873e-09
  14    -2.3260219451519e-09
  15    1.1196966386842e-07
  16    1.2083304500432e-05
  17    -1.5422351377958e-07
  18    3.0268303909585e-07
  19    -6.9724156908643e-07
  20    7.7878285409065e-08
  21    -1.9094869401833e-06
  22    8.4413289231158e-09
  23    -5.5317324765867e-08
  24    1.089275589182e-08
  25    1.9394340586027e-05
  26    3.6593238025024e-06
  27    -3.1028947683322e-05
  28    4.0129252417281e-05
  29    0.00013946834485516
  30    0.00013557135816698
  31    6.7731280646926e-05
  32    0.00010169110504805
  33    5.719118719356e-05
  34    -2.4034859861262e-06
  35    -1.3632523543031e-05
  36    3.9201195164848e-06
  37    -6.2132157745315e-08
  38     8.49794687311e-07
  39    4.3440947761472e-06
  40    0.00040726064836827
  41    -0.00075851798232499
  42    0.00039737012368775
  43    -0.00024956284244295
  44    -0.00029032448491231
  45    -0.00047238960824867
  46    0.00033108592321598
  47    0.00030702398087727
  48    -2.2358288655961e-05
  49    2.1891262510772e-05
  50    3.2584066121584e-05
  51    -2.149738578034e-05
  52    7.479704683576e-06
  53    0.00063016547158553
  54    0.00046358838688555
  55    0.0010967969662602
  56    -0.00022139434021726
  57    -0.0002691234490047
  58    0.00026701164979842
  59    -0.0008012022232366
  60    0.00052712942119047
  61    0.00050065532453353
  62    2.6940470251804e-05
  63    -3.0812786985606e-05
  64    0.00010093342591384
  65    9.7244652808887e-05
  66    -3.3143390833964e-05
  67    -7.0197322291574e-05
  68    -0.00014281715612767
  69    0.00019324586202649
  70    -6.7940137464435e-05
  71    4.5962592695778e-05
  72    4.0339472954245e-05
  73    -0.00040697151813101
  74    0.00017359472425505
  75    6.4873844037057e-05
  76    -2.2993757558539e-05
  77    -2.2915556588461e-05
  78    1.8991592610368e-05
  79    1.361829400802e-05
  80    -1.7271213568187e-05
  81    0.00022796825471841
  82    0.00011535744827412
  83    6.2591706399704e-06
  84    -1.5358034965772e-05
  85    -7.4386408792126e-05
  86    -0.0023511464350844
  87    -0.0015813463022821
  88    -0.0042667249643351
  89    0.0012578193511956
  90    -0.0023050329758187
  91    -0.00027074125931869
  92    -0.00041839446928306
  93    -0.00043310065836206
  94    0.0005393945630255
  95    -7.3448222686421e-05
  96    -0.00021886100188615
  97    8.6383827416393e-05
  98    5.0234438498641e-05
  99    -0.00019166603003979
 100    0.00025031564804647
 101    0.00015614589619977
 102    8.3392180943355e-05
 103    3.0479572537897e-06
 104    -3.2555825416138e-06
 105    -0.00011722856225838
 106    -5.8859095085946e-05
 107    1.1119253567176e-05
 108    -9.3228462393749e-06
 109    -8.7100457501519e-06
 110    -0.00010486916806846
 111    -8.6623348310959e-05
 112    -2.9524156062395e-07
 113    1.2832752652792e-05
 114    2.7046286490342e-06
 115     0.018864831983898
 116    0.00018452679274882
 117    -0.00056628803146894
 118    1.123013848061e-05
 119    -4.5374563511301e-05
 120    7.1817921229327e-07
 121    -0.00025953269956236
 122    0.00016945208809693
 123    0.00010433508715849
 124    1.6606906886123e-06
 125    2.2117820462632e-05
 126    -1.2844761791797e-05
 127    -1.5687420310425e-05
 128    2.3016693339768e-05
 129    -0.0021110863681493
 130    -0.00075398563318721
 131    9.9886577011487e-05
 132    0.00017434897991844
 133    0.00013815483601823
 134    -0.0020895757479025
 135    -0.00069722004303931
 136    -0.00016211610448957
 137    6.2916225801738e-05
 138    -0.00016048449564971
 139     -0.95358299797404
 140    -0.0042916863041509
 141     0.011245868924965
 142    -0.00085970940050354
 143    0.00067185579751895
 144    0.00051195867843902
 145    -0.0013268231819309
 146    0.0011883410063616
 147    0.00068373423567755
 148    5.4014592760446e-06
 149    -0.0003726789442637
 150    -9.2654643903081e-05
 151    9.2292990010445e-05
 152    -8.5769987712741e-06
 153    8.8801174457889e-06
 154    1.6006146963433e-05
 155    1.3951702038817e-05
 156    -4.4395321818801e-06
 157    6.6185061064187e-06
 158    7.3726609068474e-05
 159    5.3670902256584e-05
 160    7.0504236957138e-06
 161    -1.2665989352819e-05
 162    -4.2503738757636e-07
 163    -0.00087167835730741
 164    9.1089281823895e-07
 165    -5.9407201806639e-06
 166    -2.9193492123208e-07
 167    5.4746154843797e-06
 168    -1.2393389972579e-05
 169    -8.4807297794821e-05
 170    3.0351065097334e-06
 171    2.3511222277418e-05
 172    -1.7085013939731e-06
 173    -9.6533902269631e-06
 174    4.2552463646054e-06
 175    -1.1687176617406e-06
 176    -4.6255459816266e-08
 177    -0.00024800969020845
 178    -0.0014595164656953
 179    -0.00029229665071364
 180    9.1711609807133e-05
 181    -0.000289203280371
 182     -0.30866546398917
 183    -0.0014442455380712
 184    0.0011392601723826
 185    8.161578391453e-05
 186    0.00013957633600296
 187    -0.0001210591277511
 188    0.00073467242032603
 189    0.00031779336987946
 190    -0.00074163683059815
 191    1.7210474511219e-05
 192    -0.00019096257554423
 193    -0.00012264108357283
 194    1.0943976129735e-05
 195    6.8688024076002e-05
 196    -0.00024726089060877
 197    -0.0014690514485655
 198    0.00017494950676318
 199    0.00030076178101784
 200    0.00025648448015799
 201    1.6318749809999e-06
 202    -1.0079651889964e-05
 203    5.829033949041e-06
 204    -9.1362626423945e-08
 205    3.1219793577721e-07
 206    1.2861310388517e-05
 207    4.5967176981245e-05
 208    3.5229043246315e-06
 209    -6.9810380010312e-06
 210    1.9078480101782e-06
 211    0.00030089637387049
 212    1.5373781805929e-05
 213    -4.4235772901459e-05
 214    2.742824575129e-06
 215    9.2578994774383e-07
 216    2.6957880283638e-06
 217    -0.00010741140014779
 218    7.728680841725e-05
 219    -1.616508462922e-05
 220    2.5360460260977e-06
 221    5.4644930941821e-06
 222    -4.3624914506835e-06
 223    -2.6243360873566e-06
 224    3.923349002308e-06
 225    0.00010152720936615
 226    -0.00052764539340644
 227    -1.6872605923348e-05
 228    -4.1380965894757e-05
 229    -0.00013536583566667
 230    0.00010781256273958
 231    -0.00053037248124654
 232    0.00013515471841206
 233    2.4093979149146e-05
 234    3.9474544557998e-05
 235    -0.0047557769865515
 236    0.00017810948546614
 237    -0.00088586956007834
 238    -5.2509976368362e-05
 239    -4.3362919342526e-05
 240    6.1547744966981e-05
 241    0.00020851574742479
 242    -9.2863017592312e-05
 243    -0.00015400105623812
 244    -2.1921406242958e-05
 245    2.4299971956073e-05
 246    0.00010472800696077
 247    3.6468733996279e-05
 248    -9.5686509022702e-05
 249    1.2306219219456e-05
 250    -1.1935886361213e-05
 251    3.2597327134838e-06
 252    -3.009502327835e-06
 253    2.4635690594874e-06
 254    8.0146578791028e-06
 255    -2.2299615602874e-07
 256    3.8397882640415e-06
 257    -2.3915337989064e-06
 258    2.8403168130243e-06
 259    -0.0003224341094787
 260    7.7599226875896e-06
 261    -8.3262183478875e-05
 262    -1.5673900925013e-06
 263    2.9485010861564e-07