[Molden Format]
made by pyscf v[2.0.1]
[Atoms] (AU)
O   1   8     0.00000000000000     0.00000000000000     7.91818878616346
H   2   1     0.00000000000000     0.00000000000000     6.09478696426249
H   3   1    -0.05031916615174     1.78353065140343     8.29406048263013
O   4   8     0.00000000000000     0.00000000000000     2.31533471513237
C   5   6     0.00000000000000     0.00000000000000     0.00000000000000
C   6   6     2.01118073026938    -1.40227222164369    -1.50774939176400
C   7   6    -2.01249334291722     1.41331050329955    -1.50315905028694
H   8   1     3.32037363730244    -2.26721897153159    -0.13599698591495
C   9   6     3.45899267434009     0.28739631745591    -3.37437943254505
H   10   1     1.07662969841332    -2.94725144642667    -2.56541439481080
H   11   1    -2.67503415753480     0.18421555839588    -3.06194479365997
H   12   1    -1.07974048864772     3.03851734677796    -2.43674295017013
C   13   6    -4.21607110578555     2.32938802552922     0.11994162256091
H   14   1     4.24440173074564     1.93368664142019    -2.34976285512790
H   15   1     2.15020713235517     1.04714335134846    -4.81494497423699
C   16   6     5.60746363007797    -1.12419643481196    -4.70268606082550
H   17   1    -3.46838323670267     3.50951302338067     1.66946842715333
H   18   1    -5.11873485366228     0.68575958301209     1.04047743976495
C   19   6    -6.18314754751344     3.80909592987882    -1.39656589068747
H   20   1     6.93011263717176    -1.87550812453645    -3.26656317360070
C   21   6     7.06356622236532     0.52877932406334    -6.57829775293605
H   22   1     4.82318879258361    -2.78573437948532    -5.70504560381835
H   23   1    -6.91582688743803     2.61304780074712    -2.95074552451969
H   24   1    -5.26532430573853     5.45420349051338    -2.31005832200284
C   25   6    -8.39941882261433     4.73263980500213     0.21800571437956
H   26   1     7.83338371486801     2.19084139882824    -5.57093109900697
H   27   1     5.73544244039420     1.27376866537418    -8.01071492370229
C   28   6     9.21124858443101    -0.89699110072176    -7.88926949186242
H   29   1    -7.66272760055236     5.92277078003992     1.77035591474408
H   30   1    -9.31497248082589     3.08753015622020     1.12614408368786
C   31   6   -10.35481709231879     6.21833079391143    -1.30905206253246
H   32   1    10.58815905329501    -1.61074586756696    -6.49512691622620
H   33   1    10.23506248045667     0.32468009384095    -9.23072870921204
H   34   1     8.47665842847139    -2.53598436989925    -8.94921964622535
H   35   1    -9.48948872868064     7.90013588951020    -2.18823918416067
H   36   1   -11.93332513000955     6.86460487874102    -0.11255798845995
H   37   1   -11.15126291841033     5.04495968327630    -2.83849898862534
[GTO]
1 0
 s    8 1.00
                 11720  0.00070964594651845
                  1759  0.0054672722921914
                 400.8   0.027823118610189
                 113.7    0.10474773971146
                 37.03    0.28292084635691
                 13.27    0.44849523869833
                 5.025    0.27081688521277
                 1.013    0.01545029160744
 s    8 1.00
                 11720  -0.00031444341168873
                  1759  -0.0024821376810179
                 400.8  -0.012316355381583
                 113.7  -0.050538917343672
                 37.03   -0.13938490331632
                 13.27   -0.32507749481778
                 5.025   -0.22984830758785
                 1.013     1.0953793467883
 s    1 1.00
                0.3023                   1
 p    3 1.00
                  17.7   0.062679166281506
                 3.854    0.33353656587936
                 1.046    0.74123964163973
 p    1 1.00
                0.2753                   1
 d    1 1.00
                 1.185                   1

2 0
 s    3 1.00
                 13.01   0.033498726389998
                 1.962    0.23480080117413
                0.4446     0.8136829578829
 s    1 1.00
                 0.122                   1
 p    1 1.00
                 0.727                   1

3 0
 s    3 1.00
                 13.01   0.033498726389998
                 1.962    0.23480080117413
                0.4446     0.8136829578829
 s    1 1.00
                 0.122                   1
 p    1 1.00
                 0.727                   1

4 0
 s    8 1.00
                 11720  0.00070964594651845
                  1759  0.0054672722921914
                 400.8   0.027823118610189
                 113.7    0.10474773971146
                 37.03    0.28292084635691
                 13.27    0.44849523869833
                 5.025    0.27081688521277
                 1.013    0.01545029160744
 s    8 1.00
                 11720  -0.00031444341168873
                  1759  -0.0024821376810179
                 400.8  -0.012316355381583
                 113.7  -0.050538917343672
                 37.03   -0.13938490331632
                 13.27   -0.32507749481778
                 5.025   -0.22984830758785
                 1.013     1.0953793467883
 s    1 1.00
                0.3023                   1
 p    3 1.00
                  17.7   0.062679166281506
                 3.854    0.33353656587936
                 1.046    0.74123964163973
 p    1 1.00
                0.2753                   1
 d    1 1.00
                 1.185                   1

5 0
 s    8 1.00
                  6665  0.00069158396281299
                  1000  0.0053257961529341
                   228   0.027060721042034
                 64.71    0.10165684614077
                 21.06     0.2745748236174
                 7.495    0.44829431892377
                 2.797    0.28490261071525
                0.5215   0.015194859206082
 s    8 1.00
                  6665  -0.00029326965268655
                  1000  -0.0023180354739745
                   228  -0.011499786038565
                 64.71  -0.046826727009787
                 21.06   -0.12846616875047
                 7.495   -0.30126627246289
                 2.797   -0.25563070233011
                0.5215      1.093793361012
 s    1 1.00
                0.1596                   1
 p    3 1.00
                 9.439   0.056979251590039
                 2.002    0.31320721150073
                0.5456    0.76037674173753
 p    1 1.00
                0.1517                   1
 d    1 1.00
                  0.55                   1

6 0
 s    8 1.00
                  6665  0.00069158396281299
                  1000  0.0053257961529341
                   228   0.027060721042034
                 64.71    0.10165684614077
                 21.06     0.2745748236174
                 7.495    0.44829431892377
                 2.797    0.28490261071525
                0.5215   0.015194859206082
 s    8 1.00
                  6665  -0.00029326965268655
                  1000  -0.0023180354739745
                   228  -0.011499786038565
                 64.71  -0.046826727009787
                 21.06   -0.12846616875047
                 7.495   -0.30126627246289
                 2.797   -0.25563070233011
                0.5215      1.093793361012
 s    1 1.00
                0.1596                   1
 p    3 1.00
                 9.439   0.056979251590039
                 2.002    0.31320721150073
                0.5456    0.76037674173753
 p    1 1.00
                0.1517                   1
 d    1 1.00
                  0.55                   1

7 0
 s    8 1.00
                  6665  0.00069158396281299
                  1000  0.0053257961529341
                   228   0.027060721042034
                 64.71    0.10165684614077
                 21.06     0.2745748236174
                 7.495    0.44829431892377
                 2.797    0.28490261071525
                0.5215   0.015194859206082
 s    8 1.00
                  6665  -0.00029326965268655
                  1000  -0.0023180354739745
                   228  -0.011499786038565
                 64.71  -0.046826727009787
                 21.06   -0.12846616875047
                 7.495   -0.30126627246289
                 2.797   -0.25563070233011
                0.5215      1.093793361012
 s    1 1.00
                0.1596                   1
 p    3 1.00
                 9.439   0.056979251590039
                 2.002    0.31320721150073
                0.5456    0.76037674173753
 p    1 1.00
                0.1517                   1
 d    1 1.00
                  0.55                   1

8 0
 s    3 1.00
                 13.01   0.033498726389998
                 1.962    0.23480080117413
                0.4446     0.8136829578829
 s    1 1.00
                 0.122                   1
 p    1 1.00
                 0.727                   1

9 0
 s    8 1.00
                  6665  0.00069158396281299
                  1000  0.0053257961529341
                   228   0.027060721042034
                 64.71    0.10165684614077
                 21.06     0.2745748236174
                 7.495    0.44829431892377
                 2.797    0.28490261071525
                0.5215   0.015194859206082
 s    8 1.00
                  6665  -0.00029326965268655
                  1000  -0.0023180354739745
                   228  -0.011499786038565
                 64.71  -0.046826727009787
                 21.06   -0.12846616875047
                 7.495   -0.30126627246289
                 2.797   -0.25563070233011
                0.5215      1.093793361012
 s    1 1.00
                0.1596                   1
 p    3 1.00
                 9.439   0.056979251590039
                 2.002    0.31320721150073
                0.5456    0.76037674173753
 p    1 1.00
                0.1517                   1
 d    1 1.00
                  0.55                   1

10 0
 s    3 1.00
                 13.01   0.033498726389998
                 1.962    0.23480080117413
                0.4446     0.8136829578829
 s    1 1.00
                 0.122                   1
 p    1 1.00
                 0.727                   1

11 0
 s    3 1.00
                 13.01   0.033498726389998
                 1.962    0.23480080117413
                0.4446     0.8136829578829
 s    1 1.00
                 0.122                   1
 p    1 1.00
                 0.727                   1

12 0
 s    3 1.00
                 13.01   0.033498726389998
                 1.962    0.23480080117413
                0.4446     0.8136829578829
 s    1 1.00
                 0.122                   1
 p    1 1.00
                 0.727                   1

13 0
 s    8 1.00
                  6665  0.00069158396281299
                  1000  0.0053257961529341
                   228   0.027060721042034
                 64.71    0.10165684614077
                 21.06     0.2745748236174
                 7.495    0.44829431892377
                 2.797    0.28490261071525
                0.5215   0.015194859206082
 s    8 1.00
                  6665  -0.00029326965268655
                  1000  -0.0023180354739745
                   228  -0.011499786038565
                 64.71  -0.046826727009787
                 21.06   -0.12846616875047
                 7.495   -0.30126627246289
                 2.797   -0.25563070233011
                0.5215      1.093793361012
 s    1 1.00
                0.1596                   1
 p    3 1.00
                 9.439   0.056979251590039
                 2.002    0.31320721150073
                0.5456    0.76037674173753
 p    1 1.00
                0.1517                   1
 d    1 1.00
                  0.55                   1

14 0
 s    3 1.00
                 13.01   0.033498726389998
                 1.962    0.23480080117413
                0.4446     0.8136829578829
 s    1 1.00
                 0.122                   1
 p    1 1.00
                 0.727                   1

15 0
 s    3 1.00
                 13.01   0.033498726389998
                 1.962    0.23480080117413
                0.4446     0.8136829578829
 s    1 1.00
                 0.122                   1
 p    1 1.00
                 0.727                   1

16 0
 s    8 1.00
                  6665  0.00069158396281299
                  1000  0.0053257961529341
                   228   0.027060721042034
                 64.71    0.10165684614077
                 21.06     0.2745748236174
                 7.495    0.44829431892377
                 2.797    0.28490261071525
                0.5215   0.015194859206082
 s    8 1.00
                  6665  -0.00029326965268655
                  1000  -0.0023180354739745
                   228  -0.011499786038565
                 64.71  -0.046826727009787
                 21.06   -0.12846616875047
                 7.495   -0.30126627246289
                 2.797   -0.25563070233011
                0.5215      1.093793361012
 s    1 1.00
                0.1596                   1
 p    3 1.00
                 9.439   0.056979251590039
                 2.002    0.31320721150073
                0.5456    0.76037674173753
 p    1 1.00
                0.1517                   1
 d    1 1.00
                  0.55                   1

17 0
 s    3 1.00
                 13.01   0.033498726389998
                 1.962    0.23480080117413
                0.4446     0.8136829578829
 s    1 1.00
                 0.122                   1
 p    1 1.00
                 0.727                   1

18 0
 s    3 1.00
                 13.01   0.033498726389998
                 1.962    0.23480080117413
                0.4446     0.8136829578829
 s    1 1.00
                 0.122                   1
 p    1 1.00
                 0.727                   1

19 0
 s    8 1.00
                  6665  0.00069158396281299
                  1000  0.0053257961529341
                   228   0.027060721042034
                 64.71    0.10165684614077
                 21.06     0.2745748236174
                 7.495    0.44829431892377
                 2.797    0.28490261071525
                0.5215   0.015194859206082
 s    8 1.00
                  6665  -0.00029326965268655
                  1000  -0.0023180354739745
                   228  -0.011499786038565
                 64.71  -0.046826727009787
                 21.06   -0.12846616875047
                 7.495   -0.30126627246289
                 2.797   -0.25563070233011
                0.5215      1.093793361012
 s    1 1.00
                0.1596                   1
 p    3 1.00
                 9.439   0.056979251590039
                 2.002    0.31320721150073
                0.5456    0.76037674173753
 p    1 1.00
                0.1517                   1
 d    1 1.00
                  0.55                   1

20 0
 s    3 1.00
                 13.01   0.033498726389998
                 1.962    0.23480080117413
                0.4446     0.8136829578829
 s    1 1.00
                 0.122                   1
 p    1 1.00
                 0.727                   1

21 0
 s    8 1.00
                  6665  0.00069158396281299
                  1000  0.0053257961529341
                   228   0.027060721042034
                 64.71    0.10165684614077
                 21.06     0.2745748236174
                 7.495    0.44829431892377
                 2.797    0.28490261071525
                0.5215   0.015194859206082
 s    8 1.00
                  6665  -0.00029326965268655
                  1000  -0.0023180354739745
                   228  -0.011499786038565
                 64.71  -0.046826727009787
                 21.06   -0.12846616875047
                 7.495   -0.30126627246289
                 2.797   -0.25563070233011
                0.5215      1.093793361012
 s    1 1.00
                0.1596                   1
 p    3 1.00
                 9.439   0.056979251590039
                 2.002    0.31320721150073
                0.5456    0.76037674173753
 p    1 1.00
                0.1517                   1
 d    1 1.00
                  0.55                   1

22 0
 s    3 1.00
                 13.01   0.033498726389998
                 1.962    0.23480080117413
                0.4446     0.8136829578829
 s    1 1.00
                 0.122                   1
 p    1 1.00
                 0.727                   1

23 0
 s    3 1.00
                 13.01   0.033498726389998
                 1.962    0.23480080117413
                0.4446     0.8136829578829
 s    1 1.00
                 0.122                   1
 p    1 1.00
                 0.727                   1

24 0
 s    3 1.00
                 13.01   0.033498726389998
                 1.962    0.23480080117413
                0.4446     0.8136829578829
 s    1 1.00
                 0.122                   1
 p    1 1.00
                 0.727                   1

25 0
 s    8 1.00
                  6665  0.00069158396281299
                  1000  0.0053257961529341
                   228   0.027060721042034
                 64.71    0.10165684614077
                 21.06     0.2745748236174
                 7.495    0.44829431892377
                 2.797    0.28490261071525
                0.5215   0.015194859206082
 s    8 1.00
                  6665  -0.00029326965268655
                  1000  -0.0023180354739745
                   228  -0.011499786038565
                 64.71  -0.046826727009787
                 21.06   -0.12846616875047
                 7.495   -0.30126627246289
                 2.797   -0.25563070233011
                0.5215      1.093793361012
 s    1 1.00
                0.1596                   1
 p    3 1.00
                 9.439   0.056979251590039
                 2.002    0.31320721150073
                0.5456    0.76037674173753
 p    1 1.00
                0.1517                   1
 d    1 1.00
                  0.55                   1

26 0
 s    3 1.00
                 13.01   0.033498726389998
                 1.962    0.23480080117413
                0.4446     0.8136829578829
 s    1 1.00
                 0.122                   1
 p    1 1.00
                 0.727                   1

27 0
 s    3 1.00
                 13.01   0.033498726389998
                 1.962    0.23480080117413
                0.4446     0.8136829578829
 s    1 1.00
                 0.122                   1
 p    1 1.00
                 0.727                   1

28 0
 s    8 1.00
                  6665  0.00069158396281299
                  1000  0.0053257961529341
                   228   0.027060721042034
                 64.71    0.10165684614077
                 21.06     0.2745748236174
                 7.495    0.44829431892377
                 2.797    0.28490261071525
                0.5215   0.015194859206082
 s    8 1.00
                  6665  -0.00029326965268655
                  1000  -0.0023180354739745
                   228  -0.011499786038565
                 64.71  -0.046826727009787
                 21.06   -0.12846616875047
                 7.495   -0.30126627246289
                 2.797   -0.25563070233011
                0.5215      1.093793361012
 s    1 1.00
                0.1596                   1
 p    3 1.00
                 9.439   0.056979251590039
                 2.002    0.31320721150073
                0.5456    0.76037674173753
 p    1 1.00
                0.1517                   1
 d    1 1.00
                  0.55                   1

29 0
 s    3 1.00
                 13.01   0.033498726389998
                 1.962    0.23480080117413
                0.4446     0.8136829578829
 s    1 1.00
                 0.122                   1
 p    1 1.00
                 0.727                   1

30 0
 s    3 1.00
                 13.01   0.033498726389998
                 1.962    0.23480080117413
                0.4446     0.8136829578829
 s    1 1.00
                 0.122                   1
 p    1 1.00
                 0.727                   1

31 0
 s    8 1.00
                  6665  0.00069158396281299
                  1000  0.0053257961529341
                   228   0.027060721042034
                 64.71    0.10165684614077
                 21.06     0.2745748236174
                 7.495    0.44829431892377
                 2.797    0.28490261071525
                0.5215   0.015194859206082
 s    8 1.00
                  6665  -0.00029326965268655
                  1000  -0.0023180354739745
                   228  -0.011499786038565
                 64.71  -0.046826727009787
                 21.06   -0.12846616875047
                 7.495   -0.30126627246289
                 2.797   -0.25563070233011
                0.5215      1.093793361012
 s    1 1.00
                0.1596                   1
 p    3 1.00
                 9.439   0.056979251590039
                 2.002    0.31320721150073
                0.5456    0.76037674173753
 p    1 1.00
                0.1517                   1
 d    1 1.00
                  0.55                   1

32 0
 s    3 1.00
                 13.01   0.033498726389998
                 1.962    0.23480080117413
                0.4446     0.8136829578829
 s    1 1.00
                 0.122                   1
 p    1 1.00
                 0.727                   1

33 0
 s    3 1.00
                 13.01   0.033498726389998
                 1.962    0.23480080117413
                0.4446     0.8136829578829
 s    1 1.00
                 0.122                   1
 p    1 1.00
                 0.727                   1

34 0
 s    3 1.00
                 13.01   0.033498726389998
                 1.962    0.23480080117413
                0.4446     0.8136829578829
 s    1 1.00
                 0.122                   1
 p    1 1.00
                 0.727                   1

35 0
 s    3 1.00
                 13.01   0.033498726389998
                 1.962    0.23480080117413
                0.4446     0.8136829578829
 s    1 1.00
                 0.122                   1
 p    1 1.00
                 0.727                   1

36 0
 s    3 1.00
                 13.01   0.033498726389998
                 1.962    0.23480080117413
                0.4446     0.8136829578829
 s    1 1.00
                 0.122                   1
 p    1 1.00
                 0.727                   1

37 0
 s    3 1.00
                 13.01   0.033498726389998
                 1.962    0.23480080117413
                0.4446     0.8136829578829
 s    1 1.00
                 0.122                   1
 p    1 1.00
                 0.727                   1

[5d]
[7f]
[9g]

[MO]
 Sym= A
 Ene=               0
 Spin= Alpha
 Occup=    1.00000
   1    5.2803488836319e-06
   2    1.0314709233895e-05
   3    2.720300512275e-06
   4    6.3170004904482e-07
   5    -4.4439221722865e-07
   6    -1.1957956354859e-05
   7    7.7376059898609e-07
   8    9.0550572929133e-07
   9    -1.8630458928748e-06
  10    -1.7782250108258e-06
  11    4.4563502155743e-07
  12    -3.9682811771967e-07
  13    1.4035288115882e-08
  14    2.9154591167972e-08
  15    4.6316720956304e-06
  16    5.9315471835826e-06
  17    2.2512898519205e-06
  18    -1.973165270208e-06
  19    1.119936087457e-05
  20    1.8569359296282e-06
  21    -9.1722934821982e-06
  22    -3.1646362720285e-08
  23    4.6112184806836e-07
  24    -7.7772778318323e-07
  25    -1.8370742047181e-05
  26    2.8777575230385e-07
  27    4.3416476553575e-05
  28    -4.3135246300467e-05
  29    -0.00014125717328672
  30    -0.00013765484085689
  31    -6.7052016934922e-05
  32    -0.00010742846605962
  33    -6.1374356862472e-05
  34    2.146477512145e-06
  35    1.3954143604558e-05
  36    -4.260543468276e-06
  37    9.0241876453969e-08
  38    -6.9578752343296e-07
  39    2.6164193324291e-06
  40    -0.00041215924898865
  41    0.00074643819322831
  42    -0.00040747772976044
  43    0.0002592312762341
  44    0.00029557846981224
  45    0.00045462156666759
  46    -0.00030904223843866
  47    -0.00031678264811902
  48    2.3408526708104e-05
  49    -2.1607106821857e-05
  50    -3.3978115688333e-05
  51    2.2949154170849e-05
  52    -6.1970493870931e-06
  53    -0.00064718660946742
  54    -0.00045613846556369
  55    -0.0011502299301188
  56    0.00023821348271283
  57    0.00029348091166694
  58    -0.00028820799911303
  59    0.00077280002260799
  60    -0.00052846676115632
  61    -0.0004642932498198
  62    -2.7167669298886e-05
  63    2.829085066569e-05
  64    -0.00010364701183245
  65    -9.928012087899e-05
  66    3.3607216998034e-05
  67    6.5045625384924e-05
  68    0.00014347500072646
  69    -0.00021740468579833
  70    6.6897394975457e-05
  71    -5.1595527053352e-05
  72    -3.553238763239e-05
  73    0.00040050352799505
  74    -0.00017761756053221
  75    -6.8587059036558e-05
  76    2.3647598009031e-05
  77    2.2103335899736e-05
  78    -1.8281477263806e-05
  79    -1.2956872590968e-05
  80    1.6800333236585e-05
  81    -0.00023449345827982
  82    -0.00012302565542367
  83    -5.2476059724949e-06
  84    1.5488107379358e-05
  85    7.4583300896755e-05
  86     0.002469325303003
  87    0.0017120386448397
  88    0.0044437562221611
  89    -0.0012484424832345
  90    0.0023306583064623
  91    0.00025450992231223
  92    0.00042027790157215
  93    0.0003918089373905
  94    -0.00052987971788023
  95    7.4824310141034e-05
  96    0.00022191170000981
  97    -8.4892639672137e-05
  98    -4.8934218925361e-05
  99    0.00019317745451633
 100    -0.00025811850493528
 101    -0.00016115119443472
 102    -8.2836288740365e-05
 103    -3.2815078177599e-06
 104    1.6808089989483e-06
 105    0.00011815142092742
 106    5.4390650070706e-05
 107    -1.0880368143162e-05
 108    8.8005747526768e-06
 109    8.2747171637595e-06
 110    0.00010001898023382
 111    8.3196819893349e-05
 112    9.4957375720519e-07
 113    -1.2616846522857e-05
 114    -2.9972997739683e-06
 115    -0.022090799899432
 116    -0.0002015263337567
 117    0.0006083128811058
 118    -1.0320103994649e-05
 119    4.5879374123125e-05
 120    -2.233792860042e-06
 121    0.00025939561699197
 122    -0.00016516072316839
 123    -0.00011124294531256
 124    -1.8655455097625e-06
 125    -2.1923748892549e-05
 126    1.2710150549567e-05
 127    1.6215628654402e-05
 128    -2.4115621998466e-05
 129    0.0021849308133471
 130    0.0007825491601804
 131    -0.00010097406445497
 132    -0.00018032711889896
 133    -0.00014820907822206
 134    0.0021623109590764
 135    0.00072707631216788
 136    0.00017299474388802
 137    -6.3827170575483e-05
 138    0.00016503158126743
 139      0.97237915578702
 140     0.004416107220737
 141    -0.011679088817138
 142    0.00081153440774042
 143    -0.00064791420162212
 144    -0.00048088427602943
 145    0.0012624358856716
 146    -0.0012674896885183
 147    -0.00059529759381541
 148    -6.8193560243172e-06
 149    0.00037017241562859
 150    9.0733359040602e-05
 151    -9.4793481040662e-05
 152    7.9433047090259e-06
 153    -9.7223025801884e-06
 154    -2.1425845367141e-05
 155    -1.4328900917106e-05
 156    3.5812731099005e-06
 157    -7.2441230894961e-06
 158    -7.6129921605684e-05
 159    -5.7720251024595e-05
 160    -6.3158750709997e-06
 161    1.3630770415576e-05
 162    1.468486156311e-07
 163    0.00074114059889763
 164    -7.9722934110259e-08
 165    -7.3969352937498e-06
 166    2.7176469297474e-07
 167    -5.2339547471198e-06
 168    1.2328469634037e-05
 169    7.9377561921196e-05
 170    1.1231797994042e-06
 171    -2.6682727771097e-05
 172    1.7718605729586e-06
 173    9.8509059557587e-06
 174    -4.5281474555876e-06
 175    1.1251562983889e-06
 176    -9.2193349032829e-08
 177    0.00025220849365298
 178     0.001465292238652
 179    0.00029596385217135
 180    -9.4988376412805e-05
 181    0.00029833081609412
 182      0.24287947939847
 183    0.0010976205186856
 184    -0.00030402769482549
 185    -7.4612050810339e-05
 186    -0.00015663894810568
 187    0.00012166549004854
 188    -0.00075290973868682
 189    -0.00042074436537437
 190    0.00079504906487593
 191    -1.7249225936213e-05
 192    0.00016957683450782
 193    0.00011877518493302
 194    -5.1514910238653e-06
 195    -7.0255823611255e-05
 196    0.00025101637324878
 197     0.001476817793108
 198    -0.000181834698681
 199    -0.00030896882528538
 200    -0.00025949077410467
 201    -1.0583144288205e-06
 202    9.8688236859596e-06
 203    -5.8304955801041e-06
 204    1.8992273180236e-07
 205    -3.4811939889984e-07
 206    -1.2301153292591e-05
 207    -4.6767282846257e-05
 208    -3.6160107542211e-06
 209    7.0274543020962e-06
 210    -2.0333949200404e-06
 211    -0.00026918021403454
 212    -1.4823431588438e-05
 213    4.5097421803205e-05
 214    -2.4680829644513e-06
 215    -1.2311569175983e-06
 216    -2.6649116752056e-06
 217    0.00010689494889936
 218    -7.7002209776565e-05
 219    1.4711604767743e-05
 220    -2.6076807622094e-06
 221    -5.6771479338633e-06
 222    4.4645209731989e-06
 223    2.6345351973159e-06
 224    -3.8620392705664e-06
 225    -0.00012309964854274
 226    0.00044776628393358
 227    3.8034634346081e-06
 228    2.088835833851e-05
 229    0.00011871681824889
 230    -0.00012925155311612
 231    0.00044929291805312
 232    -0.0001155972333824
 233    -3.036497666009e-05
 234    -1.8311183187545e-05
 235    0.0017527122097533
 236    -0.00018649862009349
 237    0.00074733286443356
 238    5.3803942463317e-05
 239    4.2249224689002e-05
 240    -6.2230182227226e-05
 241    -0.0001602635831708
 242    5.7275048951914e-05
 243    0.00012576714986018
 244    1.8309930134175e-05
 245    -3.2709338083692e-05
 246    -9.9138271408159e-05
 247    -3.3644082840566e-05
 248    8.5517968875946e-05
 249    -1.2238572187376e-05
 250    1.2957905054017e-05
 251    -3.1620390815353e-06
 252    2.8369274313935e-06
 253    -2.4429298240531e-06
 254    -7.7807542078046e-06
 255     8.68945992725e-07
 256    -3.6991461817076e-06
 257    2.3543910075394e-06
 258    -2.749719058033e-06
 259    0.00030782339458961
 260    -7.2761272030476e-06
 261    8.1006340660008e-05
 262    1.5971880003362e-06
 263    -2.6927003007317e-07