[Molden Format]
made by pyscf v[2.0.1]
[Atoms] (AU)
O   1   8     0.00000000000000     0.00000000000000    10.18586013564153
H   2   1     0.00000000000000     0.00000000000000     8.36245831374057
H   3   1    -0.05031916615174     1.78353065140343    10.56173183210820
O   4   8     0.00000000000000     0.00000000000000     2.31533471513237
C   5   6     0.00000000000000     0.00000000000000     0.00000000000000
C   6   6     2.01118073026938    -1.40227222164369    -1.50774939176400
C   7   6    -2.01249334291722     1.41331050329955    -1.50315905028694
H   8   1     3.32037363730244    -2.26721897153159    -0.13599698591495
C   9   6     3.45899267434009     0.28739631745591    -3.37437943254505
H   10   1     1.07662969841332    -2.94725144642667    -2.56541439481080
H   11   1    -2.67503415753480     0.18421555839588    -3.06194479365997
H   12   1    -1.07974048864772     3.03851734677796    -2.43674295017013
C   13   6    -4.21607110578555     2.32938802552922     0.11994162256091
H   14   1     4.24440173074564     1.93368664142019    -2.34976285512790
H   15   1     2.15020713235517     1.04714335134846    -4.81494497423699
C   16   6     5.60746363007797    -1.12419643481196    -4.70268606082550
H   17   1    -3.46838323670267     3.50951302338067     1.66946842715333
H   18   1    -5.11873485366228     0.68575958301209     1.04047743976495
C   19   6    -6.18314754751344     3.80909592987882    -1.39656589068747
H   20   1     6.93011263717176    -1.87550812453645    -3.26656317360070
C   21   6     7.06356622236532     0.52877932406334    -6.57829775293605
H   22   1     4.82318879258361    -2.78573437948532    -5.70504560381835
H   23   1    -6.91582688743803     2.61304780074712    -2.95074552451969
H   24   1    -5.26532430573853     5.45420349051338    -2.31005832200284
C   25   6    -8.39941882261433     4.73263980500213     0.21800571437956
H   26   1     7.83338371486801     2.19084139882824    -5.57093109900697
H   27   1     5.73544244039420     1.27376866537418    -8.01071492370229
C   28   6     9.21124858443101    -0.89699110072176    -7.88926949186242
H   29   1    -7.66272760055236     5.92277078003992     1.77035591474408
H   30   1    -9.31497248082589     3.08753015622020     1.12614408368786
C   31   6   -10.35481709231879     6.21833079391143    -1.30905206253246
H   32   1    10.58815905329501    -1.61074586756696    -6.49512691622620
H   33   1    10.23506248045667     0.32468009384095    -9.23072870921204
H   34   1     8.47665842847139    -2.53598436989925    -8.94921964622535
H   35   1    -9.48948872868064     7.90013588951020    -2.18823918416067
H   36   1   -11.93332513000955     6.86460487874102    -0.11255798845995
H   37   1   -11.15126291841033     5.04495968327630    -2.83849898862534
[GTO]
1 0
 s    8 1.00
                 11720  0.00070964594651845
                  1759  0.0054672722921914
                 400.8   0.027823118610189
                 113.7    0.10474773971146
                 37.03    0.28292084635691
                 13.27    0.44849523869833
                 5.025    0.27081688521277
                 1.013    0.01545029160744
 s    8 1.00
                 11720  -0.00031444341168873
                  1759  -0.0024821376810179
                 400.8  -0.012316355381583
                 113.7  -0.050538917343672
                 37.03   -0.13938490331632
                 13.27   -0.32507749481778
                 5.025   -0.22984830758785
                 1.013     1.0953793467883
 s    1 1.00
                0.3023                   1
 p    3 1.00
                  17.7   0.062679166281506
                 3.854    0.33353656587936
                 1.046    0.74123964163973
 p    1 1.00
                0.2753                   1
 d    1 1.00
                 1.185                   1

2 0
 s    3 1.00
                 13.01   0.033498726389998
                 1.962    0.23480080117413
                0.4446     0.8136829578829
 s    1 1.00
                 0.122                   1
 p    1 1.00
                 0.727                   1

3 0
 s    3 1.00
                 13.01   0.033498726389998
                 1.962    0.23480080117413
                0.4446     0.8136829578829
 s    1 1.00
                 0.122                   1
 p    1 1.00
                 0.727                   1

4 0
 s    8 1.00
                 11720  0.00070964594651845
                  1759  0.0054672722921914
                 400.8   0.027823118610189
                 113.7    0.10474773971146
                 37.03    0.28292084635691
                 13.27    0.44849523869833
                 5.025    0.27081688521277
                 1.013    0.01545029160744
 s    8 1.00
                 11720  -0.00031444341168873
                  1759  -0.0024821376810179
                 400.8  -0.012316355381583
                 113.7  -0.050538917343672
                 37.03   -0.13938490331632
                 13.27   -0.32507749481778
                 5.025   -0.22984830758785
                 1.013     1.0953793467883
 s    1 1.00
                0.3023                   1
 p    3 1.00
                  17.7   0.062679166281506
                 3.854    0.33353656587936
                 1.046    0.74123964163973
 p    1 1.00
                0.2753                   1
 d    1 1.00
                 1.185                   1

5 0
 s    8 1.00
                  6665  0.00069158396281299
                  1000  0.0053257961529341
                   228   0.027060721042034
                 64.71    0.10165684614077
                 21.06     0.2745748236174
                 7.495    0.44829431892377
                 2.797    0.28490261071525
                0.5215   0.015194859206082
 s    8 1.00
                  6665  -0.00029326965268655
                  1000  -0.0023180354739745
                   228  -0.011499786038565
                 64.71  -0.046826727009787
                 21.06   -0.12846616875047
                 7.495   -0.30126627246289
                 2.797   -0.25563070233011
                0.5215      1.093793361012
 s    1 1.00
                0.1596                   1
 p    3 1.00
                 9.439   0.056979251590039
                 2.002    0.31320721150073
                0.5456    0.76037674173753
 p    1 1.00
                0.1517                   1
 d    1 1.00
                  0.55                   1

6 0
 s    8 1.00
                  6665  0.00069158396281299
                  1000  0.0053257961529341
                   228   0.027060721042034
                 64.71    0.10165684614077
                 21.06     0.2745748236174
                 7.495    0.44829431892377
                 2.797    0.28490261071525
                0.5215   0.015194859206082
 s    8 1.00
                  6665  -0.00029326965268655
                  1000  -0.0023180354739745
                   228  -0.011499786038565
                 64.71  -0.046826727009787
                 21.06   -0.12846616875047
                 7.495   -0.30126627246289
                 2.797   -0.25563070233011
                0.5215      1.093793361012
 s    1 1.00
                0.1596                   1
 p    3 1.00
                 9.439   0.056979251590039
                 2.002    0.31320721150073
                0.5456    0.76037674173753
 p    1 1.00
                0.1517                   1
 d    1 1.00
                  0.55                   1

7 0
 s    8 1.00
                  6665  0.00069158396281299
                  1000  0.0053257961529341
                   228   0.027060721042034
                 64.71    0.10165684614077
                 21.06     0.2745748236174
                 7.495    0.44829431892377
                 2.797    0.28490261071525
                0.5215   0.015194859206082
 s    8 1.00
                  6665  -0.00029326965268655
                  1000  -0.0023180354739745
                   228  -0.011499786038565
                 64.71  -0.046826727009787
                 21.06   -0.12846616875047
                 7.495   -0.30126627246289
                 2.797   -0.25563070233011
                0.5215      1.093793361012
 s    1 1.00
                0.1596                   1
 p    3 1.00
                 9.439   0.056979251590039
                 2.002    0.31320721150073
                0.5456    0.76037674173753
 p    1 1.00
                0.1517                   1
 d    1 1.00
                  0.55                   1

8 0
 s    3 1.00
                 13.01   0.033498726389998
                 1.962    0.23480080117413
                0.4446     0.8136829578829
 s    1 1.00
                 0.122                   1
 p    1 1.00
                 0.727                   1

9 0
 s    8 1.00
                  6665  0.00069158396281299
                  1000  0.0053257961529341
                   228   0.027060721042034
                 64.71    0.10165684614077
                 21.06     0.2745748236174
                 7.495    0.44829431892377
                 2.797    0.28490261071525
                0.5215   0.015194859206082
 s    8 1.00
                  6665  -0.00029326965268655
                  1000  -0.0023180354739745
                   228  -0.011499786038565
                 64.71  -0.046826727009787
                 21.06   -0.12846616875047
                 7.495   -0.30126627246289
                 2.797   -0.25563070233011
                0.5215      1.093793361012
 s    1 1.00
                0.1596                   1
 p    3 1.00
                 9.439   0.056979251590039
                 2.002    0.31320721150073
                0.5456    0.76037674173753
 p    1 1.00
                0.1517                   1
 d    1 1.00
                  0.55                   1

10 0
 s    3 1.00
                 13.01   0.033498726389998
                 1.962    0.23480080117413
                0.4446     0.8136829578829
 s    1 1.00
                 0.122                   1
 p    1 1.00
                 0.727                   1

11 0
 s    3 1.00
                 13.01   0.033498726389998
                 1.962    0.23480080117413
                0.4446     0.8136829578829
 s    1 1.00
                 0.122                   1
 p    1 1.00
                 0.727                   1

12 0
 s    3 1.00
                 13.01   0.033498726389998
                 1.962    0.23480080117413
                0.4446     0.8136829578829
 s    1 1.00
                 0.122                   1
 p    1 1.00
                 0.727                   1

13 0
 s    8 1.00
                  6665  0.00069158396281299
                  1000  0.0053257961529341
                   228   0.027060721042034
                 64.71    0.10165684614077
                 21.06     0.2745748236174
                 7.495    0.44829431892377
                 2.797    0.28490261071525
                0.5215   0.015194859206082
 s    8 1.00
                  6665  -0.00029326965268655
                  1000  -0.0023180354739745
                   228  -0.011499786038565
                 64.71  -0.046826727009787
                 21.06   -0.12846616875047
                 7.495   -0.30126627246289
                 2.797   -0.25563070233011
                0.5215      1.093793361012
 s    1 1.00
                0.1596                   1
 p    3 1.00
                 9.439   0.056979251590039
                 2.002    0.31320721150073
                0.5456    0.76037674173753
 p    1 1.00
                0.1517                   1
 d    1 1.00
                  0.55                   1

14 0
 s    3 1.00
                 13.01   0.033498726389998
                 1.962    0.23480080117413
                0.4446     0.8136829578829
 s    1 1.00
                 0.122                   1
 p    1 1.00
                 0.727                   1

15 0
 s    3 1.00
                 13.01   0.033498726389998
                 1.962    0.23480080117413
                0.4446     0.8136829578829
 s    1 1.00
                 0.122                   1
 p    1 1.00
                 0.727                   1

16 0
 s    8 1.00
                  6665  0.00069158396281299
                  1000  0.0053257961529341
                   228   0.027060721042034
                 64.71    0.10165684614077
                 21.06     0.2745748236174
                 7.495    0.44829431892377
                 2.797    0.28490261071525
                0.5215   0.015194859206082
 s    8 1.00
                  6665  -0.00029326965268655
                  1000  -0.0023180354739745
                   228  -0.011499786038565
                 64.71  -0.046826727009787
                 21.06   -0.12846616875047
                 7.495   -0.30126627246289
                 2.797   -0.25563070233011
                0.5215      1.093793361012
 s    1 1.00
                0.1596                   1
 p    3 1.00
                 9.439   0.056979251590039
                 2.002    0.31320721150073
                0.5456    0.76037674173753
 p    1 1.00
                0.1517                   1
 d    1 1.00
                  0.55                   1

17 0
 s    3 1.00
                 13.01   0.033498726389998
                 1.962    0.23480080117413
                0.4446     0.8136829578829
 s    1 1.00
                 0.122                   1
 p    1 1.00
                 0.727                   1

18 0
 s    3 1.00
                 13.01   0.033498726389998
                 1.962    0.23480080117413
                0.4446     0.8136829578829
 s    1 1.00
                 0.122                   1
 p    1 1.00
                 0.727                   1

19 0
 s    8 1.00
                  6665  0.00069158396281299
                  1000  0.0053257961529341
                   228   0.027060721042034
                 64.71    0.10165684614077
                 21.06     0.2745748236174
                 7.495    0.44829431892377
                 2.797    0.28490261071525
                0.5215   0.015194859206082
 s    8 1.00
                  6665  -0.00029326965268655
                  1000  -0.0023180354739745
                   228  -0.011499786038565
                 64.71  -0.046826727009787
                 21.06   -0.12846616875047
                 7.495   -0.30126627246289
                 2.797   -0.25563070233011
                0.5215      1.093793361012
 s    1 1.00
                0.1596                   1
 p    3 1.00
                 9.439   0.056979251590039
                 2.002    0.31320721150073
                0.5456    0.76037674173753
 p    1 1.00
                0.1517                   1
 d    1 1.00
                  0.55                   1

20 0
 s    3 1.00
                 13.01   0.033498726389998
                 1.962    0.23480080117413
                0.4446     0.8136829578829
 s    1 1.00
                 0.122                   1
 p    1 1.00
                 0.727                   1

21 0
 s    8 1.00
                  6665  0.00069158396281299
                  1000  0.0053257961529341
                   228   0.027060721042034
                 64.71    0.10165684614077
                 21.06     0.2745748236174
                 7.495    0.44829431892377
                 2.797    0.28490261071525
                0.5215   0.015194859206082
 s    8 1.00
                  6665  -0.00029326965268655
                  1000  -0.0023180354739745
                   228  -0.011499786038565
                 64.71  -0.046826727009787
                 21.06   -0.12846616875047
                 7.495   -0.30126627246289
                 2.797   -0.25563070233011
                0.5215      1.093793361012
 s    1 1.00
                0.1596                   1
 p    3 1.00
                 9.439   0.056979251590039
                 2.002    0.31320721150073
                0.5456    0.76037674173753
 p    1 1.00
                0.1517                   1
 d    1 1.00
                  0.55                   1

22 0
 s    3 1.00
                 13.01   0.033498726389998
                 1.962    0.23480080117413
                0.4446     0.8136829578829
 s    1 1.00
                 0.122                   1
 p    1 1.00
                 0.727                   1

23 0
 s    3 1.00
                 13.01   0.033498726389998
                 1.962    0.23480080117413
                0.4446     0.8136829578829
 s    1 1.00
                 0.122                   1
 p    1 1.00
                 0.727                   1

24 0
 s    3 1.00
                 13.01   0.033498726389998
                 1.962    0.23480080117413
                0.4446     0.8136829578829
 s    1 1.00
                 0.122                   1
 p    1 1.00
                 0.727                   1

25 0
 s    8 1.00
                  6665  0.00069158396281299
                  1000  0.0053257961529341
                   228   0.027060721042034
                 64.71    0.10165684614077
                 21.06     0.2745748236174
                 7.495    0.44829431892377
                 2.797    0.28490261071525
                0.5215   0.015194859206082
 s    8 1.00
                  6665  -0.00029326965268655
                  1000  -0.0023180354739745
                   228  -0.011499786038565
                 64.71  -0.046826727009787
                 21.06   -0.12846616875047
                 7.495   -0.30126627246289
                 2.797   -0.25563070233011
                0.5215      1.093793361012
 s    1 1.00
                0.1596                   1
 p    3 1.00
                 9.439   0.056979251590039
                 2.002    0.31320721150073
                0.5456    0.76037674173753
 p    1 1.00
                0.1517                   1
 d    1 1.00
                  0.55                   1

26 0
 s    3 1.00
                 13.01   0.033498726389998
                 1.962    0.23480080117413
                0.4446     0.8136829578829
 s    1 1.00
                 0.122                   1
 p    1 1.00
                 0.727                   1

27 0
 s    3 1.00
                 13.01   0.033498726389998
                 1.962    0.23480080117413
                0.4446     0.8136829578829
 s    1 1.00
                 0.122                   1
 p    1 1.00
                 0.727                   1

28 0
 s    8 1.00
                  6665  0.00069158396281299
                  1000  0.0053257961529341
                   228   0.027060721042034
                 64.71    0.10165684614077
                 21.06     0.2745748236174
                 7.495    0.44829431892377
                 2.797    0.28490261071525
                0.5215   0.015194859206082
 s    8 1.00
                  6665  -0.00029326965268655
                  1000  -0.0023180354739745
                   228  -0.011499786038565
                 64.71  -0.046826727009787
                 21.06   -0.12846616875047
                 7.495   -0.30126627246289
                 2.797   -0.25563070233011
                0.5215      1.093793361012
 s    1 1.00
                0.1596                   1
 p    3 1.00
                 9.439   0.056979251590039
                 2.002    0.31320721150073
                0.5456    0.76037674173753
 p    1 1.00
                0.1517                   1
 d    1 1.00
                  0.55                   1

29 0
 s    3 1.00
                 13.01   0.033498726389998
                 1.962    0.23480080117413
                0.4446     0.8136829578829
 s    1 1.00
                 0.122                   1
 p    1 1.00
                 0.727                   1

30 0
 s    3 1.00
                 13.01   0.033498726389998
                 1.962    0.23480080117413
                0.4446     0.8136829578829
 s    1 1.00
                 0.122                   1
 p    1 1.00
                 0.727                   1

31 0
 s    8 1.00
                  6665  0.00069158396281299
                  1000  0.0053257961529341
                   228   0.027060721042034
                 64.71    0.10165684614077
                 21.06     0.2745748236174
                 7.495    0.44829431892377
                 2.797    0.28490261071525
                0.5215   0.015194859206082
 s    8 1.00
                  6665  -0.00029326965268655
                  1000  -0.0023180354739745
                   228  -0.011499786038565
                 64.71  -0.046826727009787
                 21.06   -0.12846616875047
                 7.495   -0.30126627246289
                 2.797   -0.25563070233011
                0.5215      1.093793361012
 s    1 1.00
                0.1596                   1
 p    3 1.00
                 9.439   0.056979251590039
                 2.002    0.31320721150073
                0.5456    0.76037674173753
 p    1 1.00
                0.1517                   1
 d    1 1.00
                  0.55                   1

32 0
 s    3 1.00
                 13.01   0.033498726389998
                 1.962    0.23480080117413
                0.4446     0.8136829578829
 s    1 1.00
                 0.122                   1
 p    1 1.00
                 0.727                   1

33 0
 s    3 1.00
                 13.01   0.033498726389998
                 1.962    0.23480080117413
                0.4446     0.8136829578829
 s    1 1.00
                 0.122                   1
 p    1 1.00
                 0.727                   1

34 0
 s    3 1.00
                 13.01   0.033498726389998
                 1.962    0.23480080117413
                0.4446     0.8136829578829
 s    1 1.00
                 0.122                   1
 p    1 1.00
                 0.727                   1

35 0
 s    3 1.00
                 13.01   0.033498726389998
                 1.962    0.23480080117413
                0.4446     0.8136829578829
 s    1 1.00
                 0.122                   1
 p    1 1.00
                 0.727                   1

36 0
 s    3 1.00
                 13.01   0.033498726389998
                 1.962    0.23480080117413
                0.4446     0.8136829578829
 s    1 1.00
                 0.122                   1
 p    1 1.00
                 0.727                   1

37 0
 s    3 1.00
                 13.01   0.033498726389998
                 1.962    0.23480080117413
                0.4446     0.8136829578829
 s    1 1.00
                 0.122                   1
 p    1 1.00
                 0.727                   1

[5d]
[7f]
[9g]

[MO]
 Sym= A
 Ene=               0
 Spin= Alpha
 Occup=    1.00000
   1    8.8916785670429e-08
   2    4.6223309139272e-07
   3    -5.9770051795533e-06
   4    -6.5365103975375e-09
   5    7.9422974969392e-08
   6    4.5505806689275e-07
   7    -5.0366222468743e-08
   8    1.0594817570843e-06
   9    3.7016849098078e-06
  10    -2.5666204596587e-07
  11    -3.0181176192951e-09
  12    2.9199613558825e-08
  13    -7.3843850106985e-09
  14    -1.1347868697305e-09
  15    3.2401058076818e-07
  16    1.0793687446851e-05
  17    -2.6555366648887e-08
  18    5.5261825761056e-08
  19    7.6637450276748e-07
  20    2.2181819517618e-07
  21    -2.9267649634499e-06
  22    7.2407502523614e-10
  23    6.7884470165608e-08
  24    -8.4208154665027e-08
  25    1.9495767805846e-05
  26    4.5544129504728e-06
  27    -2.7701927146398e-05
  28    3.9010780941819e-05
  29    0.00013842574378129
  30    0.00013351526260755
  31    6.8005797516505e-05
  32    9.9316076773104e-05
  33    5.6077877886476e-05
  34    -2.3736021572217e-06
  35    -1.349835580065e-05
  36    3.8602331498192e-06
  37    -5.3901866885785e-08
  38    9.0932230801617e-07
  39    7.6101947262077e-06
  40    0.00040603260672069
  41    -0.0007626763106082
  42    0.00039306168010139
  43    -0.00024602921523923
  44    -0.000287486369038
  45    -0.00047833342082063
  46    0.00033827790023601
  47    0.00030489717208496
  48    -2.185706176629e-05
  49    2.1976931165454e-05
  50    3.197114181038e-05
  51    -2.095325256149e-05
  52    7.9940063872359e-06
  53    0.00062305762811828
  54    0.0004658239422987
  55    0.0010760197377794
  56    -0.0002145362866509
  57    -0.00025972208105172
  58    0.00025857188372069
  59    -0.00081124720394069
  60    0.00052637349914161
  61    0.00051276381242496
  62    2.6823374299235e-05
  63    -3.1803875827951e-05
  64    9.9811116526565e-05
  65    9.641618498677e-05
  66    -3.2895202893136e-05
  67    -7.189502935782e-05
  68    -0.00014227149041369
  69    0.00018569318338516
  70    -6.7998722167188e-05
  71    4.383926924494e-05
  72    4.2069660456107e-05
  73    -0.00040827743131687
  74    0.00017153947562555
  75    6.3487238081674e-05
  76    -2.2765088778534e-05
  77    -2.3134826663885e-05
  78    1.9194193646923e-05
  79    1.3833834094009e-05
  80    -1.7453164658134e-05
  81    0.0002253277462196
  82    0.00011275348742304
  83    6.6333290179633e-06
  84    -1.5295610108977e-05
  85    -7.4298986013299e-05
  86    -0.0023041152320518
  87    -0.0015305128898277
  88    -0.004195821131843
  89    0.0012597035355947
  90    -0.0022928825990209
  91    -0.00027635855254522
  92    -0.00041654639886301
  93    -0.00044788111366518
  94    0.00054217743428939
  95    -7.2868719444545e-05
  96    -0.00021752457429075
  97    8.6855932308277e-05
  98    5.0656872521271e-05
  99    -0.00019095692635718
 100    0.00024694729895719
 101    0.00015385409224556
 102    8.3519370079332e-05
 103    2.9131160365848e-06
 104    -3.8013135997409e-06
 105    -0.00011678928098282
 106    -6.0607442683426e-05
 107    1.116478531358e-05
 108    -9.5159737097893e-06
 109    -8.840923769687e-06
 110    -0.00010629252482437
 111    -8.7697237094424e-05
 112    -6.3691687946544e-08
 113    1.2899689078432e-05
 114    2.6389918544451e-06
 115     0.017702757826242
 116    0.00017845549561208
 117    -0.00055176052226043
 118    1.1526512456089e-05
 119    -4.5109237148309e-05
 120    2.3550024655505e-07
 121    -0.00025934138764491
 122    0.0001707532394761
 123    0.0001019112373544
 124    1.5641129305951e-06
 125    2.2115326797434e-05
 126    -1.2867615246455e-05
 127    -1.5490114877695e-05
 128    2.263515185462e-05
 129    -0.0020808386663176
 130    -0.00074217300825174
 131     9.93620857813e-05
 132    0.00017190795593246
 133    0.00013423257963232
 134    -0.0020597210709287
 135    -0.00068505122458055
 136    -0.00015784306479197
 137    6.2485879365644e-05
 138    -0.0001586179573847
 139     -0.94540265010984
 140    -0.004240124278502
 141     0.011069793183349
 142    -0.00087584423307231
 143    0.00067962876800606
 144    0.00052252572679811
 145    -0.0013496037957222
 146    0.0011570907337827
 147    0.00071603629415981
 148    4.8794761919772e-06
 149    -0.00037312713957925
 150    -9.3296293891403e-05
 151    9.1272981559756e-05
 152    -8.7888380771727e-06
 153    8.5909289484358e-06
 154    1.434471570755e-05
 155    1.3755333948004e-05
 156    -4.7735140326395e-06
 157    6.3350704113797e-06
 158    7.2761959002368e-05
 159    5.236957700442e-05
 160    7.301456249784e-06
 161    -1.2268181767351e-05
 162    -5.4342601605632e-07
 163    -0.00090545188063717
 164    1.2096752419084e-06
 165    -1.0314005221461e-05
 166    -2.9799052418163e-07
 167    5.5376083035158e-06
 168    -1.2380012118343e-05
 169    -8.6258127425886e-05
 170    4.3118112299307e-06
 171    2.2396313454079e-05
 172    -1.6879795979884e-06
 173    -9.5424203859368e-06
 174    4.1314233867209e-06
 175    -1.1757809584986e-06
 176    -1.1780544819304e-07
 177    -0.00024622990360876
 178    -0.0014554960635353
 179    -0.00029046715710789
 180    9.0336139106855e-05
 181    -0.00028537764532253
 182     -0.33290808391447
 183    -0.0015721100920101
 184    0.0014501640522307
 185    8.4072002185743e-05
 186    0.00013303050838697
 187    -0.00012063535623712
 188    0.00072703463582511
 189    0.00027886592869475
 190    -0.00072069534563178
 191    1.7168545968571e-05
 192    -0.00019868672003761
 193    -0.00012388335774416
 194    1.3102795009026e-05
 195    6.7969812894084e-05
 196    -0.00024563383765412
 197    -0.0014643774742331
 198    0.00017217323520948
 199    0.00029729234255566
 200    0.00025501238174416
 201    1.8224605297454e-06
 202    -1.0088137596529e-05
 203    5.7992596628491e-06
 204    -4.9448892055645e-08
 205    3.0023823533964e-07
 206    1.3016817137166e-05
 207    4.5616664952614e-05
 208    3.4743686344743e-06
 209    -6.9414592396271e-06
 210    1.8620938591403e-06
 211    0.00030987538288063
 212    1.5503329764143e-05
 213    -4.3602360682953e-05
 214    2.8437776907098e-06
 215    8.1158660712655e-07
 216    2.714371642241e-06
 217    -0.00010756833445366
 218    7.7350320779993e-05
 219    -1.6681073662308e-05
 220    2.5052418812923e-06
 221    5.3945404952753e-06
 222    -4.3245432602592e-06
 223    -2.6187319116642e-06
 224    3.9387549353453e-06
 225    9.335367008356e-05
 226    -0.00055688629351038
 227    -2.1757702280366e-05
 228    -4.8980633901355e-05
 229    -0.00014142233946822
 230    9.9708686419581e-05
 231    -0.00055998154125761
 232    0.00014229395894702
 233    2.1730401215001e-05
 234    4.7355573121733e-05
 235    -0.0059816255339174
 236    0.00017416287090659
 237    -0.00093570252140627
 238    -5.1930268474384e-05
 239    -4.3716215256476e-05
 240    6.1186306505555e-05
 241    0.00022617058597876
 242    -0.00010617887772517
 243    -0.00016423215870832
 244    -2.3249450887804e-05
 245    2.1092664325764e-05
 246    0.00010668839963634
 247    3.7495069694185e-05
 248    -9.9388490697519e-05
 249    1.2315841645077e-05
 250    -1.1639513657896e-05
 251    3.2956087094908e-06
 252    -3.0601063650576e-06
 253    2.4801566518028e-06
 254    8.0808377636162e-06
 255    -6.1320216187162e-08
 256    3.8873797875861e-06
 257    -2.4109977926116e-06
 258    2.8746742108286e-06
 259    -0.00032447836062517
 260    7.919388247543e-06
 261    -8.4078762555695e-05
 262    -1.5680187528313e-06
 263    3.1097275598804e-07