[Molden Format]
made by pyscf v[2.0.1]
[Atoms] (AU)
O   1   8     0.00000000000000     0.00000000000000     7.16229833633744
H   2   1     0.00000000000000     0.00000000000000     5.33889651443647
H   3   1    -0.05031916615174     1.78353065140343     7.53817003280410
O   4   8     0.00000000000000     0.00000000000000     2.31533471513237
C   5   6     0.00000000000000     0.00000000000000     0.00000000000000
C   6   6     2.01118073026938    -1.40227222164369    -1.50774939176400
C   7   6    -2.01249334291722     1.41331050329955    -1.50315905028694
H   8   1     3.32037363730244    -2.26721897153159    -0.13599698591495
C   9   6     3.45899267434009     0.28739631745591    -3.37437943254505
H   10   1     1.07662969841332    -2.94725144642667    -2.56541439481080
H   11   1    -2.67503415753480     0.18421555839588    -3.06194479365997
H   12   1    -1.07974048864772     3.03851734677796    -2.43674295017013
C   13   6    -4.21607110578555     2.32938802552922     0.11994162256091
H   14   1     4.24440173074564     1.93368664142019    -2.34976285512790
H   15   1     2.15020713235517     1.04714335134846    -4.81494497423699
C   16   6     5.60746363007797    -1.12419643481196    -4.70268606082550
H   17   1    -3.46838323670267     3.50951302338067     1.66946842715333
H   18   1    -5.11873485366228     0.68575958301209     1.04047743976495
C   19   6    -6.18314754751344     3.80909592987882    -1.39656589068747
H   20   1     6.93011263717176    -1.87550812453645    -3.26656317360070
C   21   6     7.06356622236532     0.52877932406334    -6.57829775293605
H   22   1     4.82318879258361    -2.78573437948532    -5.70504560381835
H   23   1    -6.91582688743803     2.61304780074712    -2.95074552451969
H   24   1    -5.26532430573853     5.45420349051338    -2.31005832200284
C   25   6    -8.39941882261433     4.73263980500213     0.21800571437956
H   26   1     7.83338371486801     2.19084139882824    -5.57093109900697
H   27   1     5.73544244039420     1.27376866537418    -8.01071492370229
C   28   6     9.21124858443101    -0.89699110072176    -7.88926949186242
H   29   1    -7.66272760055236     5.92277078003992     1.77035591474408
H   30   1    -9.31497248082589     3.08753015622020     1.12614408368786
C   31   6   -10.35481709231879     6.21833079391143    -1.30905206253246
H   32   1    10.58815905329501    -1.61074586756696    -6.49512691622620
H   33   1    10.23506248045667     0.32468009384095    -9.23072870921204
H   34   1     8.47665842847139    -2.53598436989925    -8.94921964622535
H   35   1    -9.48948872868064     7.90013588951020    -2.18823918416067
H   36   1   -11.93332513000955     6.86460487874102    -0.11255798845995
H   37   1   -11.15126291841033     5.04495968327630    -2.83849898862534
[GTO]
1 0
 s    8 1.00
                 11720  0.00070964594651845
                  1759  0.0054672722921914
                 400.8   0.027823118610189
                 113.7    0.10474773971146
                 37.03    0.28292084635691
                 13.27    0.44849523869833
                 5.025    0.27081688521277
                 1.013    0.01545029160744
 s    8 1.00
                 11720  -0.00031444341168873
                  1759  -0.0024821376810179
                 400.8  -0.012316355381583
                 113.7  -0.050538917343672
                 37.03   -0.13938490331632
                 13.27   -0.32507749481778
                 5.025   -0.22984830758785
                 1.013     1.0953793467883
 s    1 1.00
                0.3023                   1
 p    3 1.00
                  17.7   0.062679166281506
                 3.854    0.33353656587936
                 1.046    0.74123964163973
 p    1 1.00
                0.2753                   1
 d    1 1.00
                 1.185                   1

2 0
 s    3 1.00
                 13.01   0.033498726389998
                 1.962    0.23480080117413
                0.4446     0.8136829578829
 s    1 1.00
                 0.122                   1
 p    1 1.00
                 0.727                   1

3 0
 s    3 1.00
                 13.01   0.033498726389998
                 1.962    0.23480080117413
                0.4446     0.8136829578829
 s    1 1.00
                 0.122                   1
 p    1 1.00
                 0.727                   1

4 0
 s    8 1.00
                 11720  0.00070964594651845
                  1759  0.0054672722921914
                 400.8   0.027823118610189
                 113.7    0.10474773971146
                 37.03    0.28292084635691
                 13.27    0.44849523869833
                 5.025    0.27081688521277
                 1.013    0.01545029160744
 s    8 1.00
                 11720  -0.00031444341168873
                  1759  -0.0024821376810179
                 400.8  -0.012316355381583
                 113.7  -0.050538917343672
                 37.03   -0.13938490331632
                 13.27   -0.32507749481778
                 5.025   -0.22984830758785
                 1.013     1.0953793467883
 s    1 1.00
                0.3023                   1
 p    3 1.00
                  17.7   0.062679166281506
                 3.854    0.33353656587936
                 1.046    0.74123964163973
 p    1 1.00
                0.2753                   1
 d    1 1.00
                 1.185                   1

5 0
 s    8 1.00
                  6665  0.00069158396281299
                  1000  0.0053257961529341
                   228   0.027060721042034
                 64.71    0.10165684614077
                 21.06     0.2745748236174
                 7.495    0.44829431892377
                 2.797    0.28490261071525
                0.5215   0.015194859206082
 s    8 1.00
                  6665  -0.00029326965268655
                  1000  -0.0023180354739745
                   228  -0.011499786038565
                 64.71  -0.046826727009787
                 21.06   -0.12846616875047
                 7.495   -0.30126627246289
                 2.797   -0.25563070233011
                0.5215      1.093793361012
 s    1 1.00
                0.1596                   1
 p    3 1.00
                 9.439   0.056979251590039
                 2.002    0.31320721150073
                0.5456    0.76037674173753
 p    1 1.00
                0.1517                   1
 d    1 1.00
                  0.55                   1

6 0
 s    8 1.00
                  6665  0.00069158396281299
                  1000  0.0053257961529341
                   228   0.027060721042034
                 64.71    0.10165684614077
                 21.06     0.2745748236174
                 7.495    0.44829431892377
                 2.797    0.28490261071525
                0.5215   0.015194859206082
 s    8 1.00
                  6665  -0.00029326965268655
                  1000  -0.0023180354739745
                   228  -0.011499786038565
                 64.71  -0.046826727009787
                 21.06   -0.12846616875047
                 7.495   -0.30126627246289
                 2.797   -0.25563070233011
                0.5215      1.093793361012
 s    1 1.00
                0.1596                   1
 p    3 1.00
                 9.439   0.056979251590039
                 2.002    0.31320721150073
                0.5456    0.76037674173753
 p    1 1.00
                0.1517                   1
 d    1 1.00
                  0.55                   1

7 0
 s    8 1.00
                  6665  0.00069158396281299
                  1000  0.0053257961529341
                   228   0.027060721042034
                 64.71    0.10165684614077
                 21.06     0.2745748236174
                 7.495    0.44829431892377
                 2.797    0.28490261071525
                0.5215   0.015194859206082
 s    8 1.00
                  6665  -0.00029326965268655
                  1000  -0.0023180354739745
                   228  -0.011499786038565
                 64.71  -0.046826727009787
                 21.06   -0.12846616875047
                 7.495   -0.30126627246289
                 2.797   -0.25563070233011
                0.5215      1.093793361012
 s    1 1.00
                0.1596                   1
 p    3 1.00
                 9.439   0.056979251590039
                 2.002    0.31320721150073
                0.5456    0.76037674173753
 p    1 1.00
                0.1517                   1
 d    1 1.00
                  0.55                   1

8 0
 s    3 1.00
                 13.01   0.033498726389998
                 1.962    0.23480080117413
                0.4446     0.8136829578829
 s    1 1.00
                 0.122                   1
 p    1 1.00
                 0.727                   1

9 0
 s    8 1.00
                  6665  0.00069158396281299
                  1000  0.0053257961529341
                   228   0.027060721042034
                 64.71    0.10165684614077
                 21.06     0.2745748236174
                 7.495    0.44829431892377
                 2.797    0.28490261071525
                0.5215   0.015194859206082
 s    8 1.00
                  6665  -0.00029326965268655
                  1000  -0.0023180354739745
                   228  -0.011499786038565
                 64.71  -0.046826727009787
                 21.06   -0.12846616875047
                 7.495   -0.30126627246289
                 2.797   -0.25563070233011
                0.5215      1.093793361012
 s    1 1.00
                0.1596                   1
 p    3 1.00
                 9.439   0.056979251590039
                 2.002    0.31320721150073
                0.5456    0.76037674173753
 p    1 1.00
                0.1517                   1
 d    1 1.00
                  0.55                   1

10 0
 s    3 1.00
                 13.01   0.033498726389998
                 1.962    0.23480080117413
                0.4446     0.8136829578829
 s    1 1.00
                 0.122                   1
 p    1 1.00
                 0.727                   1

11 0
 s    3 1.00
                 13.01   0.033498726389998
                 1.962    0.23480080117413
                0.4446     0.8136829578829
 s    1 1.00
                 0.122                   1
 p    1 1.00
                 0.727                   1

12 0
 s    3 1.00
                 13.01   0.033498726389998
                 1.962    0.23480080117413
                0.4446     0.8136829578829
 s    1 1.00
                 0.122                   1
 p    1 1.00
                 0.727                   1

13 0
 s    8 1.00
                  6665  0.00069158396281299
                  1000  0.0053257961529341
                   228   0.027060721042034
                 64.71    0.10165684614077
                 21.06     0.2745748236174
                 7.495    0.44829431892377
                 2.797    0.28490261071525
                0.5215   0.015194859206082
 s    8 1.00
                  6665  -0.00029326965268655
                  1000  -0.0023180354739745
                   228  -0.011499786038565
                 64.71  -0.046826727009787
                 21.06   -0.12846616875047
                 7.495   -0.30126627246289
                 2.797   -0.25563070233011
                0.5215      1.093793361012
 s    1 1.00
                0.1596                   1
 p    3 1.00
                 9.439   0.056979251590039
                 2.002    0.31320721150073
                0.5456    0.76037674173753
 p    1 1.00
                0.1517                   1
 d    1 1.00
                  0.55                   1

14 0
 s    3 1.00
                 13.01   0.033498726389998
                 1.962    0.23480080117413
                0.4446     0.8136829578829
 s    1 1.00
                 0.122                   1
 p    1 1.00
                 0.727                   1

15 0
 s    3 1.00
                 13.01   0.033498726389998
                 1.962    0.23480080117413
                0.4446     0.8136829578829
 s    1 1.00
                 0.122                   1
 p    1 1.00
                 0.727                   1

16 0
 s    8 1.00
                  6665  0.00069158396281299
                  1000  0.0053257961529341
                   228   0.027060721042034
                 64.71    0.10165684614077
                 21.06     0.2745748236174
                 7.495    0.44829431892377
                 2.797    0.28490261071525
                0.5215   0.015194859206082
 s    8 1.00
                  6665  -0.00029326965268655
                  1000  -0.0023180354739745
                   228  -0.011499786038565
                 64.71  -0.046826727009787
                 21.06   -0.12846616875047
                 7.495   -0.30126627246289
                 2.797   -0.25563070233011
                0.5215      1.093793361012
 s    1 1.00
                0.1596                   1
 p    3 1.00
                 9.439   0.056979251590039
                 2.002    0.31320721150073
                0.5456    0.76037674173753
 p    1 1.00
                0.1517                   1
 d    1 1.00
                  0.55                   1

17 0
 s    3 1.00
                 13.01   0.033498726389998
                 1.962    0.23480080117413
                0.4446     0.8136829578829
 s    1 1.00
                 0.122                   1
 p    1 1.00
                 0.727                   1

18 0
 s    3 1.00
                 13.01   0.033498726389998
                 1.962    0.23480080117413
                0.4446     0.8136829578829
 s    1 1.00
                 0.122                   1
 p    1 1.00
                 0.727                   1

19 0
 s    8 1.00
                  6665  0.00069158396281299
                  1000  0.0053257961529341
                   228   0.027060721042034
                 64.71    0.10165684614077
                 21.06     0.2745748236174
                 7.495    0.44829431892377
                 2.797    0.28490261071525
                0.5215   0.015194859206082
 s    8 1.00
                  6665  -0.00029326965268655
                  1000  -0.0023180354739745
                   228  -0.011499786038565
                 64.71  -0.046826727009787
                 21.06   -0.12846616875047
                 7.495   -0.30126627246289
                 2.797   -0.25563070233011
                0.5215      1.093793361012
 s    1 1.00
                0.1596                   1
 p    3 1.00
                 9.439   0.056979251590039
                 2.002    0.31320721150073
                0.5456    0.76037674173753
 p    1 1.00
                0.1517                   1
 d    1 1.00
                  0.55                   1

20 0
 s    3 1.00
                 13.01   0.033498726389998
                 1.962    0.23480080117413
                0.4446     0.8136829578829
 s    1 1.00
                 0.122                   1
 p    1 1.00
                 0.727                   1

21 0
 s    8 1.00
                  6665  0.00069158396281299
                  1000  0.0053257961529341
                   228   0.027060721042034
                 64.71    0.10165684614077
                 21.06     0.2745748236174
                 7.495    0.44829431892377
                 2.797    0.28490261071525
                0.5215   0.015194859206082
 s    8 1.00
                  6665  -0.00029326965268655
                  1000  -0.0023180354739745
                   228  -0.011499786038565
                 64.71  -0.046826727009787
                 21.06   -0.12846616875047
                 7.495   -0.30126627246289
                 2.797   -0.25563070233011
                0.5215      1.093793361012
 s    1 1.00
                0.1596                   1
 p    3 1.00
                 9.439   0.056979251590039
                 2.002    0.31320721150073
                0.5456    0.76037674173753
 p    1 1.00
                0.1517                   1
 d    1 1.00
                  0.55                   1

22 0
 s    3 1.00
                 13.01   0.033498726389998
                 1.962    0.23480080117413
                0.4446     0.8136829578829
 s    1 1.00
                 0.122                   1
 p    1 1.00
                 0.727                   1

23 0
 s    3 1.00
                 13.01   0.033498726389998
                 1.962    0.23480080117413
                0.4446     0.8136829578829
 s    1 1.00
                 0.122                   1
 p    1 1.00
                 0.727                   1

24 0
 s    3 1.00
                 13.01   0.033498726389998
                 1.962    0.23480080117413
                0.4446     0.8136829578829
 s    1 1.00
                 0.122                   1
 p    1 1.00
                 0.727                   1

25 0
 s    8 1.00
                  6665  0.00069158396281299
                  1000  0.0053257961529341
                   228   0.027060721042034
                 64.71    0.10165684614077
                 21.06     0.2745748236174
                 7.495    0.44829431892377
                 2.797    0.28490261071525
                0.5215   0.015194859206082
 s    8 1.00
                  6665  -0.00029326965268655
                  1000  -0.0023180354739745
                   228  -0.011499786038565
                 64.71  -0.046826727009787
                 21.06   -0.12846616875047
                 7.495   -0.30126627246289
                 2.797   -0.25563070233011
                0.5215      1.093793361012
 s    1 1.00
                0.1596                   1
 p    3 1.00
                 9.439   0.056979251590039
                 2.002    0.31320721150073
                0.5456    0.76037674173753
 p    1 1.00
                0.1517                   1
 d    1 1.00
                  0.55                   1

26 0
 s    3 1.00
                 13.01   0.033498726389998
                 1.962    0.23480080117413
                0.4446     0.8136829578829
 s    1 1.00
                 0.122                   1
 p    1 1.00
                 0.727                   1

27 0
 s    3 1.00
                 13.01   0.033498726389998
                 1.962    0.23480080117413
                0.4446     0.8136829578829
 s    1 1.00
                 0.122                   1
 p    1 1.00
                 0.727                   1

28 0
 s    8 1.00
                  6665  0.00069158396281299
                  1000  0.0053257961529341
                   228   0.027060721042034
                 64.71    0.10165684614077
                 21.06     0.2745748236174
                 7.495    0.44829431892377
                 2.797    0.28490261071525
                0.5215   0.015194859206082
 s    8 1.00
                  6665  -0.00029326965268655
                  1000  -0.0023180354739745
                   228  -0.011499786038565
                 64.71  -0.046826727009787
                 21.06   -0.12846616875047
                 7.495   -0.30126627246289
                 2.797   -0.25563070233011
                0.5215      1.093793361012
 s    1 1.00
                0.1596                   1
 p    3 1.00
                 9.439   0.056979251590039
                 2.002    0.31320721150073
                0.5456    0.76037674173753
 p    1 1.00
                0.1517                   1
 d    1 1.00
                  0.55                   1

29 0
 s    3 1.00
                 13.01   0.033498726389998
                 1.962    0.23480080117413
                0.4446     0.8136829578829
 s    1 1.00
                 0.122                   1
 p    1 1.00
                 0.727                   1

30 0
 s    3 1.00
                 13.01   0.033498726389998
                 1.962    0.23480080117413
                0.4446     0.8136829578829
 s    1 1.00
                 0.122                   1
 p    1 1.00
                 0.727                   1

31 0
 s    8 1.00
                  6665  0.00069158396281299
                  1000  0.0053257961529341
                   228   0.027060721042034
                 64.71    0.10165684614077
                 21.06     0.2745748236174
                 7.495    0.44829431892377
                 2.797    0.28490261071525
                0.5215   0.015194859206082
 s    8 1.00
                  6665  -0.00029326965268655
                  1000  -0.0023180354739745
                   228  -0.011499786038565
                 64.71  -0.046826727009787
                 21.06   -0.12846616875047
                 7.495   -0.30126627246289
                 2.797   -0.25563070233011
                0.5215      1.093793361012
 s    1 1.00
                0.1596                   1
 p    3 1.00
                 9.439   0.056979251590039
                 2.002    0.31320721150073
                0.5456    0.76037674173753
 p    1 1.00
                0.1517                   1
 d    1 1.00
                  0.55                   1

32 0
 s    3 1.00
                 13.01   0.033498726389998
                 1.962    0.23480080117413
                0.4446     0.8136829578829
 s    1 1.00
                 0.122                   1
 p    1 1.00
                 0.727                   1

33 0
 s    3 1.00
                 13.01   0.033498726389998
                 1.962    0.23480080117413
                0.4446     0.8136829578829
 s    1 1.00
                 0.122                   1
 p    1 1.00
                 0.727                   1

34 0
 s    3 1.00
                 13.01   0.033498726389998
                 1.962    0.23480080117413
                0.4446     0.8136829578829
 s    1 1.00
                 0.122                   1
 p    1 1.00
                 0.727                   1

35 0
 s    3 1.00
                 13.01   0.033498726389998
                 1.962    0.23480080117413
                0.4446     0.8136829578829
 s    1 1.00
                 0.122                   1
 p    1 1.00
                 0.727                   1

36 0
 s    3 1.00
                 13.01   0.033498726389998
                 1.962    0.23480080117413
                0.4446     0.8136829578829
 s    1 1.00
                 0.122                   1
 p    1 1.00
                 0.727                   1

37 0
 s    3 1.00
                 13.01   0.033498726389998
                 1.962    0.23480080117413
                0.4446     0.8136829578829
 s    1 1.00
                 0.122                   1
 p    1 1.00
                 0.727                   1

[5d]
[7f]
[9g]

[MO]
 Sym= A
 Ene=               0
 Spin= Alpha
 Occup=    1.00000
   1    4.6141979700042e-06
   2    9.0754821176538e-06
   3    -1.9121913627292e-05
   4    1.6393752670508e-06
   5    -1.3481229810976e-06
   6    1.1195816776619e-07
   7    -1.1345446056965e-06
   8    -1.2945051517513e-06
   9    2.8410831733411e-06
  10    3.6641605403054e-07
  11    -8.0892734331598e-07
  12    2.1043473060848e-07
  13    2.6736534290259e-07
  14    -1.3134746734832e-07
  15    3.3614611539648e-06
  16    2.1890095268754e-05
  17    -4.5788995089397e-06
  18    2.2781302938679e-06
  19    -3.6574198790419e-06
  20    2.1646642876655e-07
  21    8.7476899156185e-06
  22    -1.1193199382156e-07
  23    -2.5775749423142e-06
  24    -6.3132738317144e-07
  25    2.4455976559103e-06
  26    1.2306102948699e-05
  27    7.302876909459e-05
  28    -2.5794979153886e-05
  29    7.0419434614478e-06
  30    -1.1545882804991e-05
  31    6.4301058515793e-05
  32    -4.5671287767818e-05
  33    -6.090717637739e-05
  34    6.1194979905638e-07
  35    2.2480116469436e-06
  36    -6.1373845123439e-07
  37    -1.5225612975192e-06
  38    2.8690343956445e-06
  39    0.0001082755129534
  40    0.00023776729140216
  41    -0.0009183613093398
  42    -6.4479907562555e-05
  43     5.50154888986e-05
  44    -7.4580345843187e-05
  45    -0.00034284037658354
  46    0.0002593129411095
  47    0.00016743636560853
  48    4.4641627351758e-06
  49    4.4557344153812e-05
  50    -2.638328669096e-05
  51    -8.7136132549398e-06
  52    3.259263353978e-05
  53     2.19602540964e-05
  54    0.00012603627774756
  55    0.00024278732497952
  56    0.00011085642528954
  57    9.0079365314141e-05
  58    -0.00012275193185972
  59    -0.00067033300417656
  60    0.00021238329187384
  61    0.00045807992362514
  62    3.475106623065e-06
  63    -3.7811807488882e-05
  64    2.3786791285458e-05
  65    3.0672423764902e-05
  66    -2.8218892696484e-05
  67    0.00013461852369506
  68    0.00014098807917855
  69    0.00064982368250951
  70    1.0255252904782e-05
  71    -3.2718522054685e-05
  72    0.00010131727584121
  73    -0.00027394030089742
  74    0.00012679704461858
  75    0.00027729312027869
  76    1.3285007699162e-05
  77    -7.7556376796045e-05
  78    4.9194768467046e-05
  79    3.8558055620419e-05
  80    -2.665753820755e-05
  81    3.4927197975214e-05
  82    -7.3413246015606e-06
  83    2.0532720056469e-05
  84    -7.0916461732229e-06
  85    -2.7196731647417e-05
  86    0.00037225215382614
  87    0.00075775385055179
  88    -0.00052203701926808
  89    0.00045918830651095
  90    -0.00035832455802158
  91    -0.00026722271694742
  92    -0.00040657756904889
  93    -0.00025966765668685
  94    0.00045215202922694
  95    -5.5611788049042e-06
  96    -3.3210843761834e-06
  97    -4.7873725072329e-05
  98    4.9798580882724e-05
  99    1.8072788484325e-05
 100    -1.8239139114931e-05
 101    -0.00010686646310765
 102    3.549678030298e-05
 103    -1.0161681366279e-05
 104    -1.7269369960395e-05
 105    9.3339785068219e-05
 106    0.00012418841579536
 107    1.578431500332e-05
 108    8.3913396580712e-06
 109    -4.8189692762183e-06
 110    3.3772313906403e-05
 111    -8.5408373147832e-05
 112    1.3284500564202e-06
 113    -8.9074525104243e-06
 114    -8.4432155581156e-06
 115    -0.055317151382441
 116    0.0008352255560252
 117    -0.00016607662725296
 118    0.00019592224058694
 119    -0.00020269232372631
 120    0.00072995051364133
 121    -6.5236313840775e-05
 122    -6.9698874441165e-05
 123    0.00085120846401692
 124    7.7320861260263e-05
 125    6.6011284735436e-05
 126    4.6231519907853e-05
 127    4.4620603832661e-05
 128    6.3446655477599e-05
 129    -1.1512605070842e-05
 130    -0.00014345335098726
 131    3.5953188639965e-05
 132    -1.0696292850344e-05
 133    -6.0121567992775e-05
 134    0.00014032894716776
 135    0.0001781846746058
 136    5.9824406302289e-05
 137    -5.0823532241583e-06
 138    -1.770549825532e-05
 139    -0.034985880581557
 140    -0.00086894334347922
 141    -0.0015916595167104
 142    1.7730103216034e-05
 143    0.0018175279006719
 144    0.00088520013761498
 145    -0.0013138114778985
 146    0.00068109073592966
 147    0.0016551618928729
 148    -2.0056340451688e-05
 149    -0.00010418692273153
 150    -0.0001054752998288
 151    1.5436753952984e-05
 152    -3.0199182135259e-05
 153    0.0011675695536883
 154    0.00028707607362514
 155    -8.5290033075899e-06
 156    -7.4870348633751e-05
 157    -7.9605447135942e-05
 158    0.00078792597421587
 159    -0.00018001615894494
 160    9.4733012040962e-05
 161    6.6148242880868e-05
 162    -3.6882433702397e-05
 163     -0.21056553664921
 164    -0.0015688603772292
 165    0.0033890024011244
 166    -0.0003754877923165
 167    -0.0020069969692622
 168    -0.0012819339209224
 169    -0.0005072037535672
 170    -0.00092808653268384
 171    0.00010655624502138
 172    2.9522612152249e-05
 173    0.0002385711279553
 174    6.1846253688185e-05
 175    -3.5607489008909e-05
 176    -3.1485464677998e-05
 177    -0.00035870409586141
 178    -7.1182148881143e-05
 179    7.4869896451039e-05
 180    -1.3276904831695e-05
 181    3.0478826961557e-05
 182     -0.52013192828812
 183    -0.0018190819567265
 184    0.0055636260072409
 185    -9.566802552641e-05
 186    0.00096728622492239
 187    0.00054939491044048
 188    -0.00075153581945642
 189    3.2061605927709e-05
 190    0.00099272484085706
 191    1.6801562376863e-05
 192    -0.0002219174529508
 193    2.335091239786e-05
 194    4.8253317037641e-05
 195    -8.4724781002009e-05
 196    -0.0020147429414071
 197    -0.00070523805877238
 198    -1.9748932612816e-05
 199    -0.00015231490321694
 200    -9.4029375934837e-05
 201    0.0018981303150165
 202    0.00087753329176361
 203    4.6021578452372e-05
 204    0.00013248754152659
 205    0.00015761275107371
 206    -0.0014248341552974
 207    -0.00070850291029194
 208    -5.8564265977805e-05
 209    -3.3968162062139e-05
 210    -6.1274839061322e-05
 211        0.471804117043
 212    0.0022519677346207
 213    -0.0068014111979699
 214    -0.0010756996712274
 215    0.0010370166358502
 216    0.00041745636541313
 217    -0.0007666129901733
 218    0.0004722460117316
 219    0.00099616680604422
 220    8.5095558465746e-05
 221    0.00014723144155607
 222    3.8833791554867e-05
 223    -0.00014590455781179
 224    5.8051587545715e-05
 225     0.001236678361956
 226    -0.00040797738595586
 227    -0.00016689449836398
 228    -0.00021332490661972
 229    -0.00018978325019879
 230    0.00045746799578366
 231    -0.00064780820336438
 232    0.00017485781971727
 233    -1.1250311365428e-05
 234    0.00021903073883671
 235     -0.64725812710351
 236    -0.0030984653519666
 237    0.0049855954065634
 238    -3.8316885577366e-05
 239    -0.00048149485614994
 240    -1.5248500034417e-05
 241    -0.00022126461080179
 242    -0.00044776815875016
 243    0.0001983349233116
 244    -5.5434539790563e-05
 245    -0.00011221324994989
 246    0.00016233288654446
 247    3.4614264096833e-05
 248    -0.00019369369305839
 249    0.00064819254049963
 250    0.00096961570501264
 251    6.5496605164712e-05
 252    0.0001511082014563
 253    0.00013888146552304
 254    -0.00026000653905565
 255    0.00025899081624429
 256    -0.00013890776827543
 257    -0.0001729793566071
 258    0.00010646041270675
 259     -0.21033586298246
 260    -0.00081250535536624
 261    0.0034376189399891
 262    0.0009056903578948
 263    -0.00036278677514393
 264    0.00033638239598058