[Molden Format]
made by pyscf v[2.0.1]
[Atoms] (AU)
O   1   8     0.00000000000000     0.00000000000000     6.40640788651141
H   2   1     0.00000000000000     0.00000000000000     4.58300606461044
H   3   1    -0.05031916615174     1.78353439551780     6.78227958297808
O   4   8     0.00000000000000     0.00000000000000     2.31533471513237
C   5   6     0.00000000000000     0.00000000000000     0.00000000000000
C   6   6     2.01118073026938    -1.40227222164369    -1.50774939176400
C   7   6    -2.01249334291722     1.41331050329955    -1.50319235519811
H   8   1     3.32037363730244    -2.26721897153159    -0.13599698591495
C   9   6     3.45899267434009     0.28739631745591    -3.37437943254505
H   10   1     1.07662969841332    -2.94725144642667    -2.56541439481080
H   11   1    -2.67503415753480     0.18421555839588    -3.06194479365997
H   12   1    -1.08005520873877     3.03851734677796    -2.43674295017013
C   13   6    -4.21607110578555     2.32938802552922     0.11994192435017
H   14   1     4.24440173074564     1.93368664387684    -2.34976285512790
H   15   1     2.18907033049676     1.04714335134846    -4.81494497423699
C   16   6     5.60746363007797    -1.12419643481196    -4.70268606082550
H   17   1    -3.46838323670267     3.50951302338067     1.66946842715333
H   18   1    -5.11873485366228     0.68575958301209     1.04047743976495
C   19   6    -6.18314754751344     3.80909592987882    -1.39656589068747
H   20   1     6.93011263717176    -1.87550812453645    -3.26656317360070
C   21   6     7.10306991577580     0.52877932406334    -6.57829775293605
H   22   1     4.82318879258361    -2.78573437948532    -5.70504560381835
H   23   1    -6.91582688743803     2.61304780074712    -2.95074552451969
H   24   1    -5.26532430573853     5.45420349051338    -2.31005832200284
C   25   6    -8.39941882261433     4.73263980500213     0.21800571437956
H   26   1     7.83338371486801     2.19084139882824    -5.57093109900697
H   27   1     5.73544244039420     1.27376866537418    -8.01071492370229
C   28   6     9.21124858443101    -0.89699110072176    -7.88926949186242
H   29   1    -7.66272760055236     5.92277078003992     1.77035591474408
H   30   1    -9.31497248082589     3.08753015622020     1.12614408368786
C   31   6   -10.35481709231879     6.21833079391143    -1.30905206253246
H   32   1    10.58815905329501    -1.61099162890610    -6.52093739071026
H   33   1    10.23506248045667     0.32468009384095    -9.23072870921204
H   34   1     8.47665842847139    -2.53598436989925    -8.94921964622535
H   35   1    -9.48948872868064     7.90013588951020    -2.18823918416067
H   36   1   -11.93332774482359     6.86460487874102    -0.11255798845995
H   37   1   -11.15126291841033     5.04495968327630    -2.83849898862534
[GTO]
1 0
 s    8 1.00
                 11720  0.00070964594651845
                  1759  0.0054672722921914
                 400.8   0.027823118610189
                 113.7    0.10474773971146
                 37.03    0.28292084635691
                 13.27    0.44849523869833
                 5.025    0.27081688521277
                 1.013    0.01545029160744
 s    8 1.00
                 11720  -0.00031444341168873
                  1759  -0.0024821376810179
                 400.8  -0.012316355381583
                 113.7  -0.050538917343672
                 37.03   -0.13938490331632
                 13.27   -0.32507749481778
                 5.025   -0.22984830758785
                 1.013     1.0953793467883
 s    1 1.00
                0.3023                   1
 p    3 1.00
                  17.7   0.062679166281506
                 3.854    0.33353656587936
                 1.046    0.74123964163973
 p    1 1.00
                0.2753                   1
 d    1 1.00
                 1.185                   1

2 0
 s    3 1.00
                 13.01   0.033498726389998
                 1.962    0.23480080117413
                0.4446     0.8136829578829
 s    1 1.00
                 0.122                   1
 p    1 1.00
                 0.727                   1

3 0
 s    3 1.00
                 13.01   0.033498726389998
                 1.962    0.23480080117413
                0.4446     0.8136829578829
 s    1 1.00
                 0.122                   1
 p    1 1.00
                 0.727                   1

4 0
 s    8 1.00
                 11720  0.00070964594651845
                  1759  0.0054672722921914
                 400.8   0.027823118610189
                 113.7    0.10474773971146
                 37.03    0.28292084635691
                 13.27    0.44849523869833
                 5.025    0.27081688521277
                 1.013    0.01545029160744
 s    8 1.00
                 11720  -0.00031444341168873
                  1759  -0.0024821376810179
                 400.8  -0.012316355381583
                 113.7  -0.050538917343672
                 37.03   -0.13938490331632
                 13.27   -0.32507749481778
                 5.025   -0.22984830758785
                 1.013     1.0953793467883
 s    1 1.00
                0.3023                   1
 p    3 1.00
                  17.7   0.062679166281506
                 3.854    0.33353656587936
                 1.046    0.74123964163973
 p    1 1.00
                0.2753                   1
 d    1 1.00
                 1.185                   1

5 0
 s    8 1.00
                  6665  0.00069158396281299
                  1000  0.0053257961529341
                   228   0.027060721042034
                 64.71    0.10165684614077
                 21.06     0.2745748236174
                 7.495    0.44829431892377
                 2.797    0.28490261071525
                0.5215   0.015194859206082
 s    8 1.00
                  6665  -0.00029326965268655
                  1000  -0.0023180354739745
                   228  -0.011499786038565
                 64.71  -0.046826727009787
                 21.06   -0.12846616875047
                 7.495   -0.30126627246289
                 2.797   -0.25563070233011
                0.5215      1.093793361012
 s    1 1.00
                0.1596                   1
 p    3 1.00
                 9.439   0.056979251590039
                 2.002    0.31320721150073
                0.5456    0.76037674173753
 p    1 1.00
                0.1517                   1
 d    1 1.00
                  0.55                   1

6 0
 s    8 1.00
                  6665  0.00069158396281299
                  1000  0.0053257961529341
                   228   0.027060721042034
                 64.71    0.10165684614077
                 21.06     0.2745748236174
                 7.495    0.44829431892377
                 2.797    0.28490261071525
                0.5215   0.015194859206082
 s    8 1.00
                  6665  -0.00029326965268655
                  1000  -0.0023180354739745
                   228  -0.011499786038565
                 64.71  -0.046826727009787
                 21.06   -0.12846616875047
                 7.495   -0.30126627246289
                 2.797   -0.25563070233011
                0.5215      1.093793361012
 s    1 1.00
                0.1596                   1
 p    3 1.00
                 9.439   0.056979251590039
                 2.002    0.31320721150073
                0.5456    0.76037674173753
 p    1 1.00
                0.1517                   1
 d    1 1.00
                  0.55                   1

7 0
 s    8 1.00
                  6665  0.00069158396281299
                  1000  0.0053257961529341
                   228   0.027060721042034
                 64.71    0.10165684614077
                 21.06     0.2745748236174
                 7.495    0.44829431892377
                 2.797    0.28490261071525
                0.5215   0.015194859206082
 s    8 1.00
                  6665  -0.00029326965268655
                  1000  -0.0023180354739745
                   228  -0.011499786038565
                 64.71  -0.046826727009787
                 21.06   -0.12846616875047
                 7.495   -0.30126627246289
                 2.797   -0.25563070233011
                0.5215      1.093793361012
 s    1 1.00
                0.1596                   1
 p    3 1.00
                 9.439   0.056979251590039
                 2.002    0.31320721150073
                0.5456    0.76037674173753
 p    1 1.00
                0.1517                   1
 d    1 1.00
                  0.55                   1

8 0
 s    3 1.00
                 13.01   0.033498726389998
                 1.962    0.23480080117413
                0.4446     0.8136829578829
 s    1 1.00
                 0.122                   1
 p    1 1.00
                 0.727                   1

9 0
 s    8 1.00
                  6665  0.00069158396281299
                  1000  0.0053257961529341
                   228   0.027060721042034
                 64.71    0.10165684614077
                 21.06     0.2745748236174
                 7.495    0.44829431892377
                 2.797    0.28490261071525
                0.5215   0.015194859206082
 s    8 1.00
                  6665  -0.00029326965268655
                  1000  -0.0023180354739745
                   228  -0.011499786038565
                 64.71  -0.046826727009787
                 21.06   -0.12846616875047
                 7.495   -0.30126627246289
                 2.797   -0.25563070233011
                0.5215      1.093793361012
 s    1 1.00
                0.1596                   1
 p    3 1.00
                 9.439   0.056979251590039
                 2.002    0.31320721150073
                0.5456    0.76037674173753
 p    1 1.00
                0.1517                   1
 d    1 1.00
                  0.55                   1

10 0
 s    3 1.00
                 13.01   0.033498726389998
                 1.962    0.23480080117413
                0.4446     0.8136829578829
 s    1 1.00
                 0.122                   1
 p    1 1.00
                 0.727                   1

11 0
 s    3 1.00
                 13.01   0.033498726389998
                 1.962    0.23480080117413
                0.4446     0.8136829578829
 s    1 1.00
                 0.122                   1
 p    1 1.00
                 0.727                   1

12 0
 s    3 1.00
                 13.01   0.033498726389998
                 1.962    0.23480080117413
                0.4446     0.8136829578829
 s    1 1.00
                 0.122                   1
 p    1 1.00
                 0.727                   1

13 0
 s    8 1.00
                  6665  0.00069158396281299
                  1000  0.0053257961529341
                   228   0.027060721042034
                 64.71    0.10165684614077
                 21.06     0.2745748236174
                 7.495    0.44829431892377
                 2.797    0.28490261071525
                0.5215   0.015194859206082
 s    8 1.00
                  6665  -0.00029326965268655
                  1000  -0.0023180354739745
                   228  -0.011499786038565
                 64.71  -0.046826727009787
                 21.06   -0.12846616875047
                 7.495   -0.30126627246289
                 2.797   -0.25563070233011
                0.5215      1.093793361012
 s    1 1.00
                0.1596                   1
 p    3 1.00
                 9.439   0.056979251590039
                 2.002    0.31320721150073
                0.5456    0.76037674173753
 p    1 1.00
                0.1517                   1
 d    1 1.00
                  0.55                   1

14 0
 s    3 1.00
                 13.01   0.033498726389998
                 1.962    0.23480080117413
                0.4446     0.8136829578829
 s    1 1.00
                 0.122                   1
 p    1 1.00
                 0.727                   1

15 0
 s    3 1.00
                 13.01   0.033498726389998
                 1.962    0.23480080117413
                0.4446     0.8136829578829
 s    1 1.00
                 0.122                   1
 p    1 1.00
                 0.727                   1

16 0
 s    8 1.00
                  6665  0.00069158396281299
                  1000  0.0053257961529341
                   228   0.027060721042034
                 64.71    0.10165684614077
                 21.06     0.2745748236174
                 7.495    0.44829431892377
                 2.797    0.28490261071525
                0.5215   0.015194859206082
 s    8 1.00
                  6665  -0.00029326965268655
                  1000  -0.0023180354739745
                   228  -0.011499786038565
                 64.71  -0.046826727009787
                 21.06   -0.12846616875047
                 7.495   -0.30126627246289
                 2.797   -0.25563070233011
                0.5215      1.093793361012
 s    1 1.00
                0.1596                   1
 p    3 1.00
                 9.439   0.056979251590039
                 2.002    0.31320721150073
                0.5456    0.76037674173753
 p    1 1.00
                0.1517                   1
 d    1 1.00
                  0.55                   1

17 0
 s    3 1.00
                 13.01   0.033498726389998
                 1.962    0.23480080117413
                0.4446     0.8136829578829
 s    1 1.00
                 0.122                   1
 p    1 1.00
                 0.727                   1

18 0
 s    3 1.00
                 13.01   0.033498726389998
                 1.962    0.23480080117413
                0.4446     0.8136829578829
 s    1 1.00
                 0.122                   1
 p    1 1.00
                 0.727                   1

19 0
 s    8 1.00
                  6665  0.00069158396281299
                  1000  0.0053257961529341
                   228   0.027060721042034
                 64.71    0.10165684614077
                 21.06     0.2745748236174
                 7.495    0.44829431892377
                 2.797    0.28490261071525
                0.5215   0.015194859206082
 s    8 1.00
                  6665  -0.00029326965268655
                  1000  -0.0023180354739745
                   228  -0.011499786038565
                 64.71  -0.046826727009787
                 21.06   -0.12846616875047
                 7.495   -0.30126627246289
                 2.797   -0.25563070233011
                0.5215      1.093793361012
 s    1 1.00
                0.1596                   1
 p    3 1.00
                 9.439   0.056979251590039
                 2.002    0.31320721150073
                0.5456    0.76037674173753
 p    1 1.00
                0.1517                   1
 d    1 1.00
                  0.55                   1

20 0
 s    3 1.00
                 13.01   0.033498726389998
                 1.962    0.23480080117413
                0.4446     0.8136829578829
 s    1 1.00
                 0.122                   1
 p    1 1.00
                 0.727                   1

21 0
 s    8 1.00
                  6665  0.00069158396281299
                  1000  0.0053257961529341
                   228   0.027060721042034
                 64.71    0.10165684614077
                 21.06     0.2745748236174
                 7.495    0.44829431892377
                 2.797    0.28490261071525
                0.5215   0.015194859206082
 s    8 1.00
                  6665  -0.00029326965268655
                  1000  -0.0023180354739745
                   228  -0.011499786038565
                 64.71  -0.046826727009787
                 21.06   -0.12846616875047
                 7.495   -0.30126627246289
                 2.797   -0.25563070233011
                0.5215      1.093793361012
 s    1 1.00
                0.1596                   1
 p    3 1.00
                 9.439   0.056979251590039
                 2.002    0.31320721150073
                0.5456    0.76037674173753
 p    1 1.00
                0.1517                   1
 d    1 1.00
                  0.55                   1

22 0
 s    3 1.00
                 13.01   0.033498726389998
                 1.962    0.23480080117413
                0.4446     0.8136829578829
 s    1 1.00
                 0.122                   1
 p    1 1.00
                 0.727                   1

23 0
 s    3 1.00
                 13.01   0.033498726389998
                 1.962    0.23480080117413
                0.4446     0.8136829578829
 s    1 1.00
                 0.122                   1
 p    1 1.00
                 0.727                   1

24 0
 s    3 1.00
                 13.01   0.033498726389998
                 1.962    0.23480080117413
                0.4446     0.8136829578829
 s    1 1.00
                 0.122                   1
 p    1 1.00
                 0.727                   1

25 0
 s    8 1.00
                  6665  0.00069158396281299
                  1000  0.0053257961529341
                   228   0.027060721042034
                 64.71    0.10165684614077
                 21.06     0.2745748236174
                 7.495    0.44829431892377
                 2.797    0.28490261071525
                0.5215   0.015194859206082
 s    8 1.00
                  6665  -0.00029326965268655
                  1000  -0.0023180354739745
                   228  -0.011499786038565
                 64.71  -0.046826727009787
                 21.06   -0.12846616875047
                 7.495   -0.30126627246289
                 2.797   -0.25563070233011
                0.5215      1.093793361012
 s    1 1.00
                0.1596                   1
 p    3 1.00
                 9.439   0.056979251590039
                 2.002    0.31320721150073
                0.5456    0.76037674173753
 p    1 1.00
                0.1517                   1
 d    1 1.00
                  0.55                   1

26 0
 s    3 1.00
                 13.01   0.033498726389998
                 1.962    0.23480080117413
                0.4446     0.8136829578829
 s    1 1.00
                 0.122                   1
 p    1 1.00
                 0.727                   1

27 0
 s    3 1.00
                 13.01   0.033498726389998
                 1.962    0.23480080117413
                0.4446     0.8136829578829
 s    1 1.00
                 0.122                   1
 p    1 1.00
                 0.727                   1

28 0
 s    8 1.00
                  6665  0.00069158396281299
                  1000  0.0053257961529341
                   228   0.027060721042034
                 64.71    0.10165684614077
                 21.06     0.2745748236174
                 7.495    0.44829431892377
                 2.797    0.28490261071525
                0.5215   0.015194859206082
 s    8 1.00
                  6665  -0.00029326965268655
                  1000  -0.0023180354739745
                   228  -0.011499786038565
                 64.71  -0.046826727009787
                 21.06   -0.12846616875047
                 7.495   -0.30126627246289
                 2.797   -0.25563070233011
                0.5215      1.093793361012
 s    1 1.00
                0.1596                   1
 p    3 1.00
                 9.439   0.056979251590039
                 2.002    0.31320721150073
                0.5456    0.76037674173753
 p    1 1.00
                0.1517                   1
 d    1 1.00
                  0.55                   1

29 0
 s    3 1.00
                 13.01   0.033498726389998
                 1.962    0.23480080117413
                0.4446     0.8136829578829
 s    1 1.00
                 0.122                   1
 p    1 1.00
                 0.727                   1

30 0
 s    3 1.00
                 13.01   0.033498726389998
                 1.962    0.23480080117413
                0.4446     0.8136829578829
 s    1 1.00
                 0.122                   1
 p    1 1.00
                 0.727                   1

31 0
 s    8 1.00
                  6665  0.00069158396281299
                  1000  0.0053257961529341
                   228   0.027060721042034
                 64.71    0.10165684614077
                 21.06     0.2745748236174
                 7.495    0.44829431892377
                 2.797    0.28490261071525
                0.5215   0.015194859206082
 s    8 1.00
                  6665  -0.00029326965268655
                  1000  -0.0023180354739745
                   228  -0.011499786038565
                 64.71  -0.046826727009787
                 21.06   -0.12846616875047
                 7.495   -0.30126627246289
                 2.797   -0.25563070233011
                0.5215      1.093793361012
 s    1 1.00
                0.1596                   1
 p    3 1.00
                 9.439   0.056979251590039
                 2.002    0.31320721150073
                0.5456    0.76037674173753
 p    1 1.00
                0.1517                   1
 d    1 1.00
                  0.55                   1

32 0
 s    3 1.00
                 13.01   0.033498726389998
                 1.962    0.23480080117413
                0.4446     0.8136829578829
 s    1 1.00
                 0.122                   1
 p    1 1.00
                 0.727                   1

33 0
 s    3 1.00
                 13.01   0.033498726389998
                 1.962    0.23480080117413
                0.4446     0.8136829578829
 s    1 1.00
                 0.122                   1
 p    1 1.00
                 0.727                   1

34 0
 s    3 1.00
                 13.01   0.033498726389998
                 1.962    0.23480080117413
                0.4446     0.8136829578829
 s    1 1.00
                 0.122                   1
 p    1 1.00
                 0.727                   1

35 0
 s    3 1.00
                 13.01   0.033498726389998
                 1.962    0.23480080117413
                0.4446     0.8136829578829
 s    1 1.00
                 0.122                   1
 p    1 1.00
                 0.727                   1

36 0
 s    3 1.00
                 13.01   0.033498726389998
                 1.962    0.23480080117413
                0.4446     0.8136829578829
 s    1 1.00
                 0.122                   1
 p    1 1.00
                 0.727                   1

37 0
 s    3 1.00
                 13.01   0.033498726389998
                 1.962    0.23480080117413
                0.4446     0.8136829578829
 s    1 1.00
                 0.122                   1
 p    1 1.00
                 0.727                   1

[5d]
[7f]
[9g]

[MO]
 Sym= A
 Ene=               0
 Spin= Alpha
 Occup=    1.00000
   1    -8.1614044160797e-06
   2    -1.6359095325011e-05
   3    3.3431296198446e-05
   4    -4.4917846030427e-06
   5    3.0782651697429e-06
   6    -1.0038633859723e-06
   7    1.9156540073245e-06
   8    4.1967028661035e-06
   9    -2.1302674524863e-06
  10    -4.8025260608302e-07
  11    1.0849256065038e-06
  12    -2.2708517359686e-07
  13    -5.582677615949e-07
  14    3.1688511409953e-07
  15    -4.8729980554597e-06
  16    -4.2167715289916e-05
  17    7.5247769990683e-06
  18    -3.2996487221698e-06
  19    2.6870183411736e-06
  20    -6.249174877723e-07
  21    -1.9089790606089e-05
  22    5.3038160409929e-07
  23    5.2983793300557e-06
  24    1.7378387329255e-06
  25    -1.1284224334316e-05
  26    -2.8556699137938e-05
  27    -5.9803596357802e-05
  28    3.4595868095545e-05
  29    -1.1424495074941e-05
  30    1.727227330938e-05
  31    -5.3192430737328e-05
  32    4.1942330849375e-05
  33    6.7516615500249e-05
  34    1.9658386277566e-06
  35    -4.0194475006969e-06
  36    2.1161367383076e-06
  37    2.2262447540228e-06
  38    -9.7823680535063e-07
  39    -0.00010029860725028
  40    -0.00023858965640722
  41    0.0008282681202793
  42    7.8134231002986e-05
  43    -6.9523523991986e-05
  44    9.6892876957211e-05
  45    0.00038036083232296
  46    -0.0002734331133569
  47    -0.0001699969487537
  48    -1.572251468581e-05
  49    -4.5878775500697e-05
  50    2.6565570429281e-05
  51    6.0689116861949e-06
  52    -3.3000723634861e-05
  53    -2.598161831626e-05
  54    -0.00014914061826723
  55    -0.00034473371889896
  56    -0.00013277858389015
  57    -0.00012928368552483
  58    0.00015491898390146
  59    0.00060111564981926
  60    -0.00028204425083165
  61    -0.00034515644207215
  62    -2.922111070887e-06
  63    3.3343876365644e-05
  64    -2.3430317825955e-05
  65    -3.5163426337351e-05
  66    2.913073636935e-05
  67    -7.6894398705329e-05
  68    -2.7476147377308e-05
  69    -0.00061641848071374
  70    -1.6745876863347e-05
  71    6.0693446808493e-05
  72    -0.0001250045852484
  73    0.00029736792145344
  74    -9.9352616626741e-05
  75    -0.00027134868455205
  76    -1.3397333854975e-05
  77    0.00010828020321167
  78    -0.00010764253994982
  79    -3.7433126081254e-05
  80    8.6426782812111e-05
  81    -3.5077889215455e-05
  82    -5.3791872027377e-05
  83    -1.8501122456576e-05
  84    5.9567273118746e-06
  85    2.931012064959e-05
  86    -0.0002641493058844
  87    -0.00062390503029195
  88    0.00063482828725748
  89    -0.0005258116275432
  90    0.00044163492677618
  91    0.00029237219990428
  92    0.00036653685640417
  93    0.00031274011295102
  94    -0.00044925334141967
  95    -8.6158484577682e-06
  96    6.4724931630847e-05
  97    3.4299381133542e-05
  98    -8.9438806390507e-05
  99    -9.5176994767964e-06
 100    3.0630874969993e-05
 101    8.4689772220367e-05
 102    -3.752663022608e-05
 103    8.3283154540346e-06
 104    1.5118931262357e-05
 105    -0.00010837866536626
 106    -0.00021503397977086
 107    -2.1467223883732e-05
 108    2.2871180528465e-06
 109    1.1361285072046e-05
 110    0.00012156604453774
 111    0.00018984786687836
 112    -1.3404464952862e-05
 113    1.4847265245102e-05
 114    1.6788118524609e-05
 115     0.086033307540915
 116    -0.0022263537232122
 117    -0.0011965421555591
 118    1.4860946092219e-05
 119    -0.0011431754784241
 120    -0.0010993831170537
 121    0.00025145259967558
 122    -0.00064277562029155
 123    -0.0010416235333574
 124    -7.9319982087883e-05
 125    -0.00013534078854537
 126    -4.4162250289655e-05
 127    -3.0375657273975e-05
 128    -5.9895816856094e-06
 129    0.0001574064926814
 130    0.00022482988648427
 131    -3.398288110329e-05
 132    -1.1554317294533e-06
 133    4.8881747848839e-05
 134    1.3224965968129e-05
 135    -0.0001069703747485
 136    -4.4269313430602e-05
 137    -2.3065067712964e-06
 138    1.9302181139545e-05
 139      0.10004064183747
 140    0.00035991600330525
 141    0.00018016437514775
 142    -0.0004992687550838
 143    -0.0026487463100508
 144    -7.459850951095e-06
 145    0.00084202294940949
 146    -0.0010852146821873
 147    -0.0010518877101872
 148    5.0259812218223e-06
 149    0.00020682559050445
 150    0.0001949644285646
 151    -1.3425306337208e-06
 152    -1.7851969516307e-05
 153     -0.00273635489946
 154    -0.00051926423201701
 155    6.0922079143826e-05
 156    0.00015627805203301
 157    0.00021502838407802
 158    -0.0008404542443311
 159    0.00041190332917101
 160    -0.00012367612941966
 161    -0.00012896445142361
 162    4.570336277884e-05
 163      0.23708335766754
 164    0.0013916968287298
 165    -0.0045383705778628
 166    -0.00076386966466036
 167    0.0017444535022916
 168    0.00023175673248502
 169    0.00035998364940345
 170    0.0006302510596478
 171    -0.00078035341834901
 172    -8.0653957928915e-06
 173    -0.00033650263973848
 174    5.4448987206845e-05
 175    -2.1320220854104e-05
 176    9.6462129255984e-05
 177    0.00047622790377819
 178    0.00036861400908487
 179    -4.4832911369232e-05
 180    -2.0016126403209e-05
 181    -4.4371400667764e-06
 182      0.58156652229232
 183    0.0017536468565788
 184    -0.0067540272319815
 185    0.0012451705046639
 186    -0.00028599078433904
 187    -0.0013819135072321
 188     0.001013360623745
 189    0.00042284082265262
 190    -0.0011091930468676
 191    -6.3181429969539e-05
 192    0.00025993629254053
 193    0.00012369957528344
 194    -5.0618140436936e-05
 195    -3.4862521650276e-05
 196     0.001990355653227
 197    0.00096981814904806
 198    1.1567690911208e-05
 199    8.9291507190675e-05
 200    7.5995887139799e-05
 201    -0.00088158009706797
 202    -0.000440004951113
 203    -4.9350930167988e-05
 204    -0.00010264575017225
 205    -0.00013253875457248
 206    0.0010613890947955
 207    0.00063946705726106
 208    6.3944453230602e-05
 209    7.0044788768902e-05
 210    7.4443929394285e-06
 211     -0.65041505690301
 212    -0.0032139277695907
 213    0.0089781758507442
 214     0.001327982128163
 215    -0.00096321645740465
 216    -0.00027616534949511
 217    0.0011977002873103
 218    -0.0005338150946208
 219    -0.0011390905056402
 220    -4.4760238425505e-05
 221    -0.00015895621043894
 222    -4.6622746205953e-07
 223    0.00013616346214731
 224    -0.00010420453409629
 225    -0.00088798603035849
 226    0.00068737052295254
 227    0.00018196505144038
 228    0.0002408001909711
 229    0.00018447190108346
 230    -0.00048451063379216
 231    0.00075168326731061
 232    -0.00018865792840978
 233    4.1631196616364e-05
 234    -0.00026099844834402
 235      0.39640466354863
 236    0.0021025361738338
 237    -0.0022038791502552
 238    -0.00052312308906232
 239    0.00059366991075099
 240    0.00042449807119218
 241    -0.00038167128926549
 242    0.00051109739501842
 243     0.000230074395508
 244    2.0282270881237e-05
 245    0.0001017843255029
 246    -0.00010253325645275
 247    -4.8628257063009e-05
 248    0.00010757159485219
 249    -0.00037677060719743
 250    -0.00097960510442748
 251    -9.1882679424361e-05
 252    -0.00021158733969741
 253    -0.00019579699278907
 254    0.00011304435088998
 255    -0.00054681867605564
 256    0.00018169795422399
 257    0.0002352471541699
 258    -0.00011623039638221
 259      0.11435914660772
 260    0.00023999619670739
 261    -0.0031574839459469
 262    -0.0010460279575771
 263    0.00059260366127181