[Molden Format]
made by pyscf v[2.0.1]
[Atoms] (AU)
O   1   8     0.00000000000000     0.00000000000000     7.54024356125045
H   2   1     0.00000000000000     0.00000000000000     5.71684173934948
H   3   1    -0.05031916615174     1.78353065140343     7.91611525771711
O   4   8     0.00000000000000     0.00000000000000     2.31533471513237
C   5   6     0.00000000000000     0.00000000000000     0.00000000000000
C   6   6     2.01118073026938    -1.40227222164369    -1.50774939176400
C   7   6    -2.01249334291722     1.41331050329955    -1.50315905028694
H   8   1     3.32037363730244    -2.26721897153159    -0.13599698591495
C   9   6     3.45899267434009     0.28739631745591    -3.37437943254505
H   10   1     1.07662969841332    -2.94725144642667    -2.56541439481080
H   11   1    -2.67503415753480     0.18421555839588    -3.06194479365997
H   12   1    -1.07974048864772     3.03851734677796    -2.43674295017013
C   13   6    -4.21607110578555     2.32938802552922     0.11994162256091
H   14   1     4.24440173074564     1.93368664142019    -2.34976285512790
H   15   1     2.15020713235517     1.04714335134846    -4.81494497423699
C   16   6     5.60746363007797    -1.12419643481196    -4.70268606082550
H   17   1    -3.46838323670267     3.50951302338067     1.66946842715333
H   18   1    -5.11873485366228     0.68575958301209     1.04047743976495
C   19   6    -6.18314754751344     3.80909592987882    -1.39656589068747
H   20   1     6.93011263717176    -1.87550812453645    -3.26656317360070
C   21   6     7.06356622236532     0.52877932406334    -6.57829775293605
H   22   1     4.82318879258361    -2.78573437948532    -5.70504560381835
H   23   1    -6.91582688743803     2.61304780074712    -2.95074552451969
H   24   1    -5.26532430573853     5.45420349051338    -2.31005832200284
C   25   6    -8.39941882261433     4.73263980500213     0.21800571437956
H   26   1     7.83338371486801     2.19084139882824    -5.57093109900697
H   27   1     5.73544244039420     1.27376866537418    -8.01071492370229
C   28   6     9.21124858443101    -0.89699110072176    -7.88926949186242
H   29   1    -7.66272760055236     5.92277078003992     1.77035591474408
H   30   1    -9.31497248082589     3.08753015622020     1.12614408368786
C   31   6   -10.35481709231879     6.21833079391143    -1.30905206253246
H   32   1    10.58815905329501    -1.61074586756696    -6.49512691622620
H   33   1    10.23506248045667     0.32468009384095    -9.23072870921204
H   34   1     8.47665842847139    -2.53598436989925    -8.94921964622535
H   35   1    -9.48948872868064     7.90013588951020    -2.18823918416067
H   36   1   -11.93332513000955     6.86460487874102    -0.11255798845995
H   37   1   -11.15126291841033     5.04495968327630    -2.83849898862534
[GTO]
1 0
 s    8 1.00
                 11720  0.00070964594651845
                  1759  0.0054672722921914
                 400.8   0.027823118610189
                 113.7    0.10474773971146
                 37.03    0.28292084635691
                 13.27    0.44849523869833
                 5.025    0.27081688521277
                 1.013    0.01545029160744
 s    8 1.00
                 11720  -0.00031444341168873
                  1759  -0.0024821376810179
                 400.8  -0.012316355381583
                 113.7  -0.050538917343672
                 37.03   -0.13938490331632
                 13.27   -0.32507749481778
                 5.025   -0.22984830758785
                 1.013     1.0953793467883
 s    1 1.00
                0.3023                   1
 p    3 1.00
                  17.7   0.062679166281506
                 3.854    0.33353656587936
                 1.046    0.74123964163973
 p    1 1.00
                0.2753                   1
 d    1 1.00
                 1.185                   1

2 0
 s    3 1.00
                 13.01   0.033498726389998
                 1.962    0.23480080117413
                0.4446     0.8136829578829
 s    1 1.00
                 0.122                   1
 p    1 1.00
                 0.727                   1

3 0
 s    3 1.00
                 13.01   0.033498726389998
                 1.962    0.23480080117413
                0.4446     0.8136829578829
 s    1 1.00
                 0.122                   1
 p    1 1.00
                 0.727                   1

4 0
 s    8 1.00
                 11720  0.00070964594651845
                  1759  0.0054672722921914
                 400.8   0.027823118610189
                 113.7    0.10474773971146
                 37.03    0.28292084635691
                 13.27    0.44849523869833
                 5.025    0.27081688521277
                 1.013    0.01545029160744
 s    8 1.00
                 11720  -0.00031444341168873
                  1759  -0.0024821376810179
                 400.8  -0.012316355381583
                 113.7  -0.050538917343672
                 37.03   -0.13938490331632
                 13.27   -0.32507749481778
                 5.025   -0.22984830758785
                 1.013     1.0953793467883
 s    1 1.00
                0.3023                   1
 p    3 1.00
                  17.7   0.062679166281506
                 3.854    0.33353656587936
                 1.046    0.74123964163973
 p    1 1.00
                0.2753                   1
 d    1 1.00
                 1.185                   1

5 0
 s    8 1.00
                  6665  0.00069158396281299
                  1000  0.0053257961529341
                   228   0.027060721042034
                 64.71    0.10165684614077
                 21.06     0.2745748236174
                 7.495    0.44829431892377
                 2.797    0.28490261071525
                0.5215   0.015194859206082
 s    8 1.00
                  6665  -0.00029326965268655
                  1000  -0.0023180354739745
                   228  -0.011499786038565
                 64.71  -0.046826727009787
                 21.06   -0.12846616875047
                 7.495   -0.30126627246289
                 2.797   -0.25563070233011
                0.5215      1.093793361012
 s    1 1.00
                0.1596                   1
 p    3 1.00
                 9.439   0.056979251590039
                 2.002    0.31320721150073
                0.5456    0.76037674173753
 p    1 1.00
                0.1517                   1
 d    1 1.00
                  0.55                   1

6 0
 s    8 1.00
                  6665  0.00069158396281299
                  1000  0.0053257961529341
                   228   0.027060721042034
                 64.71    0.10165684614077
                 21.06     0.2745748236174
                 7.495    0.44829431892377
                 2.797    0.28490261071525
                0.5215   0.015194859206082
 s    8 1.00
                  6665  -0.00029326965268655
                  1000  -0.0023180354739745
                   228  -0.011499786038565
                 64.71  -0.046826727009787
                 21.06   -0.12846616875047
                 7.495   -0.30126627246289
                 2.797   -0.25563070233011
                0.5215      1.093793361012
 s    1 1.00
                0.1596                   1
 p    3 1.00
                 9.439   0.056979251590039
                 2.002    0.31320721150073
                0.5456    0.76037674173753
 p    1 1.00
                0.1517                   1
 d    1 1.00
                  0.55                   1

7 0
 s    8 1.00
                  6665  0.00069158396281299
                  1000  0.0053257961529341
                   228   0.027060721042034
                 64.71    0.10165684614077
                 21.06     0.2745748236174
                 7.495    0.44829431892377
                 2.797    0.28490261071525
                0.5215   0.015194859206082
 s    8 1.00
                  6665  -0.00029326965268655
                  1000  -0.0023180354739745
                   228  -0.011499786038565
                 64.71  -0.046826727009787
                 21.06   -0.12846616875047
                 7.495   -0.30126627246289
                 2.797   -0.25563070233011
                0.5215      1.093793361012
 s    1 1.00
                0.1596                   1
 p    3 1.00
                 9.439   0.056979251590039
                 2.002    0.31320721150073
                0.5456    0.76037674173753
 p    1 1.00
                0.1517                   1
 d    1 1.00
                  0.55                   1

8 0
 s    3 1.00
                 13.01   0.033498726389998
                 1.962    0.23480080117413
                0.4446     0.8136829578829
 s    1 1.00
                 0.122                   1
 p    1 1.00
                 0.727                   1

9 0
 s    8 1.00
                  6665  0.00069158396281299
                  1000  0.0053257961529341
                   228   0.027060721042034
                 64.71    0.10165684614077
                 21.06     0.2745748236174
                 7.495    0.44829431892377
                 2.797    0.28490261071525
                0.5215   0.015194859206082
 s    8 1.00
                  6665  -0.00029326965268655
                  1000  -0.0023180354739745
                   228  -0.011499786038565
                 64.71  -0.046826727009787
                 21.06   -0.12846616875047
                 7.495   -0.30126627246289
                 2.797   -0.25563070233011
                0.5215      1.093793361012
 s    1 1.00
                0.1596                   1
 p    3 1.00
                 9.439   0.056979251590039
                 2.002    0.31320721150073
                0.5456    0.76037674173753
 p    1 1.00
                0.1517                   1
 d    1 1.00
                  0.55                   1

10 0
 s    3 1.00
                 13.01   0.033498726389998
                 1.962    0.23480080117413
                0.4446     0.8136829578829
 s    1 1.00
                 0.122                   1
 p    1 1.00
                 0.727                   1

11 0
 s    3 1.00
                 13.01   0.033498726389998
                 1.962    0.23480080117413
                0.4446     0.8136829578829
 s    1 1.00
                 0.122                   1
 p    1 1.00
                 0.727                   1

12 0
 s    3 1.00
                 13.01   0.033498726389998
                 1.962    0.23480080117413
                0.4446     0.8136829578829
 s    1 1.00
                 0.122                   1
 p    1 1.00
                 0.727                   1

13 0
 s    8 1.00
                  6665  0.00069158396281299
                  1000  0.0053257961529341
                   228   0.027060721042034
                 64.71    0.10165684614077
                 21.06     0.2745748236174
                 7.495    0.44829431892377
                 2.797    0.28490261071525
                0.5215   0.015194859206082
 s    8 1.00
                  6665  -0.00029326965268655
                  1000  -0.0023180354739745
                   228  -0.011499786038565
                 64.71  -0.046826727009787
                 21.06   -0.12846616875047
                 7.495   -0.30126627246289
                 2.797   -0.25563070233011
                0.5215      1.093793361012
 s    1 1.00
                0.1596                   1
 p    3 1.00
                 9.439   0.056979251590039
                 2.002    0.31320721150073
                0.5456    0.76037674173753
 p    1 1.00
                0.1517                   1
 d    1 1.00
                  0.55                   1

14 0
 s    3 1.00
                 13.01   0.033498726389998
                 1.962    0.23480080117413
                0.4446     0.8136829578829
 s    1 1.00
                 0.122                   1
 p    1 1.00
                 0.727                   1

15 0
 s    3 1.00
                 13.01   0.033498726389998
                 1.962    0.23480080117413
                0.4446     0.8136829578829
 s    1 1.00
                 0.122                   1
 p    1 1.00
                 0.727                   1

16 0
 s    8 1.00
                  6665  0.00069158396281299
                  1000  0.0053257961529341
                   228   0.027060721042034
                 64.71    0.10165684614077
                 21.06     0.2745748236174
                 7.495    0.44829431892377
                 2.797    0.28490261071525
                0.5215   0.015194859206082
 s    8 1.00
                  6665  -0.00029326965268655
                  1000  -0.0023180354739745
                   228  -0.011499786038565
                 64.71  -0.046826727009787
                 21.06   -0.12846616875047
                 7.495   -0.30126627246289
                 2.797   -0.25563070233011
                0.5215      1.093793361012
 s    1 1.00
                0.1596                   1
 p    3 1.00
                 9.439   0.056979251590039
                 2.002    0.31320721150073
                0.5456    0.76037674173753
 p    1 1.00
                0.1517                   1
 d    1 1.00
                  0.55                   1

17 0
 s    3 1.00
                 13.01   0.033498726389998
                 1.962    0.23480080117413
                0.4446     0.8136829578829
 s    1 1.00
                 0.122                   1
 p    1 1.00
                 0.727                   1

18 0
 s    3 1.00
                 13.01   0.033498726389998
                 1.962    0.23480080117413
                0.4446     0.8136829578829
 s    1 1.00
                 0.122                   1
 p    1 1.00
                 0.727                   1

19 0
 s    8 1.00
                  6665  0.00069158396281299
                  1000  0.0053257961529341
                   228   0.027060721042034
                 64.71    0.10165684614077
                 21.06     0.2745748236174
                 7.495    0.44829431892377
                 2.797    0.28490261071525
                0.5215   0.015194859206082
 s    8 1.00
                  6665  -0.00029326965268655
                  1000  -0.0023180354739745
                   228  -0.011499786038565
                 64.71  -0.046826727009787
                 21.06   -0.12846616875047
                 7.495   -0.30126627246289
                 2.797   -0.25563070233011
                0.5215      1.093793361012
 s    1 1.00
                0.1596                   1
 p    3 1.00
                 9.439   0.056979251590039
                 2.002    0.31320721150073
                0.5456    0.76037674173753
 p    1 1.00
                0.1517                   1
 d    1 1.00
                  0.55                   1

20 0
 s    3 1.00
                 13.01   0.033498726389998
                 1.962    0.23480080117413
                0.4446     0.8136829578829
 s    1 1.00
                 0.122                   1
 p    1 1.00
                 0.727                   1

21 0
 s    8 1.00
                  6665  0.00069158396281299
                  1000  0.0053257961529341
                   228   0.027060721042034
                 64.71    0.10165684614077
                 21.06     0.2745748236174
                 7.495    0.44829431892377
                 2.797    0.28490261071525
                0.5215   0.015194859206082
 s    8 1.00
                  6665  -0.00029326965268655
                  1000  -0.0023180354739745
                   228  -0.011499786038565
                 64.71  -0.046826727009787
                 21.06   -0.12846616875047
                 7.495   -0.30126627246289
                 2.797   -0.25563070233011
                0.5215      1.093793361012
 s    1 1.00
                0.1596                   1
 p    3 1.00
                 9.439   0.056979251590039
                 2.002    0.31320721150073
                0.5456    0.76037674173753
 p    1 1.00
                0.1517                   1
 d    1 1.00
                  0.55                   1

22 0
 s    3 1.00
                 13.01   0.033498726389998
                 1.962    0.23480080117413
                0.4446     0.8136829578829
 s    1 1.00
                 0.122                   1
 p    1 1.00
                 0.727                   1

23 0
 s    3 1.00
                 13.01   0.033498726389998
                 1.962    0.23480080117413
                0.4446     0.8136829578829
 s    1 1.00
                 0.122                   1
 p    1 1.00
                 0.727                   1

24 0
 s    3 1.00
                 13.01   0.033498726389998
                 1.962    0.23480080117413
                0.4446     0.8136829578829
 s    1 1.00
                 0.122                   1
 p    1 1.00
                 0.727                   1

25 0
 s    8 1.00
                  6665  0.00069158396281299
                  1000  0.0053257961529341
                   228   0.027060721042034
                 64.71    0.10165684614077
                 21.06     0.2745748236174
                 7.495    0.44829431892377
                 2.797    0.28490261071525
                0.5215   0.015194859206082
 s    8 1.00
                  6665  -0.00029326965268655
                  1000  -0.0023180354739745
                   228  -0.011499786038565
                 64.71  -0.046826727009787
                 21.06   -0.12846616875047
                 7.495   -0.30126627246289
                 2.797   -0.25563070233011
                0.5215      1.093793361012
 s    1 1.00
                0.1596                   1
 p    3 1.00
                 9.439   0.056979251590039
                 2.002    0.31320721150073
                0.5456    0.76037674173753
 p    1 1.00
                0.1517                   1
 d    1 1.00
                  0.55                   1

26 0
 s    3 1.00
                 13.01   0.033498726389998
                 1.962    0.23480080117413
                0.4446     0.8136829578829
 s    1 1.00
                 0.122                   1
 p    1 1.00
                 0.727                   1

27 0
 s    3 1.00
                 13.01   0.033498726389998
                 1.962    0.23480080117413
                0.4446     0.8136829578829
 s    1 1.00
                 0.122                   1
 p    1 1.00
                 0.727                   1

28 0
 s    8 1.00
                  6665  0.00069158396281299
                  1000  0.0053257961529341
                   228   0.027060721042034
                 64.71    0.10165684614077
                 21.06     0.2745748236174
                 7.495    0.44829431892377
                 2.797    0.28490261071525
                0.5215   0.015194859206082
 s    8 1.00
                  6665  -0.00029326965268655
                  1000  -0.0023180354739745
                   228  -0.011499786038565
                 64.71  -0.046826727009787
                 21.06   -0.12846616875047
                 7.495   -0.30126627246289
                 2.797   -0.25563070233011
                0.5215      1.093793361012
 s    1 1.00
                0.1596                   1
 p    3 1.00
                 9.439   0.056979251590039
                 2.002    0.31320721150073
                0.5456    0.76037674173753
 p    1 1.00
                0.1517                   1
 d    1 1.00
                  0.55                   1

29 0
 s    3 1.00
                 13.01   0.033498726389998
                 1.962    0.23480080117413
                0.4446     0.8136829578829
 s    1 1.00
                 0.122                   1
 p    1 1.00
                 0.727                   1

30 0
 s    3 1.00
                 13.01   0.033498726389998
                 1.962    0.23480080117413
                0.4446     0.8136829578829
 s    1 1.00
                 0.122                   1
 p    1 1.00
                 0.727                   1

31 0
 s    8 1.00
                  6665  0.00069158396281299
                  1000  0.0053257961529341
                   228   0.027060721042034
                 64.71    0.10165684614077
                 21.06     0.2745748236174
                 7.495    0.44829431892377
                 2.797    0.28490261071525
                0.5215   0.015194859206082
 s    8 1.00
                  6665  -0.00029326965268655
                  1000  -0.0023180354739745
                   228  -0.011499786038565
                 64.71  -0.046826727009787
                 21.06   -0.12846616875047
                 7.495   -0.30126627246289
                 2.797   -0.25563070233011
                0.5215      1.093793361012
 s    1 1.00
                0.1596                   1
 p    3 1.00
                 9.439   0.056979251590039
                 2.002    0.31320721150073
                0.5456    0.76037674173753
 p    1 1.00
                0.1517                   1
 d    1 1.00
                  0.55                   1

32 0
 s    3 1.00
                 13.01   0.033498726389998
                 1.962    0.23480080117413
                0.4446     0.8136829578829
 s    1 1.00
                 0.122                   1
 p    1 1.00
                 0.727                   1

33 0
 s    3 1.00
                 13.01   0.033498726389998
                 1.962    0.23480080117413
                0.4446     0.8136829578829
 s    1 1.00
                 0.122                   1
 p    1 1.00
                 0.727                   1

34 0
 s    3 1.00
                 13.01   0.033498726389998
                 1.962    0.23480080117413
                0.4446     0.8136829578829
 s    1 1.00
                 0.122                   1
 p    1 1.00
                 0.727                   1

35 0
 s    3 1.00
                 13.01   0.033498726389998
                 1.962    0.23480080117413
                0.4446     0.8136829578829
 s    1 1.00
                 0.122                   1
 p    1 1.00
                 0.727                   1

36 0
 s    3 1.00
                 13.01   0.033498726389998
                 1.962    0.23480080117413
                0.4446     0.8136829578829
 s    1 1.00
                 0.122                   1
 p    1 1.00
                 0.727                   1

37 0
 s    3 1.00
                 13.01   0.033498726389998
                 1.962    0.23480080117413
                0.4446     0.8136829578829
 s    1 1.00
                 0.122                   1
 p    1 1.00
                 0.727                   1

[5d]
[7f]
[9g]

[MO]
 Sym= A
 Ene=               0
 Spin= Alpha
 Occup=    1.00000
   1    -4.4315388225013e-06
   2    -8.5138577003548e-06
   3    2.0144311581486e-05
   4    -1.0585248113709e-06
   5    1.183611866043e-06
   6    -3.0767059348202e-08
   7    1.2330944037517e-06
   8    3.4593614799812e-07
   9    -5.3613694616343e-06
  10    2.0635213500441e-07
  11    5.4272899278005e-07
  12    -1.5213229640649e-07
  13    -2.6240358532623e-07
  14    9.4202575263351e-08
  15    -1.8289904787802e-06
  16    -2.3630422541147e-05
  17    3.107715616615e-06
  18    -1.5988189613286e-06
  19    9.9938254184416e-07
  20    -2.1062202776923e-07
  21    -5.4377241010505e-06
  22    -4.2992409956811e-08
  23    2.1081929379939e-06
  24    5.4371342101073e-07
  25    1.9431482563833e-06
  26    -5.0034552640444e-06
  27    -7.0877216083814e-05
  28    2.2320157451145e-05
  29    -5.1434912840253e-06
  30    1.0345951772925e-05
  31    -6.5498689317096e-05
  32    4.5399221096386e-05
  33    5.4789953839959e-05
  34    -7.7398398411501e-08
  35    -2.2252750347196e-06
  36    5.7810325189629e-07
  37    7.4189491631704e-07
  38    -3.0906184947891e-06
  39    -9.6319649231146e-05
  40    -0.00021241547726866
  41    0.00087972578238016
  42    6.5038167172346e-05
  43    -5.2949808741502e-05
  44    6.3605994888056e-05
  45    0.00032360672939352
  46    -0.00025760729429667
  47    -0.00014233598299789
  48    -4.1677508075226e-06
  49    -4.5935518914768e-05
  50    3.0324771791241e-05
  51    7.7112000647764e-06
  52    -2.9560905858738e-05
  53    -1.1673344870595e-05
  54    -0.00010304126875585
  55    -0.00013367978881693
  56    -0.00010624242450356
  57    -6.9276570593628e-05
  58    0.00011111283278101
  59    0.00068255297182179
  60    -0.0001788122547795
  61    -0.0004832445219329
  62    -2.1433003559622e-06
  63    3.728838395981e-05
  64    -2.0033813838406e-05
  65    -2.6202208469749e-05
  66    2.7152565045341e-05
  67    -0.00015961960156114
  68    -0.00016341989216248
  69    -0.00069986303754296
  70    -3.2149786253002e-05
  71    3.4675613153418e-05
  72    -8.4069055660648e-05
  73    0.00033323900919957
  74    -0.00014000069304236
  75    -0.00026783100784038
  76    -1.6989741782655e-05
  77    8.6576780697868e-05
  78    -3.3631005082641e-05
  79    -4.0109807133959e-05
  80    6.6479881704562e-06
  81    -3.8386578125494e-05
  82    8.9596144969248e-06
  83    -2.0224060855619e-05
  84    7.4866693660654e-06
  85    2.549489939496e-05
  86    -0.00042431282694842
  87    -0.00079412511991048
  88    0.00036762976912053
  89    -0.00040953208259673
  90    0.0003106411200668
  91    0.00024107338651619
  92    0.0003909240983738
  93    0.00024836298141853
  94    -0.00043459296553375
  95    1.7214712958201e-05
  96    -1.6529205387801e-05
  97    3.9312309649118e-05
  98    -3.3995668094535e-05
  99    8.4759494813561e-07
 100    1.2863156175938e-05
 101    9.8555406895466e-05
 102    -3.4106348449526e-05
 103    1.1343990448944e-05
 104    1.6654349535523e-05
 105    -8.7924559501054e-05
 106    -8.4791883604295e-05
 107    -1.9985454964555e-05
 108    -9.2283512961153e-06
 109    3.2161439619962e-06
 110    -0.00010808504178986
 111    -1.5421363214628e-05
 112    8.1242299768144e-07
 113    1.0428587308153e-05
 114    5.5930986264759e-06
 115       0.0467989637094
 116    -0.00076033665364158
 117    0.00036575001401358
 118    -0.00017761746215735
 119    0.00062924557612318
 120    -0.00088884743354784
 121    8.0152171521526e-05
 122    0.00028195109583871
 123    -0.00094828402011406
 124    -5.7195182220529e-05
 125    -2.2639027234524e-05
 126    -1.78173537744e-05
 127    -1.0880614923353e-05
 128    -7.3103873210273e-05
 129    -6.8851857153295e-05
 130     8.56476143004e-05
 131    -3.2595758207082e-05
 132    1.480388092343e-05
 133    6.4039431105724e-05
 134    -0.00022378306550897
 135    -0.00024301631190285
 136    -6.4280097228517e-05
 137    5.5217742129075e-06
 138    1.2925252325955e-05
 139      0.01170715622887
 140    0.00049335861952991
 141    0.0017889480133839
 142    4.8322551810003e-05
 143    -0.0010495654289422
 144    -0.0012142576647976
 145    0.0013363531902553
 146    -0.00027153060438193
 147    -0.0018264640834315
 148    1.2271135844503e-05
 149    4.6997261207471e-05
 150    6.8756476394205e-05
 151    -2.0903935554145e-05
 152    5.3484857345227e-05
 153    -0.00092654613715214
 154    -0.00014034702661866
 155    1.5304060923664e-07
 156    7.8650478282628e-05
 157    5.9290839272962e-05
 158    -0.001164462229626
 159    -6.1346505221912e-05
 160    -0.00010014772026511
 161    -7.0986585136665e-05
 162    4.794053635375e-05
 163       0.2112653210622
 164    0.0016465229163078
 165    -0.003480698014243
 166    0.00028459474842478
 167    0.0011773383943173
 168    0.0011509796291679
 169    0.0005394390837288
 170    0.0004930889731134
 171    -0.00018520288718336
 172    -1.4329049231092e-05
 173    -0.00017886058573103
 174    -1.4732254951123e-05
 175    4.9058462150534e-05
 176    1.0142994695839e-05
 177    -0.00019251702971831
 178    -0.00015997856435299
 179    -4.7402665665101e-05
 180     1.38672463997e-05
 181    -5.8391579572226e-06
 182      0.50754553206634
 183    0.0021125862133473
 184    -0.0052548104662032
 185    -0.00015062357388518
 186    -0.0008968298298269
 187    -5.3622772882092e-05
 188    0.00066977922046695
 189    -1.5957114021671e-06
 190    -0.00078740911435655
 191    -1.0293550562544e-05
 192    0.00020534686800718
 193    -2.3015646157693e-05
 194    -4.833286008802e-05
 195    0.00010942127952922
 196    0.0014774098777725
 197    0.00051124265378804
 198    3.0531757191643e-06
 199    0.00013306501274241
 200    6.4948075538286e-05
 201    -0.001264839530411
 202    -0.00056649696324407
 203    -3.4579036430939e-05
 204    -0.00012559559886218
 205    -0.0001223708421717
 206    0.00080703056660691
 207    0.00036501241405316
 208    7.0322444681625e-05
 209    5.1239439843314e-05
 210    3.157022402246e-05
 211     -0.48700585768084
 212    -0.0023427532516498
 213    0.0069480806649527
 214    0.00091434479278564
 215    -0.00073825350076951
 216    -0.00043070885727164
 217    0.00072562860792781
 218    -0.00034586416142096
 219    -0.0010278410443241
 220    -7.7016253963394e-05
 221    -0.00010859560592349
 222    -1.9698776337352e-05
 223    0.00013142326920148
 224    -9.7054047055802e-05
 225    -0.00089316574127932
 226    0.0004645042104032
 227    0.00014656926528836
 228    0.00018064213609685
 229    0.00017966018787244
 230    -0.00045929195456612
 231    0.00054505673802725
 232    -0.00016923158124562
 233    9.7405371963904e-06
 234    -0.00019781543712875
 235      0.65824230661875
 236     0.003153750406631
 237    -0.0051313734636367
 238    0.00018467544511644
 239    0.00030774895358022
 240    -8.557356150741e-05
 241    0.00032374816835052
 242    0.0003663486843563
 243    -0.00028058027066158
 244    6.5370869765737e-05
 245    0.00011078385181818
 246    -0.00015578543833434
 247    -3.7194939135908e-05
 248    0.00020635710712682
 249    -0.00050376970200823
 250    -0.00086367539431826
 251    -7.0029730236357e-05
 252    -0.00015301683295618
 253    -0.00014813538148468
 254    4.1881152948356e-05
 255    -0.00043725557060115
 256    0.00013127072805497
 257    0.00017770304015193
 258    -9.7760710222064e-05
 259       0.1730733088738
 260    0.00073280676662361
 261    -0.003040554910258
 262    -0.00067385528801898
 263    0.00027826154954235