[Molden Format]
made by pyscf v[2.0.1]
[Atoms] (AU)
O   1   8     0.00000000000000     0.00000000000000     9.05202446090250
H   2   1     0.00000000000000     0.00000000000000     7.22862263900153
H   3   1    -0.05031916615174     1.78353065140343     9.42789615736916
O   4   8     0.00000000000000     0.00000000000000     2.31533471513237
C   5   6     0.00000000000000     0.00000000000000     0.00000000000000
C   6   6     2.01118073026938    -1.40227222164369    -1.50774939176400
C   7   6    -2.01249334291722     1.41331050329955    -1.50315905028694
H   8   1     3.32037363730244    -2.26721897153159    -0.13599698591495
C   9   6     3.45899267434009     0.28739631745591    -3.37437943254505
H   10   1     1.07662969841332    -2.94725144642667    -2.56541439481080
H   11   1    -2.67503415753480     0.18421555839588    -3.06194479365997
H   12   1    -1.07974048864772     3.03851734677796    -2.43674295017013
C   13   6    -4.21607110578555     2.32938802552922     0.11994162256091
H   14   1     4.24440173074564     1.93368664142019    -2.34976285512790
H   15   1     2.15020713235517     1.04714335134846    -4.81494497423699
C   16   6     5.60746363007797    -1.12419643481196    -4.70268606082550
H   17   1    -3.46838323670267     3.50951302338067     1.66946842715333
H   18   1    -5.11873485366228     0.68575958301209     1.04047743976495
C   19   6    -6.18314754751344     3.80909592987882    -1.39656589068747
H   20   1     6.93011263717176    -1.87550812453645    -3.26656317360070
C   21   6     7.06356622236532     0.52877932406334    -6.57829775293605
H   22   1     4.82318879258361    -2.78573437948532    -5.70504560381835
H   23   1    -6.91582688743803     2.61304780074712    -2.95074552451969
H   24   1    -5.26532430573853     5.45420349051338    -2.31005832200284
C   25   6    -8.39941882261433     4.73263980500213     0.21800571437956
H   26   1     7.83338371486801     2.19084139882824    -5.57093109900697
H   27   1     5.73544244039420     1.27376866537418    -8.01071492370229
C   28   6     9.21124858443101    -0.89699110072176    -7.88926949186242
H   29   1    -7.66272760055236     5.92277078003992     1.77035591474408
H   30   1    -9.31497248082589     3.08753015622020     1.12614408368786
C   31   6   -10.35481709231879     6.21833079391143    -1.30905206253246
H   32   1    10.58815905329501    -1.61074586756696    -6.49512691622620
H   33   1    10.23506248045667     0.32468009384095    -9.23072870921204
H   34   1     8.47665842847139    -2.53598436989925    -8.94921964622535
H   35   1    -9.48948872868064     7.90013588951020    -2.18823918416067
H   36   1   -11.93332513000955     6.86460487874102    -0.11255798845995
H   37   1   -11.15126291841033     5.04495968327630    -2.83849898862534
[GTO]
1 0
 s    8 1.00
                 11720  0.00070964594651845
                  1759  0.0054672722921914
                 400.8   0.027823118610189
                 113.7    0.10474773971146
                 37.03    0.28292084635691
                 13.27    0.44849523869833
                 5.025    0.27081688521277
                 1.013    0.01545029160744
 s    8 1.00
                 11720  -0.00031444341168873
                  1759  -0.0024821376810179
                 400.8  -0.012316355381583
                 113.7  -0.050538917343672
                 37.03   -0.13938490331632
                 13.27   -0.32507749481778
                 5.025   -0.22984830758785
                 1.013     1.0953793467883
 s    1 1.00
                0.3023                   1
 p    3 1.00
                  17.7   0.062679166281506
                 3.854    0.33353656587936
                 1.046    0.74123964163973
 p    1 1.00
                0.2753                   1
 d    1 1.00
                 1.185                   1

2 0
 s    3 1.00
                 13.01   0.033498726389998
                 1.962    0.23480080117413
                0.4446     0.8136829578829
 s    1 1.00
                 0.122                   1
 p    1 1.00
                 0.727                   1

3 0
 s    3 1.00
                 13.01   0.033498726389998
                 1.962    0.23480080117413
                0.4446     0.8136829578829
 s    1 1.00
                 0.122                   1
 p    1 1.00
                 0.727                   1

4 0
 s    8 1.00
                 11720  0.00070964594651845
                  1759  0.0054672722921914
                 400.8   0.027823118610189
                 113.7    0.10474773971146
                 37.03    0.28292084635691
                 13.27    0.44849523869833
                 5.025    0.27081688521277
                 1.013    0.01545029160744
 s    8 1.00
                 11720  -0.00031444341168873
                  1759  -0.0024821376810179
                 400.8  -0.012316355381583
                 113.7  -0.050538917343672
                 37.03   -0.13938490331632
                 13.27   -0.32507749481778
                 5.025   -0.22984830758785
                 1.013     1.0953793467883
 s    1 1.00
                0.3023                   1
 p    3 1.00
                  17.7   0.062679166281506
                 3.854    0.33353656587936
                 1.046    0.74123964163973
 p    1 1.00
                0.2753                   1
 d    1 1.00
                 1.185                   1

5 0
 s    8 1.00
                  6665  0.00069158396281299
                  1000  0.0053257961529341
                   228   0.027060721042034
                 64.71    0.10165684614077
                 21.06     0.2745748236174
                 7.495    0.44829431892377
                 2.797    0.28490261071525
                0.5215   0.015194859206082
 s    8 1.00
                  6665  -0.00029326965268655
                  1000  -0.0023180354739745
                   228  -0.011499786038565
                 64.71  -0.046826727009787
                 21.06   -0.12846616875047
                 7.495   -0.30126627246289
                 2.797   -0.25563070233011
                0.5215      1.093793361012
 s    1 1.00
                0.1596                   1
 p    3 1.00
                 9.439   0.056979251590039
                 2.002    0.31320721150073
                0.5456    0.76037674173753
 p    1 1.00
                0.1517                   1
 d    1 1.00
                  0.55                   1

6 0
 s    8 1.00
                  6665  0.00069158396281299
                  1000  0.0053257961529341
                   228   0.027060721042034
                 64.71    0.10165684614077
                 21.06     0.2745748236174
                 7.495    0.44829431892377
                 2.797    0.28490261071525
                0.5215   0.015194859206082
 s    8 1.00
                  6665  -0.00029326965268655
                  1000  -0.0023180354739745
                   228  -0.011499786038565
                 64.71  -0.046826727009787
                 21.06   -0.12846616875047
                 7.495   -0.30126627246289
                 2.797   -0.25563070233011
                0.5215      1.093793361012
 s    1 1.00
                0.1596                   1
 p    3 1.00
                 9.439   0.056979251590039
                 2.002    0.31320721150073
                0.5456    0.76037674173753
 p    1 1.00
                0.1517                   1
 d    1 1.00
                  0.55                   1

7 0
 s    8 1.00
                  6665  0.00069158396281299
                  1000  0.0053257961529341
                   228   0.027060721042034
                 64.71    0.10165684614077
                 21.06     0.2745748236174
                 7.495    0.44829431892377
                 2.797    0.28490261071525
                0.5215   0.015194859206082
 s    8 1.00
                  6665  -0.00029326965268655
                  1000  -0.0023180354739745
                   228  -0.011499786038565
                 64.71  -0.046826727009787
                 21.06   -0.12846616875047
                 7.495   -0.30126627246289
                 2.797   -0.25563070233011
                0.5215      1.093793361012
 s    1 1.00
                0.1596                   1
 p    3 1.00
                 9.439   0.056979251590039
                 2.002    0.31320721150073
                0.5456    0.76037674173753
 p    1 1.00
                0.1517                   1
 d    1 1.00
                  0.55                   1

8 0
 s    3 1.00
                 13.01   0.033498726389998
                 1.962    0.23480080117413
                0.4446     0.8136829578829
 s    1 1.00
                 0.122                   1
 p    1 1.00
                 0.727                   1

9 0
 s    8 1.00
                  6665  0.00069158396281299
                  1000  0.0053257961529341
                   228   0.027060721042034
                 64.71    0.10165684614077
                 21.06     0.2745748236174
                 7.495    0.44829431892377
                 2.797    0.28490261071525
                0.5215   0.015194859206082
 s    8 1.00
                  6665  -0.00029326965268655
                  1000  -0.0023180354739745
                   228  -0.011499786038565
                 64.71  -0.046826727009787
                 21.06   -0.12846616875047
                 7.495   -0.30126627246289
                 2.797   -0.25563070233011
                0.5215      1.093793361012
 s    1 1.00
                0.1596                   1
 p    3 1.00
                 9.439   0.056979251590039
                 2.002    0.31320721150073
                0.5456    0.76037674173753
 p    1 1.00
                0.1517                   1
 d    1 1.00
                  0.55                   1

10 0
 s    3 1.00
                 13.01   0.033498726389998
                 1.962    0.23480080117413
                0.4446     0.8136829578829
 s    1 1.00
                 0.122                   1
 p    1 1.00
                 0.727                   1

11 0
 s    3 1.00
                 13.01   0.033498726389998
                 1.962    0.23480080117413
                0.4446     0.8136829578829
 s    1 1.00
                 0.122                   1
 p    1 1.00
                 0.727                   1

12 0
 s    3 1.00
                 13.01   0.033498726389998
                 1.962    0.23480080117413
                0.4446     0.8136829578829
 s    1 1.00
                 0.122                   1
 p    1 1.00
                 0.727                   1

13 0
 s    8 1.00
                  6665  0.00069158396281299
                  1000  0.0053257961529341
                   228   0.027060721042034
                 64.71    0.10165684614077
                 21.06     0.2745748236174
                 7.495    0.44829431892377
                 2.797    0.28490261071525
                0.5215   0.015194859206082
 s    8 1.00
                  6665  -0.00029326965268655
                  1000  -0.0023180354739745
                   228  -0.011499786038565
                 64.71  -0.046826727009787
                 21.06   -0.12846616875047
                 7.495   -0.30126627246289
                 2.797   -0.25563070233011
                0.5215      1.093793361012
 s    1 1.00
                0.1596                   1
 p    3 1.00
                 9.439   0.056979251590039
                 2.002    0.31320721150073
                0.5456    0.76037674173753
 p    1 1.00
                0.1517                   1
 d    1 1.00
                  0.55                   1

14 0
 s    3 1.00
                 13.01   0.033498726389998
                 1.962    0.23480080117413
                0.4446     0.8136829578829
 s    1 1.00
                 0.122                   1
 p    1 1.00
                 0.727                   1

15 0
 s    3 1.00
                 13.01   0.033498726389998
                 1.962    0.23480080117413
                0.4446     0.8136829578829
 s    1 1.00
                 0.122                   1
 p    1 1.00
                 0.727                   1

16 0
 s    8 1.00
                  6665  0.00069158396281299
                  1000  0.0053257961529341
                   228   0.027060721042034
                 64.71    0.10165684614077
                 21.06     0.2745748236174
                 7.495    0.44829431892377
                 2.797    0.28490261071525
                0.5215   0.015194859206082
 s    8 1.00
                  6665  -0.00029326965268655
                  1000  -0.0023180354739745
                   228  -0.011499786038565
                 64.71  -0.046826727009787
                 21.06   -0.12846616875047
                 7.495   -0.30126627246289
                 2.797   -0.25563070233011
                0.5215      1.093793361012
 s    1 1.00
                0.1596                   1
 p    3 1.00
                 9.439   0.056979251590039
                 2.002    0.31320721150073
                0.5456    0.76037674173753
 p    1 1.00
                0.1517                   1
 d    1 1.00
                  0.55                   1

17 0
 s    3 1.00
                 13.01   0.033498726389998
                 1.962    0.23480080117413
                0.4446     0.8136829578829
 s    1 1.00
                 0.122                   1
 p    1 1.00
                 0.727                   1

18 0
 s    3 1.00
                 13.01   0.033498726389998
                 1.962    0.23480080117413
                0.4446     0.8136829578829
 s    1 1.00
                 0.122                   1
 p    1 1.00
                 0.727                   1

19 0
 s    8 1.00
                  6665  0.00069158396281299
                  1000  0.0053257961529341
                   228   0.027060721042034
                 64.71    0.10165684614077
                 21.06     0.2745748236174
                 7.495    0.44829431892377
                 2.797    0.28490261071525
                0.5215   0.015194859206082
 s    8 1.00
                  6665  -0.00029326965268655
                  1000  -0.0023180354739745
                   228  -0.011499786038565
                 64.71  -0.046826727009787
                 21.06   -0.12846616875047
                 7.495   -0.30126627246289
                 2.797   -0.25563070233011
                0.5215      1.093793361012
 s    1 1.00
                0.1596                   1
 p    3 1.00
                 9.439   0.056979251590039
                 2.002    0.31320721150073
                0.5456    0.76037674173753
 p    1 1.00
                0.1517                   1
 d    1 1.00
                  0.55                   1

20 0
 s    3 1.00
                 13.01   0.033498726389998
                 1.962    0.23480080117413
                0.4446     0.8136829578829
 s    1 1.00
                 0.122                   1
 p    1 1.00
                 0.727                   1

21 0
 s    8 1.00
                  6665  0.00069158396281299
                  1000  0.0053257961529341
                   228   0.027060721042034
                 64.71    0.10165684614077
                 21.06     0.2745748236174
                 7.495    0.44829431892377
                 2.797    0.28490261071525
                0.5215   0.015194859206082
 s    8 1.00
                  6665  -0.00029326965268655
                  1000  -0.0023180354739745
                   228  -0.011499786038565
                 64.71  -0.046826727009787
                 21.06   -0.12846616875047
                 7.495   -0.30126627246289
                 2.797   -0.25563070233011
                0.5215      1.093793361012
 s    1 1.00
                0.1596                   1
 p    3 1.00
                 9.439   0.056979251590039
                 2.002    0.31320721150073
                0.5456    0.76037674173753
 p    1 1.00
                0.1517                   1
 d    1 1.00
                  0.55                   1

22 0
 s    3 1.00
                 13.01   0.033498726389998
                 1.962    0.23480080117413
                0.4446     0.8136829578829
 s    1 1.00
                 0.122                   1
 p    1 1.00
                 0.727                   1

23 0
 s    3 1.00
                 13.01   0.033498726389998
                 1.962    0.23480080117413
                0.4446     0.8136829578829
 s    1 1.00
                 0.122                   1
 p    1 1.00
                 0.727                   1

24 0
 s    3 1.00
                 13.01   0.033498726389998
                 1.962    0.23480080117413
                0.4446     0.8136829578829
 s    1 1.00
                 0.122                   1
 p    1 1.00
                 0.727                   1

25 0
 s    8 1.00
                  6665  0.00069158396281299
                  1000  0.0053257961529341
                   228   0.027060721042034
                 64.71    0.10165684614077
                 21.06     0.2745748236174
                 7.495    0.44829431892377
                 2.797    0.28490261071525
                0.5215   0.015194859206082
 s    8 1.00
                  6665  -0.00029326965268655
                  1000  -0.0023180354739745
                   228  -0.011499786038565
                 64.71  -0.046826727009787
                 21.06   -0.12846616875047
                 7.495   -0.30126627246289
                 2.797   -0.25563070233011
                0.5215      1.093793361012
 s    1 1.00
                0.1596                   1
 p    3 1.00
                 9.439   0.056979251590039
                 2.002    0.31320721150073
                0.5456    0.76037674173753
 p    1 1.00
                0.1517                   1
 d    1 1.00
                  0.55                   1

26 0
 s    3 1.00
                 13.01   0.033498726389998
                 1.962    0.23480080117413
                0.4446     0.8136829578829
 s    1 1.00
                 0.122                   1
 p    1 1.00
                 0.727                   1

27 0
 s    3 1.00
                 13.01   0.033498726389998
                 1.962    0.23480080117413
                0.4446     0.8136829578829
 s    1 1.00
                 0.122                   1
 p    1 1.00
                 0.727                   1

28 0
 s    8 1.00
                  6665  0.00069158396281299
                  1000  0.0053257961529341
                   228   0.027060721042034
                 64.71    0.10165684614077
                 21.06     0.2745748236174
                 7.495    0.44829431892377
                 2.797    0.28490261071525
                0.5215   0.015194859206082
 s    8 1.00
                  6665  -0.00029326965268655
                  1000  -0.0023180354739745
                   228  -0.011499786038565
                 64.71  -0.046826727009787
                 21.06   -0.12846616875047
                 7.495   -0.30126627246289
                 2.797   -0.25563070233011
                0.5215      1.093793361012
 s    1 1.00
                0.1596                   1
 p    3 1.00
                 9.439   0.056979251590039
                 2.002    0.31320721150073
                0.5456    0.76037674173753
 p    1 1.00
                0.1517                   1
 d    1 1.00
                  0.55                   1

29 0
 s    3 1.00
                 13.01   0.033498726389998
                 1.962    0.23480080117413
                0.4446     0.8136829578829
 s    1 1.00
                 0.122                   1
 p    1 1.00
                 0.727                   1

30 0
 s    3 1.00
                 13.01   0.033498726389998
                 1.962    0.23480080117413
                0.4446     0.8136829578829
 s    1 1.00
                 0.122                   1
 p    1 1.00
                 0.727                   1

31 0
 s    8 1.00
                  6665  0.00069158396281299
                  1000  0.0053257961529341
                   228   0.027060721042034
                 64.71    0.10165684614077
                 21.06     0.2745748236174
                 7.495    0.44829431892377
                 2.797    0.28490261071525
                0.5215   0.015194859206082
 s    8 1.00
                  6665  -0.00029326965268655
                  1000  -0.0023180354739745
                   228  -0.011499786038565
                 64.71  -0.046826727009787
                 21.06   -0.12846616875047
                 7.495   -0.30126627246289
                 2.797   -0.25563070233011
                0.5215      1.093793361012
 s    1 1.00
                0.1596                   1
 p    3 1.00
                 9.439   0.056979251590039
                 2.002    0.31320721150073
                0.5456    0.76037674173753
 p    1 1.00
                0.1517                   1
 d    1 1.00
                  0.55                   1

32 0
 s    3 1.00
                 13.01   0.033498726389998
                 1.962    0.23480080117413
                0.4446     0.8136829578829
 s    1 1.00
                 0.122                   1
 p    1 1.00
                 0.727                   1

33 0
 s    3 1.00
                 13.01   0.033498726389998
                 1.962    0.23480080117413
                0.4446     0.8136829578829
 s    1 1.00
                 0.122                   1
 p    1 1.00
                 0.727                   1

34 0
 s    3 1.00
                 13.01   0.033498726389998
                 1.962    0.23480080117413
                0.4446     0.8136829578829
 s    1 1.00
                 0.122                   1
 p    1 1.00
                 0.727                   1

35 0
 s    3 1.00
                 13.01   0.033498726389998
                 1.962    0.23480080117413
                0.4446     0.8136829578829
 s    1 1.00
                 0.122                   1
 p    1 1.00
                 0.727                   1

36 0
 s    3 1.00
                 13.01   0.033498726389998
                 1.962    0.23480080117413
                0.4446     0.8136829578829
 s    1 1.00
                 0.122                   1
 p    1 1.00
                 0.727                   1

37 0
 s    3 1.00
                 13.01   0.033498726389998
                 1.962    0.23480080117413
                0.4446     0.8136829578829
 s    1 1.00
                 0.122                   1
 p    1 1.00
                 0.727                   1

[5d]
[7f]
[9g]

[MO]
 Sym= A
 Ene=               0
 Spin= Alpha
 Occup=    1.00000
   1    -1.0686075592209e-06
   2    -1.5639229838859e-06
   3    -8.1188907844337e-06
   4    -8.3799588721352e-08
   5    2.074053462075e-07
   6    3.0141395421802e-06
   7    -1.6611209167932e-07
   8    8.0356664240136e-07
   9    4.1922109403342e-06
  10    1.4882443278708e-07
  11    -5.7914011345175e-08
  12    1.1444491920683e-07
  13    1.8040613255777e-08
  14    -4.2424008692465e-09
  15    -3.5035714637151e-07
  16    1.1009382753334e-05
  17    -3.3490438947696e-07
  18    5.5659980863343e-07
  19    -2.2131616350933e-06
  20    -1.4624182519469e-07
  21    -4.6649519040296e-07
  22    1.4207750112331e-08
  23    -1.5540132481287e-07
  24    1.2617871789495e-07
  25    1.9311600415672e-05
  26    3.0942778585513e-06
  27    -3.324681042966e-05
  28    4.0770909478031e-05
  29    0.00013998127794448
  30    0.00013652730812096
  31    6.7555450142712e-05
  32    0.00010302145676816
  33    5.7991177738682e-05
  34    -2.4182750677385e-06
  35    -1.3704566173776e-05
  36    3.9651709877684e-06
  37    -6.6933091910092e-08
  38    8.149730863931e-07
  39    2.5771701622618e-06
  40    0.00040804332727102
  41    -0.00075572555056839
  42    0.00039971707066118
  43    -0.00025159944818555
  44    -0.00029173761350994
  45    -0.0004688320313786
  46    0.00032672682697036
  47    0.00030830561469994
  48    -2.2611719097464e-05
  49    2.1841294576622e-05
  50    3.2911737195814e-05
  51    -2.1802077138892e-05
  52    7.1736319505064e-06
  53    0.00063407186395966
  54    0.00046216689745746
  55    0.0011084029257505
  56    -0.00022520409938569
  57    -0.00027446255014413
  58    0.00027173279080273
  59    -0.00079514524639719
  60    0.00052741733573328
  61    0.00049343658493742
  62    2.7010439590359e-05
  63    -3.0241981107393e-05
  64    0.00010154563023803
  65    9.7700956910343e-05
  66    -3.3264288316356e-05
  67    -6.9156270719161e-05
  68    -0.0001430526862263
  69    0.00019771670819199
  70    -6.7836296956487e-05
  71    4.7184801705355e-05
  72    3.931212650867e-05
  73    -0.00040606931841942
  74    0.00017474489765088
  75    6.567215114273e-05
  76    -2.3113555004332e-05
  77    -2.2778002378632e-05
  78    1.8863773344294e-05
  79    1.3482975209524e-05
  80    -1.7154265589164e-05
  81    0.00022941852364322
  82    0.00011682728009207
  83    6.0455709688812e-06
  84    -1.5393047499794e-05
  85    -7.4422375152708e-05
  86    -0.0023774900025237
  87    -0.0016100944733634
  88    -0.0043062477771189
  89    0.0012563414364569
  90    -0.0023113779037359
  91    -0.0002674002454324
  92    -0.00041921445118411
  93    -0.00042451338261757
  94    0.00053755775982592
  95    -7.3766280942424e-05
  96    -0.00021958051686685
  97    8.6090227687652e-05
  98    4.9977758400887e-05
  99    -0.00019203441773993
 100    0.00025216257561071
 101    0.00015738471747755
 102    8.3295578898869e-05
 103    3.1190414566147e-06
 104    -2.9381871376303e-06
 105    -0.00011744362926192
 106    -5.7838462924712e-05
 107    1.1089251670741e-05
 108    -9.2124719817186e-06
 109    -8.6294080492141e-06
 110    -0.00010395334820485
 111    -8.5957426911635e-05
 112    -4.2860557040385e-07
 113    1.2788870320833e-05
 114    2.747169114935e-06
 115     0.019544638865813
 116    0.00018805683452848
 117    -0.00057474922961908
 118    1.1046826944676e-05
 119    -4.5507730941141e-05
 120    1.017066885494e-06
 121    -0.00025963946926695
 122    0.00016866057422564
 123    0.00010572624762143
 124    1.7150144446584e-06
 125    2.2110184692498e-05
 126    -1.2830432687859e-05
 127    -1.579907611564e-05
 128    2.3236048374904e-05
 129    -0.0021278182170475
 130    -0.00076047475044607
 131    0.0001001587486951
 132    0.00017570084962659
 133    0.00014037005554935
 134    -0.0021061004939142
 135    -0.00070396699511905
 136    -0.00016452563860617
 137    6.314423156022e-05
 138    -0.00016150782309233
 139     -0.95800257566403
 140    -0.0043200730529482
 141     0.011343580263407
 142    -0.00085000137096918
 143    0.00066710767159827
 144    0.00050564167733169
 145    -0.0013133337250292
 146      0.00120591485596
 147    0.00066496212419897
 148    5.7041340681944e-06
 149    -0.00037230016666499
 150    -9.2265792241901e-05
 151    9.2854940899434e-05
 152    -8.4478284359304e-06
 153    9.0570840153233e-06
 154    1.7002297601262e-05
 155    1.4056991538602e-05
 156    -4.2468067934776e-06
 157    6.7762568166649e-06
 158    7.4269012427523e-05
 159    5.4427350831414e-05
 160    6.9021608817998e-06
 161    -1.2892680435687e-05
 162    -3.5554269529585e-07
 163    -0.00084849873168137
 164    7.5439134475782e-07
 165    -3.4150595176663e-06
 166    -2.8790631905238e-07
 167    5.4325543719018e-06
 168    -1.2396062181155e-05
 169    -8.3919913631145e-05
 170    2.2953062515548e-06
 171    2.4150991130667e-05
 172    -1.7182205435134e-06
 173    -9.7142220243922e-06
 174    4.3257934728283e-06
 175    -1.1648506514272e-06
 176    -2.1204693836385e-09
 177    -0.00024898030528998
 178    -0.0014613749597213
 179    -0.00029324165592493
 180    9.2465086132589e-05
 181    -0.00029130193670816
 182     -0.29463866899882
 183    -0.0013702992751384
 184    0.00096015860639313
 185    8.0165011241125e-05
 186    0.00014329946775338
 187    -0.00012125426984914
 188    0.0007388504036814
 189    0.00034007048993321
 190    -0.00075345702094166
 191    1.7226649101062e-05
 192    -0.00018645665124086
 193    -0.0001218778696284
 194    9.7014065409587e-06
 195    6.9070584443728e-05
 196    -0.00024812899870013
 197    -0.0014712930490928
 198    0.00017649444855214
 199    0.0003026594599914
 200    0.00025724720922242
 201    1.5241914869922e-06
 202    -1.0058539130436e-05
 203    5.8430533393367e-06
 204    -1.1693373271798e-07
 205    3.1889583217024e-07
 206    1.2764624785819e-05
 207    4.6157299819603e-05
 208    3.5514563452001e-06
 209    -7.0009529547572e-06
 210    1.9338671335161e-06
 211    0.00029495210645538
 212    1.5285268709769e-05
 213    -4.4560855241901e-05
 214    2.6824737322174e-06
 215    9.9273922623559e-07
 216    2.6858299862198e-06
 217    -0.00010730509163349
 218    7.7230362792556e-05
 219    -1.5862345990535e-05
 220    2.5531480899728e-06
 221    5.5058368224809e-06
 222    -4.3840426954311e-06
 223    -2.6271737496193e-06
 224    3.9126057557962e-06
 225    0.00010620045355894
 226    -0.00051067470394662
 227    -1.4062543446428e-05
 228    -3.6996402931007e-05
 229    -0.00013184133778353
 230    0.00011244776537128
 231    -0.00051319019133526
 232    0.00013100716162767
 233    2.5448463865715e-05
 234    3.4934199469785e-05
 235    -0.0040744092173495
 236    0.00018019399358325
 237    -0.00085675535914846
 238    -5.2821554194722e-05
 239    -4.3144856255273e-05
 240    6.1731338935801e-05
 241    0.00019828349498985
 242    -8.5200001987286e-05
 243    -0.00014804793149469
 244    -2.1152004823067e-05
 245    2.6129882216509e-05
 246    0.00010356980778766
 247    3.5870088783074e-05
 248    -9.3532625315542e-05
 249    1.2297059657235e-05
 250    -1.2111230075894e-05
 251    3.2382793233439e-06
 252    -2.9780949421317e-06
 253    2.4540685087284e-06
 254    7.9712123002322e-06
 255    -3.2589429974159e-07
 256    3.8114717393932e-06
 257    -2.3802803077184e-06
 258    2.8197568805962e-06
 259    -0.00032046310823387
 260    7.6680673710434e-06
 261    -8.2781945834473e-05
 262    -1.5671649967572e-06
 263    2.8570863776805e-07