[Molden Format]
made by pyscf v[2.0.1]
[Atoms] (AU)
O   1   8     0.00000000000000     0.00000000000000    10.56380536055454
H   2   1     0.00000000000000     0.00000000000000     8.74040353865358
H   3   1    -0.05031916615174     1.78353065140343    10.93967705702121
O   4   8     0.00000000000000     0.00000000000000     2.31533471513237
C   5   6     0.00000000000000     0.00000000000000     0.00000000000000
C   6   6     2.01118073026938    -1.40227222164369    -1.50774939176400
C   7   6    -2.01249334291722     1.41331050329955    -1.50315905028694
H   8   1     3.32037363730244    -2.26721897153159    -0.13599698591495
C   9   6     3.45899267434009     0.28739631745591    -3.37437943254505
H   10   1     1.07662969841332    -2.94725144642667    -2.56541439481080
H   11   1    -2.67503415753480     0.18421555839588    -3.06194479365997
H   12   1    -1.07974048864772     3.03851734677796    -2.43674295017013
C   13   6    -4.21607110578555     2.32938802552922     0.11994162256091
H   14   1     4.24440173074564     1.93368664142019    -2.34976285512790
H   15   1     2.15020713235517     1.04714335134846    -4.81494497423699
C   16   6     5.60746363007797    -1.12419643481196    -4.70268606082550
H   17   1    -3.46838323670267     3.50951302338067     1.66946842715333
H   18   1    -5.11873485366228     0.68575958301209     1.04047743976495
C   19   6    -6.18314754751344     3.80909592987882    -1.39656589068747
H   20   1     6.93011263717176    -1.87550812453645    -3.26656317360070
C   21   6     7.06356622236532     0.52877932406334    -6.57829775293605
H   22   1     4.82318879258361    -2.78573437948532    -5.70504560381835
H   23   1    -6.91582688743803     2.61304780074712    -2.95074552451969
H   24   1    -5.26532430573853     5.45420349051338    -2.31005832200284
C   25   6    -8.39941882261433     4.73263980500213     0.21800571437956
H   26   1     7.83338371486801     2.19084139882824    -5.57093109900697
H   27   1     5.73544244039420     1.27376866537418    -8.01071492370229
C   28   6     9.21124858443101    -0.89699110072176    -7.88926949186242
H   29   1    -7.66272760055236     5.92277078003992     1.77035591474408
H   30   1    -9.31497248082589     3.08753015622020     1.12614408368786
C   31   6   -10.35481709231879     6.21833079391143    -1.30905206253246
H   32   1    10.58815905329501    -1.61074586756696    -6.49512691622620
H   33   1    10.23506248045667     0.32468009384095    -9.23072870921204
H   34   1     8.47665842847139    -2.53598436989925    -8.94921964622535
H   35   1    -9.48948872868064     7.90013588951020    -2.18823918416067
H   36   1   -11.93332513000955     6.86460487874102    -0.11255798845995
H   37   1   -11.15126291841033     5.04495968327630    -2.83849898862534
[GTO]
1 0
 s    8 1.00
                 11720  0.00070964594651845
                  1759  0.0054672722921914
                 400.8   0.027823118610189
                 113.7    0.10474773971146
                 37.03    0.28292084635691
                 13.27    0.44849523869833
                 5.025    0.27081688521277
                 1.013    0.01545029160744
 s    8 1.00
                 11720  -0.00031444341168873
                  1759  -0.0024821376810179
                 400.8  -0.012316355381583
                 113.7  -0.050538917343672
                 37.03   -0.13938490331632
                 13.27   -0.32507749481778
                 5.025   -0.22984830758785
                 1.013     1.0953793467883
 s    1 1.00
                0.3023                   1
 p    3 1.00
                  17.7   0.062679166281506
                 3.854    0.33353656587936
                 1.046    0.74123964163973
 p    1 1.00
                0.2753                   1
 d    1 1.00
                 1.185                   1

2 0
 s    3 1.00
                 13.01   0.033498726389998
                 1.962    0.23480080117413
                0.4446     0.8136829578829
 s    1 1.00
                 0.122                   1
 p    1 1.00
                 0.727                   1

3 0
 s    3 1.00
                 13.01   0.033498726389998
                 1.962    0.23480080117413
                0.4446     0.8136829578829
 s    1 1.00
                 0.122                   1
 p    1 1.00
                 0.727                   1

4 0
 s    8 1.00
                 11720  0.00070964594651845
                  1759  0.0054672722921914
                 400.8   0.027823118610189
                 113.7    0.10474773971146
                 37.03    0.28292084635691
                 13.27    0.44849523869833
                 5.025    0.27081688521277
                 1.013    0.01545029160744
 s    8 1.00
                 11720  -0.00031444341168873
                  1759  -0.0024821376810179
                 400.8  -0.012316355381583
                 113.7  -0.050538917343672
                 37.03   -0.13938490331632
                 13.27   -0.32507749481778
                 5.025   -0.22984830758785
                 1.013     1.0953793467883
 s    1 1.00
                0.3023                   1
 p    3 1.00
                  17.7   0.062679166281506
                 3.854    0.33353656587936
                 1.046    0.74123964163973
 p    1 1.00
                0.2753                   1
 d    1 1.00
                 1.185                   1

5 0
 s    8 1.00
                  6665  0.00069158396281299
                  1000  0.0053257961529341
                   228   0.027060721042034
                 64.71    0.10165684614077
                 21.06     0.2745748236174
                 7.495    0.44829431892377
                 2.797    0.28490261071525
                0.5215   0.015194859206082
 s    8 1.00
                  6665  -0.00029326965268655
                  1000  -0.0023180354739745
                   228  -0.011499786038565
                 64.71  -0.046826727009787
                 21.06   -0.12846616875047
                 7.495   -0.30126627246289
                 2.797   -0.25563070233011
                0.5215      1.093793361012
 s    1 1.00
                0.1596                   1
 p    3 1.00
                 9.439   0.056979251590039
                 2.002    0.31320721150073
                0.5456    0.76037674173753
 p    1 1.00
                0.1517                   1
 d    1 1.00
                  0.55                   1

6 0
 s    8 1.00
                  6665  0.00069158396281299
                  1000  0.0053257961529341
                   228   0.027060721042034
                 64.71    0.10165684614077
                 21.06     0.2745748236174
                 7.495    0.44829431892377
                 2.797    0.28490261071525
                0.5215   0.015194859206082
 s    8 1.00
                  6665  -0.00029326965268655
                  1000  -0.0023180354739745
                   228  -0.011499786038565
                 64.71  -0.046826727009787
                 21.06   -0.12846616875047
                 7.495   -0.30126627246289
                 2.797   -0.25563070233011
                0.5215      1.093793361012
 s    1 1.00
                0.1596                   1
 p    3 1.00
                 9.439   0.056979251590039
                 2.002    0.31320721150073
                0.5456    0.76037674173753
 p    1 1.00
                0.1517                   1
 d    1 1.00
                  0.55                   1

7 0
 s    8 1.00
                  6665  0.00069158396281299
                  1000  0.0053257961529341
                   228   0.027060721042034
                 64.71    0.10165684614077
                 21.06     0.2745748236174
                 7.495    0.44829431892377
                 2.797    0.28490261071525
                0.5215   0.015194859206082
 s    8 1.00
                  6665  -0.00029326965268655
                  1000  -0.0023180354739745
                   228  -0.011499786038565
                 64.71  -0.046826727009787
                 21.06   -0.12846616875047
                 7.495   -0.30126627246289
                 2.797   -0.25563070233011
                0.5215      1.093793361012
 s    1 1.00
                0.1596                   1
 p    3 1.00
                 9.439   0.056979251590039
                 2.002    0.31320721150073
                0.5456    0.76037674173753
 p    1 1.00
                0.1517                   1
 d    1 1.00
                  0.55                   1

8 0
 s    3 1.00
                 13.01   0.033498726389998
                 1.962    0.23480080117413
                0.4446     0.8136829578829
 s    1 1.00
                 0.122                   1
 p    1 1.00
                 0.727                   1

9 0
 s    8 1.00
                  6665  0.00069158396281299
                  1000  0.0053257961529341
                   228   0.027060721042034
                 64.71    0.10165684614077
                 21.06     0.2745748236174
                 7.495    0.44829431892377
                 2.797    0.28490261071525
                0.5215   0.015194859206082
 s    8 1.00
                  6665  -0.00029326965268655
                  1000  -0.0023180354739745
                   228  -0.011499786038565
                 64.71  -0.046826727009787
                 21.06   -0.12846616875047
                 7.495   -0.30126627246289
                 2.797   -0.25563070233011
                0.5215      1.093793361012
 s    1 1.00
                0.1596                   1
 p    3 1.00
                 9.439   0.056979251590039
                 2.002    0.31320721150073
                0.5456    0.76037674173753
 p    1 1.00
                0.1517                   1
 d    1 1.00
                  0.55                   1

10 0
 s    3 1.00
                 13.01   0.033498726389998
                 1.962    0.23480080117413
                0.4446     0.8136829578829
 s    1 1.00
                 0.122                   1
 p    1 1.00
                 0.727                   1

11 0
 s    3 1.00
                 13.01   0.033498726389998
                 1.962    0.23480080117413
                0.4446     0.8136829578829
 s    1 1.00
                 0.122                   1
 p    1 1.00
                 0.727                   1

12 0
 s    3 1.00
                 13.01   0.033498726389998
                 1.962    0.23480080117413
                0.4446     0.8136829578829
 s    1 1.00
                 0.122                   1
 p    1 1.00
                 0.727                   1

13 0
 s    8 1.00
                  6665  0.00069158396281299
                  1000  0.0053257961529341
                   228   0.027060721042034
                 64.71    0.10165684614077
                 21.06     0.2745748236174
                 7.495    0.44829431892377
                 2.797    0.28490261071525
                0.5215   0.015194859206082
 s    8 1.00
                  6665  -0.00029326965268655
                  1000  -0.0023180354739745
                   228  -0.011499786038565
                 64.71  -0.046826727009787
                 21.06   -0.12846616875047
                 7.495   -0.30126627246289
                 2.797   -0.25563070233011
                0.5215      1.093793361012
 s    1 1.00
                0.1596                   1
 p    3 1.00
                 9.439   0.056979251590039
                 2.002    0.31320721150073
                0.5456    0.76037674173753
 p    1 1.00
                0.1517                   1
 d    1 1.00
                  0.55                   1

14 0
 s    3 1.00
                 13.01   0.033498726389998
                 1.962    0.23480080117413
                0.4446     0.8136829578829
 s    1 1.00
                 0.122                   1
 p    1 1.00
                 0.727                   1

15 0
 s    3 1.00
                 13.01   0.033498726389998
                 1.962    0.23480080117413
                0.4446     0.8136829578829
 s    1 1.00
                 0.122                   1
 p    1 1.00
                 0.727                   1

16 0
 s    8 1.00
                  6665  0.00069158396281299
                  1000  0.0053257961529341
                   228   0.027060721042034
                 64.71    0.10165684614077
                 21.06     0.2745748236174
                 7.495    0.44829431892377
                 2.797    0.28490261071525
                0.5215   0.015194859206082
 s    8 1.00
                  6665  -0.00029326965268655
                  1000  -0.0023180354739745
                   228  -0.011499786038565
                 64.71  -0.046826727009787
                 21.06   -0.12846616875047
                 7.495   -0.30126627246289
                 2.797   -0.25563070233011
                0.5215      1.093793361012
 s    1 1.00
                0.1596                   1
 p    3 1.00
                 9.439   0.056979251590039
                 2.002    0.31320721150073
                0.5456    0.76037674173753
 p    1 1.00
                0.1517                   1
 d    1 1.00
                  0.55                   1

17 0
 s    3 1.00
                 13.01   0.033498726389998
                 1.962    0.23480080117413
                0.4446     0.8136829578829
 s    1 1.00
                 0.122                   1
 p    1 1.00
                 0.727                   1

18 0
 s    3 1.00
                 13.01   0.033498726389998
                 1.962    0.23480080117413
                0.4446     0.8136829578829
 s    1 1.00
                 0.122                   1
 p    1 1.00
                 0.727                   1

19 0
 s    8 1.00
                  6665  0.00069158396281299
                  1000  0.0053257961529341
                   228   0.027060721042034
                 64.71    0.10165684614077
                 21.06     0.2745748236174
                 7.495    0.44829431892377
                 2.797    0.28490261071525
                0.5215   0.015194859206082
 s    8 1.00
                  6665  -0.00029326965268655
                  1000  -0.0023180354739745
                   228  -0.011499786038565
                 64.71  -0.046826727009787
                 21.06   -0.12846616875047
                 7.495   -0.30126627246289
                 2.797   -0.25563070233011
                0.5215      1.093793361012
 s    1 1.00
                0.1596                   1
 p    3 1.00
                 9.439   0.056979251590039
                 2.002    0.31320721150073
                0.5456    0.76037674173753
 p    1 1.00
                0.1517                   1
 d    1 1.00
                  0.55                   1

20 0
 s    3 1.00
                 13.01   0.033498726389998
                 1.962    0.23480080117413
                0.4446     0.8136829578829
 s    1 1.00
                 0.122                   1
 p    1 1.00
                 0.727                   1

21 0
 s    8 1.00
                  6665  0.00069158396281299
                  1000  0.0053257961529341
                   228   0.027060721042034
                 64.71    0.10165684614077
                 21.06     0.2745748236174
                 7.495    0.44829431892377
                 2.797    0.28490261071525
                0.5215   0.015194859206082
 s    8 1.00
                  6665  -0.00029326965268655
                  1000  -0.0023180354739745
                   228  -0.011499786038565
                 64.71  -0.046826727009787
                 21.06   -0.12846616875047
                 7.495   -0.30126627246289
                 2.797   -0.25563070233011
                0.5215      1.093793361012
 s    1 1.00
                0.1596                   1
 p    3 1.00
                 9.439   0.056979251590039
                 2.002    0.31320721150073
                0.5456    0.76037674173753
 p    1 1.00
                0.1517                   1
 d    1 1.00
                  0.55                   1

22 0
 s    3 1.00
                 13.01   0.033498726389998
                 1.962    0.23480080117413
                0.4446     0.8136829578829
 s    1 1.00
                 0.122                   1
 p    1 1.00
                 0.727                   1

23 0
 s    3 1.00
                 13.01   0.033498726389998
                 1.962    0.23480080117413
                0.4446     0.8136829578829
 s    1 1.00
                 0.122                   1
 p    1 1.00
                 0.727                   1

24 0
 s    3 1.00
                 13.01   0.033498726389998
                 1.962    0.23480080117413
                0.4446     0.8136829578829
 s    1 1.00
                 0.122                   1
 p    1 1.00
                 0.727                   1

25 0
 s    8 1.00
                  6665  0.00069158396281299
                  1000  0.0053257961529341
                   228   0.027060721042034
                 64.71    0.10165684614077
                 21.06     0.2745748236174
                 7.495    0.44829431892377
                 2.797    0.28490261071525
                0.5215   0.015194859206082
 s    8 1.00
                  6665  -0.00029326965268655
                  1000  -0.0023180354739745
                   228  -0.011499786038565
                 64.71  -0.046826727009787
                 21.06   -0.12846616875047
                 7.495   -0.30126627246289
                 2.797   -0.25563070233011
                0.5215      1.093793361012
 s    1 1.00
                0.1596                   1
 p    3 1.00
                 9.439   0.056979251590039
                 2.002    0.31320721150073
                0.5456    0.76037674173753
 p    1 1.00
                0.1517                   1
 d    1 1.00
                  0.55                   1

26 0
 s    3 1.00
                 13.01   0.033498726389998
                 1.962    0.23480080117413
                0.4446     0.8136829578829
 s    1 1.00
                 0.122                   1
 p    1 1.00
                 0.727                   1

27 0
 s    3 1.00
                 13.01   0.033498726389998
                 1.962    0.23480080117413
                0.4446     0.8136829578829
 s    1 1.00
                 0.122                   1
 p    1 1.00
                 0.727                   1

28 0
 s    8 1.00
                  6665  0.00069158396281299
                  1000  0.0053257961529341
                   228   0.027060721042034
                 64.71    0.10165684614077
                 21.06     0.2745748236174
                 7.495    0.44829431892377
                 2.797    0.28490261071525
                0.5215   0.015194859206082
 s    8 1.00
                  6665  -0.00029326965268655
                  1000  -0.0023180354739745
                   228  -0.011499786038565
                 64.71  -0.046826727009787
                 21.06   -0.12846616875047
                 7.495   -0.30126627246289
                 2.797   -0.25563070233011
                0.5215      1.093793361012
 s    1 1.00
                0.1596                   1
 p    3 1.00
                 9.439   0.056979251590039
                 2.002    0.31320721150073
                0.5456    0.76037674173753
 p    1 1.00
                0.1517                   1
 d    1 1.00
                  0.55                   1

29 0
 s    3 1.00
                 13.01   0.033498726389998
                 1.962    0.23480080117413
                0.4446     0.8136829578829
 s    1 1.00
                 0.122                   1
 p    1 1.00
                 0.727                   1

30 0
 s    3 1.00
                 13.01   0.033498726389998
                 1.962    0.23480080117413
                0.4446     0.8136829578829
 s    1 1.00
                 0.122                   1
 p    1 1.00
                 0.727                   1

31 0
 s    8 1.00
                  6665  0.00069158396281299
                  1000  0.0053257961529341
                   228   0.027060721042034
                 64.71    0.10165684614077
                 21.06     0.2745748236174
                 7.495    0.44829431892377
                 2.797    0.28490261071525
                0.5215   0.015194859206082
 s    8 1.00
                  6665  -0.00029326965268655
                  1000  -0.0023180354739745
                   228  -0.011499786038565
                 64.71  -0.046826727009787
                 21.06   -0.12846616875047
                 7.495   -0.30126627246289
                 2.797   -0.25563070233011
                0.5215      1.093793361012
 s    1 1.00
                0.1596                   1
 p    3 1.00
                 9.439   0.056979251590039
                 2.002    0.31320721150073
                0.5456    0.76037674173753
 p    1 1.00
                0.1517                   1
 d    1 1.00
                  0.55                   1

32 0
 s    3 1.00
                 13.01   0.033498726389998
                 1.962    0.23480080117413
                0.4446     0.8136829578829
 s    1 1.00
                 0.122                   1
 p    1 1.00
                 0.727                   1

33 0
 s    3 1.00
                 13.01   0.033498726389998
                 1.962    0.23480080117413
                0.4446     0.8136829578829
 s    1 1.00
                 0.122                   1
 p    1 1.00
                 0.727                   1

34 0
 s    3 1.00
                 13.01   0.033498726389998
                 1.962    0.23480080117413
                0.4446     0.8136829578829
 s    1 1.00
                 0.122                   1
 p    1 1.00
                 0.727                   1

35 0
 s    3 1.00
                 13.01   0.033498726389998
                 1.962    0.23480080117413
                0.4446     0.8136829578829
 s    1 1.00
                 0.122                   1
 p    1 1.00
                 0.727                   1

36 0
 s    3 1.00
                 13.01   0.033498726389998
                 1.962    0.23480080117413
                0.4446     0.8136829578829
 s    1 1.00
                 0.122                   1
 p    1 1.00
                 0.727                   1

37 0
 s    3 1.00
                 13.01   0.033498726389998
                 1.962    0.23480080117413
                0.4446     0.8136829578829
 s    1 1.00
                 0.122                   1
 p    1 1.00
                 0.727                   1

[5d]
[7f]
[9g]

[MO]
 Sym= A
 Ene=               0
 Spin= Alpha
 Occup=    1.00000
   1    1.5840150849403e-07
   2    5.2399982112003e-07
   3    -4.8488920947935e-06
   4    -2.4529624202662e-09
   5    5.5569050949614e-08
   6    2.051574159445e-07
   7    -3.6905100389644e-08
   8    9.5634884058463e-07
   9    3.1493191943022e-06
  10    -2.5389048552908e-07
  11    -9.4861903284833e-10
  12    2.0341298026477e-08
  13    -1.1880096126713e-08
  14    -9.9980299387155e-10
  15    2.6584315734377e-07
  16    9.2302615787318e-06
  17    -9.9107818866697e-09
  18    1.0833501420899e-08
  19    9.2743127941238e-07
  20    2.097545862164e-07
  21    -2.8079635639662e-06
  22    -1.1281387746707e-09
  23    9.2279931229592e-08
  24    -8.7124342914135e-08
  25    1.9519724802707e-05
  26    4.9094358555826e-06
  27    -2.6320966012752e-05
  28    3.8525537374022e-05
  29    0.00013792097660235
  30    0.00013250813929822
  31    6.8111450554885e-05
  32    9.8266462522505e-05
  33    5.5512593507007e-05
  34    -2.3542514981546e-06
  35    -1.343703907575e-05
  36    3.8396739939927e-06
  37    -5.0414355855336e-08
  38    9.3459613366807e-07
  39    9.0731511479193e-06
  40    0.00040550713307985
  41    -0.00076433001243734
  42    0.00039111478600385
  43    -0.00024450193382722
  44    -0.00028614920916968
  45    -0.00048082011737459
  46    0.00034125359469264
  47    0.00030386067299416
  48    -2.1637230653281e-05
  49    2.201400573309e-05
  50    3.1690383238135e-05
  51    -2.0714099391475e-05
  52    8.2119115488008e-06
  53    0.00061986647534645
  54    0.00046669403053274
  55    0.0010668138696132
  56    -0.00021149449967374
  57    -0.00025561901635226
  58    0.00025484270882437
  59    -0.00081538343597321
  60    0.00052593903619601
  61    0.00051788606979518
  62    2.6774141024276e-05
  63    -3.2230993357238e-05
  64    9.9306008654036e-05
  65    9.604521418389e-05
  66    -3.2776455502082e-05
  67    -7.2586556211484e-05
  68    -0.00014198546117917
  69    0.00018246842360748
  70    -6.7977696021084e-05
  71    4.2921521581184e-05
  72    4.2794060091137e-05
  73    -0.00040876608048833
  74    0.00017064473648429
  75    6.2910497808887e-05
  76    -2.2658622177351e-05
  77    -2.3220616881388e-05
  78    1.9273170573904e-05
  79    1.3919891783033e-05
  80    -1.7524017810247e-05
  81    0.00022413422657826
  82    0.00011159261834551
  83    6.7952436013187e-06
  84    -1.5267612720507e-05
  85    -7.4248909700159e-05
  86    -0.0022833485954582
  87    -0.0015082557100992
  88    -0.0041643574615342
  89    0.0012602489067842
  90    -0.0022871995718782
  91    -0.00027870700931356
  92    -0.00041560223539021
  93    -0.00045422581240468
  94    0.0005432079031919
  95    -7.2609026481966e-05
  96    -0.00021691381206866
  97    8.7043527417413e-05
  98    5.0829088263031e-05
  99    -0.00019062026103789
 100    0.00024543884984333
 101    0.00015282461713825
 102    8.355974357449e-05
 103    2.8524689828025e-06
 104    -4.0378176004575e-06
 105    -0.00011657133182909
 106    -6.1341546473426e-05
 107    1.1182538848737e-05
 108    -9.5971900285434e-06
 109    -8.8951964620412e-06
 110    -0.00010684462166728
 111    -8.8118351794195e-05
 112    3.5423165558863e-08
 113    1.2923392281509e-05
 114    2.611746964284e-06
 115     0.017208092301134
 116    0.00017584488925314
 117    -0.00054551106741361
 118    1.1643706820803e-05
 119    -4.4980705536472e-05
 120    4.0822368571153e-08
 121    -0.00025924354579181
 122    0.00017128773184833
 123    0.00010088274349661
 124    1.5224092461702e-06
 125    2.2110573701797e-05
 126    -1.2875648988542e-05
 127    -1.5403547620276e-05
 128    2.2469348233597e-05
 129    -0.0020673374118683
 130    -0.00073685393069294
 131    9.9115421907349e-05
 132    0.00017081936500174
 133    0.00013251276105759
 134    -0.0020464067298442
 135    -0.00067963805225555
 136    -0.00015596730326874
 137    6.2288363014616e-05
 138    -0.00015777730982114
 139      -0.9416797111358
 140    -0.0042170144455588
 141     0.010991410822914
 142    -0.00088252420057848
 143    0.00068279844080898
 144    0.00052692880236871
 145    -0.0013591594943989
 146    0.0011433360859834
 147    0.0007298424242543
 148    4.6560724383132e-06
 149    -0.00037323852080985
 150    -9.3558273172228e-05
 151    9.0815396474372e-05
 152    -8.8757406413992e-06
 153    8.4718853889623e-06
 154    1.3614141178072e-05
 155    1.3668011889382e-05
 156    -4.9138401651366e-06
 157    6.2135302914762e-06
 158    7.2336791307597e-05
 159    5.1799625385394e-05
 160    7.4065675973226e-06
 161    -1.2096783795138e-05
 162    -5.9332040720039e-07
 163    -0.00091743249973238
 164    1.3500902504153e-06
 165    -1.220007134957e-05
 166    -2.9970225779759e-07
 167    5.5610978915232e-06
 168    -1.2371567648901e-05
 169    -8.6853136889879e-05
 170    4.8585325915794e-06
 171    2.1916773616475e-05
 172    -1.6779377041868e-06
 173    -9.4932092219938e-06
 174    4.0778147739314e-06
 175    -1.1793296048773e-06
 176    -1.4639682374923e-07
 177    -0.00024542508874471
 178    -0.0014534558591465
 179    -0.00028960598828649
 180    8.9717865536601e-05
 181    -0.00028365911305018
 182     -0.34330661890793
 183    -0.0016269836667977
 184    0.0015840761847434
 185    8.5105699972322e-05
 186    0.00013017904248189
 187    -0.00012041920353615
 188    0.00072358681721699
 189    0.00026199859691424
 190    -0.00071150488751883
 191    1.7145113769212e-05
 192    -0.00020197626516561
 193    -0.00012438697813385
 194    1.4033083258414e-05
 195    6.7640706844311e-05
 196    -0.00024488450982099
 197    -0.0014620556285564
 198    0.00017094057873323
 199    0.00029573025745266
 200    0.00025432054765916
 201    1.9065115629811e-06
 202    -1.0079117894128e-05
 203    5.7851908176703e-06
 204    -3.2389842289181e-08
 205    2.9510903015319e-07
 206    1.308008988705e-05
 207    4.545957645986e-05
 208    3.4539886718609e-06
 209    -6.9226525757506e-06
 210    1.8419977306601e-06
 211    0.00031316286540229
 212    1.5551332922693e-05
 213    -4.3316170086546e-05
 214    2.8849023499703e-06
 215    7.6346557948285e-07
 216    2.7225882802469e-06
 217    -0.00010761898641911
 218    7.7361329661823e-05
 219    -1.6901477493283e-05
 220    2.4916176150376e-06
 221    5.3642362141528e-06
 222    -4.3078040736932e-06
 223    -2.6160011394358e-06
 224    3.9442301807117e-06
 225    8.9807843066286e-05
 226    -0.00056939555305805
 227    -2.3863706984826e-05
 228    -5.224878062809e-05
 229    -0.00014400637514951
 230    9.6194812048429e-05
 231    -0.00057264901586472
 232    0.00014534517178171
 233    2.0707391026088e-05
 234    5.0749132661669e-05
 235    -0.0065257036982305
 236    0.00017233905227437
 237    -0.00095689144719389
 238    -5.1666022006372e-05
 239    -4.3858459659611e-05
 240    6.1014480231741e-05
 241    0.00023373295590997
 242    -0.00011191573940393
 243    -0.00016860015709921
 244    -2.3818487616197e-05
 245    1.9699552834504e-05
 246    0.00010751318324965
 247    3.7931895190538e-05
 248    -0.00010096832507775
 249    1.2317042234414e-05
 250    -1.1506074528206e-05
 251    3.3102328202473e-06
 252    -3.0811582095219e-06
 253    2.4865088309848e-06
 254    8.1062723407699e-06
 255    5.6841826664616e-09
 256    3.9071974411596e-06
 257    -2.418801223363e-06
 258    2.8887463040769e-06
 259    -0.00032482781114426
 260     7.98811115237e-06
 261    -8.441638042951e-05
 262    -1.5676994630193e-06
 263    3.1765490681236e-07