[Molden Format]
made by pyscf v[2.0.1]
[Atoms] (AU)
O   1   8     0.00000000000000     0.00000000000000     6.78435311142442
H   2   1     0.00000000000000     0.00000000000000     4.96095128952346
H   3   1    -0.05031916615174     1.78353065140343     7.16022480789109
O   4   8     0.00000000000000     0.00000000000000     2.31533471513237
C   5   6     0.00000000000000     0.00000000000000     0.00000000000000
C   6   6     2.01118073026938    -1.40227222164369    -1.50774939176400
C   7   6    -2.01249334291722     1.41331050329955    -1.50315905028694
H   8   1     3.32037363730244    -2.26721897153159    -0.13599698591495
C   9   6     3.45899267434009     0.28739631745591    -3.37437943254505
H   10   1     1.07662969841332    -2.94725144642667    -2.56541439481080
H   11   1    -2.67503415753480     0.18421555839588    -3.06194479365997
H   12   1    -1.07974048864772     3.03851734677796    -2.43674295017013
C   13   6    -4.21607110578555     2.32938802552922     0.11994162256091
H   14   1     4.24440173074564     1.93368664142019    -2.34976285512790
H   15   1     2.15020713235517     1.04714335134846    -4.81494497423699
C   16   6     5.60746363007797    -1.12419643481196    -4.70268606082550
H   17   1    -3.46838323670267     3.50951302338067     1.66946842715333
H   18   1    -5.11873485366228     0.68575958301209     1.04047743976495
C   19   6    -6.18314754751344     3.80909592987882    -1.39656589068747
H   20   1     6.93011263717176    -1.87550812453645    -3.26656317360070
C   21   6     7.06356622236532     0.52877932406334    -6.57829775293605
H   22   1     4.82318879258361    -2.78573437948532    -5.70504560381835
H   23   1    -6.91582688743803     2.61304780074712    -2.95074552451969
H   24   1    -5.26532430573853     5.45420349051338    -2.31005832200284
C   25   6    -8.39941882261433     4.73263980500213     0.21800571437956
H   26   1     7.83338371486801     2.19084139882824    -5.57093109900697
H   27   1     5.73544244039420     1.27376866537418    -8.01071492370229
C   28   6     9.21124858443101    -0.89699110072176    -7.88926949186242
H   29   1    -7.66272760055236     5.92277078003992     1.77035591474408
H   30   1    -9.31497248082589     3.08753015622020     1.12614408368786
C   31   6   -10.35481709231879     6.21833079391143    -1.30905206253246
H   32   1    10.58815905329501    -1.61074586756696    -6.49512691622620
H   33   1    10.23506248045667     0.32468009384095    -9.23072870921204
H   34   1     8.47665842847139    -2.53598436989925    -8.94921964622535
H   35   1    -9.48948872868064     7.90013588951020    -2.18823918416067
H   36   1   -11.93332513000955     6.86460487874102    -0.11255798845995
H   37   1   -11.15126291841033     5.04495968327630    -2.83849898862534
[GTO]
1 0
 s    8 1.00
                 11720  0.00070964594651845
                  1759  0.0054672722921914
                 400.8   0.027823118610189
                 113.7    0.10474773971146
                 37.03    0.28292084635691
                 13.27    0.44849523869833
                 5.025    0.27081688521277
                 1.013    0.01545029160744
 s    8 1.00
                 11720  -0.00031444341168873
                  1759  -0.0024821376810179
                 400.8  -0.012316355381583
                 113.7  -0.050538917343672
                 37.03   -0.13938490331632
                 13.27   -0.32507749481778
                 5.025   -0.22984830758785
                 1.013     1.0953793467883
 s    1 1.00
                0.3023                   1
 p    3 1.00
                  17.7   0.062679166281506
                 3.854    0.33353656587936
                 1.046    0.74123964163973
 p    1 1.00
                0.2753                   1
 d    1 1.00
                 1.185                   1

2 0
 s    3 1.00
                 13.01   0.033498726389998
                 1.962    0.23480080117413
                0.4446     0.8136829578829
 s    1 1.00
                 0.122                   1
 p    1 1.00
                 0.727                   1

3 0
 s    3 1.00
                 13.01   0.033498726389998
                 1.962    0.23480080117413
                0.4446     0.8136829578829
 s    1 1.00
                 0.122                   1
 p    1 1.00
                 0.727                   1

4 0
 s    8 1.00
                 11720  0.00070964594651845
                  1759  0.0054672722921914
                 400.8   0.027823118610189
                 113.7    0.10474773971146
                 37.03    0.28292084635691
                 13.27    0.44849523869833
                 5.025    0.27081688521277
                 1.013    0.01545029160744
 s    8 1.00
                 11720  -0.00031444341168873
                  1759  -0.0024821376810179
                 400.8  -0.012316355381583
                 113.7  -0.050538917343672
                 37.03   -0.13938490331632
                 13.27   -0.32507749481778
                 5.025   -0.22984830758785
                 1.013     1.0953793467883
 s    1 1.00
                0.3023                   1
 p    3 1.00
                  17.7   0.062679166281506
                 3.854    0.33353656587936
                 1.046    0.74123964163973
 p    1 1.00
                0.2753                   1
 d    1 1.00
                 1.185                   1

5 0
 s    8 1.00
                  6665  0.00069158396281299
                  1000  0.0053257961529341
                   228   0.027060721042034
                 64.71    0.10165684614077
                 21.06     0.2745748236174
                 7.495    0.44829431892377
                 2.797    0.28490261071525
                0.5215   0.015194859206082
 s    8 1.00
                  6665  -0.00029326965268655
                  1000  -0.0023180354739745
                   228  -0.011499786038565
                 64.71  -0.046826727009787
                 21.06   -0.12846616875047
                 7.495   -0.30126627246289
                 2.797   -0.25563070233011
                0.5215      1.093793361012
 s    1 1.00
                0.1596                   1
 p    3 1.00
                 9.439   0.056979251590039
                 2.002    0.31320721150073
                0.5456    0.76037674173753
 p    1 1.00
                0.1517                   1
 d    1 1.00
                  0.55                   1

6 0
 s    8 1.00
                  6665  0.00069158396281299
                  1000  0.0053257961529341
                   228   0.027060721042034
                 64.71    0.10165684614077
                 21.06     0.2745748236174
                 7.495    0.44829431892377
                 2.797    0.28490261071525
                0.5215   0.015194859206082
 s    8 1.00
                  6665  -0.00029326965268655
                  1000  -0.0023180354739745
                   228  -0.011499786038565
                 64.71  -0.046826727009787
                 21.06   -0.12846616875047
                 7.495   -0.30126627246289
                 2.797   -0.25563070233011
                0.5215      1.093793361012
 s    1 1.00
                0.1596                   1
 p    3 1.00
                 9.439   0.056979251590039
                 2.002    0.31320721150073
                0.5456    0.76037674173753
 p    1 1.00
                0.1517                   1
 d    1 1.00
                  0.55                   1

7 0
 s    8 1.00
                  6665  0.00069158396281299
                  1000  0.0053257961529341
                   228   0.027060721042034
                 64.71    0.10165684614077
                 21.06     0.2745748236174
                 7.495    0.44829431892377
                 2.797    0.28490261071525
                0.5215   0.015194859206082
 s    8 1.00
                  6665  -0.00029326965268655
                  1000  -0.0023180354739745
                   228  -0.011499786038565
                 64.71  -0.046826727009787
                 21.06   -0.12846616875047
                 7.495   -0.30126627246289
                 2.797   -0.25563070233011
                0.5215      1.093793361012
 s    1 1.00
                0.1596                   1
 p    3 1.00
                 9.439   0.056979251590039
                 2.002    0.31320721150073
                0.5456    0.76037674173753
 p    1 1.00
                0.1517                   1
 d    1 1.00
                  0.55                   1

8 0
 s    3 1.00
                 13.01   0.033498726389998
                 1.962    0.23480080117413
                0.4446     0.8136829578829
 s    1 1.00
                 0.122                   1
 p    1 1.00
                 0.727                   1

9 0
 s    8 1.00
                  6665  0.00069158396281299
                  1000  0.0053257961529341
                   228   0.027060721042034
                 64.71    0.10165684614077
                 21.06     0.2745748236174
                 7.495    0.44829431892377
                 2.797    0.28490261071525
                0.5215   0.015194859206082
 s    8 1.00
                  6665  -0.00029326965268655
                  1000  -0.0023180354739745
                   228  -0.011499786038565
                 64.71  -0.046826727009787
                 21.06   -0.12846616875047
                 7.495   -0.30126627246289
                 2.797   -0.25563070233011
                0.5215      1.093793361012
 s    1 1.00
                0.1596                   1
 p    3 1.00
                 9.439   0.056979251590039
                 2.002    0.31320721150073
                0.5456    0.76037674173753
 p    1 1.00
                0.1517                   1
 d    1 1.00
                  0.55                   1

10 0
 s    3 1.00
                 13.01   0.033498726389998
                 1.962    0.23480080117413
                0.4446     0.8136829578829
 s    1 1.00
                 0.122                   1
 p    1 1.00
                 0.727                   1

11 0
 s    3 1.00
                 13.01   0.033498726389998
                 1.962    0.23480080117413
                0.4446     0.8136829578829
 s    1 1.00
                 0.122                   1
 p    1 1.00
                 0.727                   1

12 0
 s    3 1.00
                 13.01   0.033498726389998
                 1.962    0.23480080117413
                0.4446     0.8136829578829
 s    1 1.00
                 0.122                   1
 p    1 1.00
                 0.727                   1

13 0
 s    8 1.00
                  6665  0.00069158396281299
                  1000  0.0053257961529341
                   228   0.027060721042034
                 64.71    0.10165684614077
                 21.06     0.2745748236174
                 7.495    0.44829431892377
                 2.797    0.28490261071525
                0.5215   0.015194859206082
 s    8 1.00
                  6665  -0.00029326965268655
                  1000  -0.0023180354739745
                   228  -0.011499786038565
                 64.71  -0.046826727009787
                 21.06   -0.12846616875047
                 7.495   -0.30126627246289
                 2.797   -0.25563070233011
                0.5215      1.093793361012
 s    1 1.00
                0.1596                   1
 p    3 1.00
                 9.439   0.056979251590039
                 2.002    0.31320721150073
                0.5456    0.76037674173753
 p    1 1.00
                0.1517                   1
 d    1 1.00
                  0.55                   1

14 0
 s    3 1.00
                 13.01   0.033498726389998
                 1.962    0.23480080117413
                0.4446     0.8136829578829
 s    1 1.00
                 0.122                   1
 p    1 1.00
                 0.727                   1

15 0
 s    3 1.00
                 13.01   0.033498726389998
                 1.962    0.23480080117413
                0.4446     0.8136829578829
 s    1 1.00
                 0.122                   1
 p    1 1.00
                 0.727                   1

16 0
 s    8 1.00
                  6665  0.00069158396281299
                  1000  0.0053257961529341
                   228   0.027060721042034
                 64.71    0.10165684614077
                 21.06     0.2745748236174
                 7.495    0.44829431892377
                 2.797    0.28490261071525
                0.5215   0.015194859206082
 s    8 1.00
                  6665  -0.00029326965268655
                  1000  -0.0023180354739745
                   228  -0.011499786038565
                 64.71  -0.046826727009787
                 21.06   -0.12846616875047
                 7.495   -0.30126627246289
                 2.797   -0.25563070233011
                0.5215      1.093793361012
 s    1 1.00
                0.1596                   1
 p    3 1.00
                 9.439   0.056979251590039
                 2.002    0.31320721150073
                0.5456    0.76037674173753
 p    1 1.00
                0.1517                   1
 d    1 1.00
                  0.55                   1

17 0
 s    3 1.00
                 13.01   0.033498726389998
                 1.962    0.23480080117413
                0.4446     0.8136829578829
 s    1 1.00
                 0.122                   1
 p    1 1.00
                 0.727                   1

18 0
 s    3 1.00
                 13.01   0.033498726389998
                 1.962    0.23480080117413
                0.4446     0.8136829578829
 s    1 1.00
                 0.122                   1
 p    1 1.00
                 0.727                   1

19 0
 s    8 1.00
                  6665  0.00069158396281299
                  1000  0.0053257961529341
                   228   0.027060721042034
                 64.71    0.10165684614077
                 21.06     0.2745748236174
                 7.495    0.44829431892377
                 2.797    0.28490261071525
                0.5215   0.015194859206082
 s    8 1.00
                  6665  -0.00029326965268655
                  1000  -0.0023180354739745
                   228  -0.011499786038565
                 64.71  -0.046826727009787
                 21.06   -0.12846616875047
                 7.495   -0.30126627246289
                 2.797   -0.25563070233011
                0.5215      1.093793361012
 s    1 1.00
                0.1596                   1
 p    3 1.00
                 9.439   0.056979251590039
                 2.002    0.31320721150073
                0.5456    0.76037674173753
 p    1 1.00
                0.1517                   1
 d    1 1.00
                  0.55                   1

20 0
 s    3 1.00
                 13.01   0.033498726389998
                 1.962    0.23480080117413
                0.4446     0.8136829578829
 s    1 1.00
                 0.122                   1
 p    1 1.00
                 0.727                   1

21 0
 s    8 1.00
                  6665  0.00069158396281299
                  1000  0.0053257961529341
                   228   0.027060721042034
                 64.71    0.10165684614077
                 21.06     0.2745748236174
                 7.495    0.44829431892377
                 2.797    0.28490261071525
                0.5215   0.015194859206082
 s    8 1.00
                  6665  -0.00029326965268655
                  1000  -0.0023180354739745
                   228  -0.011499786038565
                 64.71  -0.046826727009787
                 21.06   -0.12846616875047
                 7.495   -0.30126627246289
                 2.797   -0.25563070233011
                0.5215      1.093793361012
 s    1 1.00
                0.1596                   1
 p    3 1.00
                 9.439   0.056979251590039
                 2.002    0.31320721150073
                0.5456    0.76037674173753
 p    1 1.00
                0.1517                   1
 d    1 1.00
                  0.55                   1

22 0
 s    3 1.00
                 13.01   0.033498726389998
                 1.962    0.23480080117413
                0.4446     0.8136829578829
 s    1 1.00
                 0.122                   1
 p    1 1.00
                 0.727                   1

23 0
 s    3 1.00
                 13.01   0.033498726389998
                 1.962    0.23480080117413
                0.4446     0.8136829578829
 s    1 1.00
                 0.122                   1
 p    1 1.00
                 0.727                   1

24 0
 s    3 1.00
                 13.01   0.033498726389998
                 1.962    0.23480080117413
                0.4446     0.8136829578829
 s    1 1.00
                 0.122                   1
 p    1 1.00
                 0.727                   1

25 0
 s    8 1.00
                  6665  0.00069158396281299
                  1000  0.0053257961529341
                   228   0.027060721042034
                 64.71    0.10165684614077
                 21.06     0.2745748236174
                 7.495    0.44829431892377
                 2.797    0.28490261071525
                0.5215   0.015194859206082
 s    8 1.00
                  6665  -0.00029326965268655
                  1000  -0.0023180354739745
                   228  -0.011499786038565
                 64.71  -0.046826727009787
                 21.06   -0.12846616875047
                 7.495   -0.30126627246289
                 2.797   -0.25563070233011
                0.5215      1.093793361012
 s    1 1.00
                0.1596                   1
 p    3 1.00
                 9.439   0.056979251590039
                 2.002    0.31320721150073
                0.5456    0.76037674173753
 p    1 1.00
                0.1517                   1
 d    1 1.00
                  0.55                   1

26 0
 s    3 1.00
                 13.01   0.033498726389998
                 1.962    0.23480080117413
                0.4446     0.8136829578829
 s    1 1.00
                 0.122                   1
 p    1 1.00
                 0.727                   1

27 0
 s    3 1.00
                 13.01   0.033498726389998
                 1.962    0.23480080117413
                0.4446     0.8136829578829
 s    1 1.00
                 0.122                   1
 p    1 1.00
                 0.727                   1

28 0
 s    8 1.00
                  6665  0.00069158396281299
                  1000  0.0053257961529341
                   228   0.027060721042034
                 64.71    0.10165684614077
                 21.06     0.2745748236174
                 7.495    0.44829431892377
                 2.797    0.28490261071525
                0.5215   0.015194859206082
 s    8 1.00
                  6665  -0.00029326965268655
                  1000  -0.0023180354739745
                   228  -0.011499786038565
                 64.71  -0.046826727009787
                 21.06   -0.12846616875047
                 7.495   -0.30126627246289
                 2.797   -0.25563070233011
                0.5215      1.093793361012
 s    1 1.00
                0.1596                   1
 p    3 1.00
                 9.439   0.056979251590039
                 2.002    0.31320721150073
                0.5456    0.76037674173753
 p    1 1.00
                0.1517                   1
 d    1 1.00
                  0.55                   1

29 0
 s    3 1.00
                 13.01   0.033498726389998
                 1.962    0.23480080117413
                0.4446     0.8136829578829
 s    1 1.00
                 0.122                   1
 p    1 1.00
                 0.727                   1

30 0
 s    3 1.00
                 13.01   0.033498726389998
                 1.962    0.23480080117413
                0.4446     0.8136829578829
 s    1 1.00
                 0.122                   1
 p    1 1.00
                 0.727                   1

31 0
 s    8 1.00
                  6665  0.00069158396281299
                  1000  0.0053257961529341
                   228   0.027060721042034
                 64.71    0.10165684614077
                 21.06     0.2745748236174
                 7.495    0.44829431892377
                 2.797    0.28490261071525
                0.5215   0.015194859206082
 s    8 1.00
                  6665  -0.00029326965268655
                  1000  -0.0023180354739745
                   228  -0.011499786038565
                 64.71  -0.046826727009787
                 21.06   -0.12846616875047
                 7.495   -0.30126627246289
                 2.797   -0.25563070233011
                0.5215      1.093793361012
 s    1 1.00
                0.1596                   1
 p    3 1.00
                 9.439   0.056979251590039
                 2.002    0.31320721150073
                0.5456    0.76037674173753
 p    1 1.00
                0.1517                   1
 d    1 1.00
                  0.55                   1

32 0
 s    3 1.00
                 13.01   0.033498726389998
                 1.962    0.23480080117413
                0.4446     0.8136829578829
 s    1 1.00
                 0.122                   1
 p    1 1.00
                 0.727                   1

33 0
 s    3 1.00
                 13.01   0.033498726389998
                 1.962    0.23480080117413
                0.4446     0.8136829578829
 s    1 1.00
                 0.122                   1
 p    1 1.00
                 0.727                   1

34 0
 s    3 1.00
                 13.01   0.033498726389998
                 1.962    0.23480080117413
                0.4446     0.8136829578829
 s    1 1.00
                 0.122                   1
 p    1 1.00
                 0.727                   1

35 0
 s    3 1.00
                 13.01   0.033498726389998
                 1.962    0.23480080117413
                0.4446     0.8136829578829
 s    1 1.00
                 0.122                   1
 p    1 1.00
                 0.727                   1

36 0
 s    3 1.00
                 13.01   0.033498726389998
                 1.962    0.23480080117413
                0.4446     0.8136829578829
 s    1 1.00
                 0.122                   1
 p    1 1.00
                 0.727                   1

37 0
 s    3 1.00
                 13.01   0.033498726389998
                 1.962    0.23480080117413
                0.4446     0.8136829578829
 s    1 1.00
                 0.122                   1
 p    1 1.00
                 0.727                   1

[5d]
[7f]
[9g]

[MO]
 Sym= A
 Ene=               0
 Spin= Alpha
 Occup=    1.00000
   1    5.9828614006327e-06
   2    1.196601520866e-05
   3    -2.4216157595303e-05
   4    2.9482452511874e-06
   5    -2.0757336926837e-06
   6    5.4859913049084e-07
   7    -1.2694391272827e-06
   8    -2.722472865153e-06
   9    2.299258012253e-06
  10    5.0098506942945e-07
  11    -1.0759811366824e-06
  12    2.4478009165606e-07
  13    3.6523339159901e-07
  14    -2.1434055526203e-07
  15    4.5199575400995e-06
  16    2.7911697019511e-05
  17    -6.3369002985278e-06
  18    2.8629741643907e-06
  19    -3.7998691114634e-06
  20    4.3353902302774e-07
  21    1.3290796968129e-05
  22    -2.8769358406458e-07
  23    -3.702084604804e-06
  24    -1.0835635440112e-06
  25    8.4574436746539e-06
  26    2.2965536047092e-05
  27    6.5553845802375e-05
  28    -3.1242904059289e-05
  29    9.6622341490584e-06
  30    -1.4691356450042e-05
  31    6.0726295095356e-05
  32    -4.4705619162049e-05
  33    -6.5498093805946e-05
  34    -2.8432034889021e-07
  35    2.8323158068188e-06
  36    -1.201948742191e-06
  37    -2.1463265952354e-06
  38    1.831774582767e-06
  39    0.00011299071772853
  40    0.00025564280594383
  41    -0.00091423287909561
  42    -6.7841106507523e-05
  43    6.2434408144011e-05
  44    -9.1530318686668e-05
  45    -0.0003885733231622
  46    0.00027664229264515
  47    0.00019586576189091
  48    1.0062837154454e-05
  49    4.5657196877478e-05
  50    -2.4890242792531e-05
  51    -8.0040056287892e-06
  52    3.472633411199e-05
  53    3.1929242403612e-05
  54    0.00015477614120727
  55    0.00037584141318842
  56    0.00012653474768425
  57    0.00012339728018975
  58    -0.00014706941484504
  59    -0.00064768665710848
  60    0.00027047266067445
  61    0.00039912837751425
  62    4.2887653529062e-06
  63    -3.7024783247154e-05
  64    2.6721596688259e-05
  65    3.6336533813441e-05
  66    -3.0087246915549e-05
  67    9.3714905449326e-05
  68    7.5640610264024e-05
  69    0.00062592041205545
  70    3.3222856719162e-06
  71    -4.4908913627518e-05
  72    0.00012098970147308
  73    -0.00027156689587371
  74    0.00011614159972858
  75    0.00028120320347529
  76    1.0601008587099e-05
  77    -8.7037502965794e-05
  78    8.4121520079327e-05
  79    3.7679690516679e-05
  80    -6.4237154828187e-05
  81    3.4693844752499e-05
  82    2.1153809450278e-05
  83    1.992220876703e-05
  84    -6.126820508538e-06
  85    -2.974814972493e-05
  86    0.00029848403776138
  87    0.00069000886371864
  88    -0.0007029077613402
  89    0.00052666421657566
  90    -0.00043387808005044
  91    -0.00029747015770913
  92    -0.00042388161482746
  93    -0.00028819940306948
  94    0.00048785602625459
  95    7.6927672695334e-06
  96    -4.2309052259696e-05
  97    -5.0723016747381e-05
  98    7.8050279847973e-05
  99    2.7930869086796e-05
 100    -2.7327341404564e-05
 101    -0.00010533327853518
 102    3.8028385735555e-05
 103    -8.6781237200265e-06
 104    -1.6900414335258e-05
 105    0.00010092283564774
 106    0.00018590717801453
 107    1.7141504809407e-05
 108    2.5922997786284e-06
 109    -8.3870450720849e-06
 110    -7.6293055462544e-05
 111    -0.0001872850640807
 112    8.2437039087771e-06
 113    -1.0897542453767e-05
 114    -1.3298669268595e-05
 115    -0.072994221486887
 116    0.0015038734414645
 117    0.00054978428316828
 118    9.9420835680935e-05
 119    0.00063283341749093
 120    0.00081024858344888
 121    -0.00016742652842359
 122    0.00037772641082533
 123    0.00088319385484324
 124    8.6322301916092e-05
 125    0.00012056573279281
 126    5.9901539371511e-05
 127    5.6327771978452e-05
 128    3.0741490410117e-05
 129    -0.00013165834762404
 130    -0.00022670247239856
 131    3.8448429538877e-05
 132    -2.9331968464258e-06
 133    -5.3595316084727e-05
 134    1.818719472342e-05
 135    0.0001039448380607
 136    5.0869854074818e-05
 137    -1.9556392719011e-06
 138    -2.263694861633e-05
 139    -0.077866470306289
 140    -0.00088042175506758
 141    -0.00083428556757759
 142    0.00029828903161653
 143    0.0027211935397178
 144    0.00030145687940741
 145    -0.0011179833381418
 146    0.0011537170882803
 147    0.0013054144126433
 148    -1.6379968223229e-05
 149    -0.00018667495980634
 150    -0.00016898854630285
 151    8.7439696078055e-06
 152    2.9384400270201e-06
 153    0.0019946025764383
 154    0.00046644525982293
 155    -3.6049183875252e-05
 156    -0.00010964402467645
 157    -0.00015074229293932
 158    0.00061106479845242
 159    -0.00041255811577951
 160    0.00010534496445436
 161    9.1145736621122e-05
 162    -3.4848250789831e-05
 163     -0.22233437529967
 164    -0.0014362781238134
 165     0.003885756421332
 166    5.8032608034822e-05
 167    -0.0023102526735662
 168    -0.00080971052859848
 169    -0.00047002429609949
 170    -0.00099666446276787
 171    0.00039543342893354
 172    2.8165698984179e-05
 173    0.00030934820643447
 174    3.5237258624769e-05
 175    3.4952118323554e-07
 176    -7.7137294541043e-05
 177    -0.00075371190857711
 178    -0.00033790870876689
 179    8.1715075053197e-05
 180    2.0333085971887e-06
 181    3.3763840229232e-05
 182     -0.55758662786029
 183    -0.0016664343387616
 184    0.0062342085207937
 185    -0.00073960115318838
 186    0.00063110546182606
 187    0.0012572345526318
 188    -0.00091609790265086
 189    -0.00016794206711183
 190    0.0012190082765018
 191    3.8378130623083e-05
 192    -0.00026291538374001
 193    -3.1593674006693e-05
 194    4.9991838520134e-05
 195    -2.4883149757449e-05
 196    -0.0024020381398464
 197    -0.00097016698667832
 198    -2.5945190418743e-05
 199    -0.00014198552866938
 200    -0.00010660614295813
 201    0.0017378914959636
 202    0.00082337201423747
 203    5.3568140807874e-05
 204    0.00011980257013346
 205    0.00016506202912743
 206    -0.0016084334834892
 207    -0.00087403300482007
 208    -5.2663562845687e-05
 209    -4.0694762145063e-05
 210    -5.0801273828731e-05
 211      0.54350970335467
 212    0.0026550517677519
 213    -0.007650528666905
 214    -0.0012111450356505
 215    0.0011453223408797
 216    0.00032866228476812
 217    -0.00098145300159629
 218    0.00057830664826983
 219    0.0010252487528768
 220    6.9902984520533e-05
 221    0.00016834456225767
 222    3.5988058736004e-05
 223    -0.00014735839985682
 224    5.9258243259901e-05
 225    0.0012171966182372
 226    -0.00052887683780712
 227    -0.00018667560495687
 228    -0.00024025565340291
 229    -0.00018981398084261
 230    0.0004053469240757
 231    -0.00078977737533624
 232    0.00017914100114456
 233    -2.5879708627785e-05
 234    0.00024703503174053
 235     -0.55735483109239
 236    -0.0027343970562257
 237    0.0039223936612691
 238    0.00028926857096412
 239    -0.0006213460107927
 240    -0.00026717792037348
 241    7.1855360044467e-05
 242    -0.00051836304055306
 243    -3.7423104052047e-05
 244    -3.5847810254887e-05
 245    -0.00011542550061395
 246    0.00014236854021084
 247    4.2681959893299e-05
 248    -0.00015376895378208
 249    0.00060735505896239
 250    0.0010295050051704
 251    7.5641808864926e-05
 252    0.0001766203640953
 253    0.0001573725095523
 254    -0.00032475280803138
 255    0.00028505305821765
 256    -0.00016114240759546
 257    -0.00019879736236766
 258    0.00011449092252254
 259     -0.16492361308444
 260    -0.0004933162720738
 261    0.0032996956831859
 262    0.0010573779658238
 263    -0.00050179818541076
 264    0.00041023012460551