[Molden Format]
made by pyscf v[2.0.1]
[Atoms] (AU)
O   1   8     0.00000000000000     0.00000000000000    10.56380536055454
H   2   1     0.00000000000000     0.00000000000000     8.74040353865358
H   3   1    -0.05031916615174     1.78353065140343    10.93967705702121
O   4   8     0.00000000000000     0.00000000000000     2.31533471513237
C   5   6     0.00000000000000     0.00000000000000     0.00000000000000
C   6   6     2.01118073026938    -1.40227222164369    -1.50774939176400
C   7   6    -2.01249334291722     1.41331050329955    -1.50315905028694
H   8   1     3.32037363730244    -2.26721897153159    -0.13599698591495
C   9   6     3.45899267434009     0.28739631745591    -3.37437943254505
H   10   1     1.07662969841332    -2.94725144642667    -2.56541439481080
H   11   1    -2.67503415753480     0.18421555839588    -3.06194479365997
H   12   1    -1.07974048864772     3.03851734677796    -2.43674295017013
C   13   6    -4.21607110578555     2.32938802552922     0.11994162256091
H   14   1     4.24440173074564     1.93368664142019    -2.34976285512790
H   15   1     2.15020713235517     1.04714335134846    -4.81494497423699
C   16   6     5.60746363007797    -1.12419643481196    -4.70268606082550
H   17   1    -3.46838323670267     3.50951302338067     1.66946842715333
H   18   1    -5.11873485366228     0.68575958301209     1.04047743976495
C   19   6    -6.18314754751344     3.80909592987882    -1.39656589068747
H   20   1     6.93011263717176    -1.87550812453645    -3.26656317360070
C   21   6     7.06356622236532     0.52877932406334    -6.57829775293605
H   22   1     4.82318879258361    -2.78573437948532    -5.70504560381835
H   23   1    -6.91582688743803     2.61304780074712    -2.95074552451969
H   24   1    -5.26532430573853     5.45420349051338    -2.31005832200284
C   25   6    -8.39941882261433     4.73263980500213     0.21800571437956
H   26   1     7.83338371486801     2.19084139882824    -5.57093109900697
H   27   1     5.73544244039420     1.27376866537418    -8.01071492370229
C   28   6     9.21124858443101    -0.89699110072176    -7.88926949186242
H   29   1    -7.66272760055236     5.92277078003992     1.77035591474408
H   30   1    -9.31497248082589     3.08753015622020     1.12614408368786
C   31   6   -10.35481709231879     6.21833079391143    -1.30905206253246
H   32   1    10.58815905329501    -1.61074586756696    -6.49512691622620
H   33   1    10.23506248045667     0.32468009384095    -9.23072870921204
H   34   1     8.47665842847139    -2.53598436989925    -8.94921964622535
H   35   1    -9.48948872868064     7.90013588951020    -2.18823918416067
H   36   1   -11.93332513000955     6.86460487874102    -0.11255798845995
H   37   1   -11.15126291841033     5.04495968327630    -2.83849898862534
[GTO]
1 0
 s    8 1.00
                 11720  0.00070964594651845
                  1759  0.0054672722921914
                 400.8   0.027823118610189
                 113.7    0.10474773971146
                 37.03    0.28292084635691
                 13.27    0.44849523869833
                 5.025    0.27081688521277
                 1.013    0.01545029160744
 s    8 1.00
                 11720  -0.00031444341168873
                  1759  -0.0024821376810179
                 400.8  -0.012316355381583
                 113.7  -0.050538917343672
                 37.03   -0.13938490331632
                 13.27   -0.32507749481778
                 5.025   -0.22984830758785
                 1.013     1.0953793467883
 s    1 1.00
                0.3023                   1
 p    3 1.00
                  17.7   0.062679166281506
                 3.854    0.33353656587936
                 1.046    0.74123964163973
 p    1 1.00
                0.2753                   1
 d    1 1.00
                 1.185                   1

2 0
 s    3 1.00
                 13.01   0.033498726389998
                 1.962    0.23480080117413
                0.4446     0.8136829578829
 s    1 1.00
                 0.122                   1
 p    1 1.00
                 0.727                   1

3 0
 s    3 1.00
                 13.01   0.033498726389998
                 1.962    0.23480080117413
                0.4446     0.8136829578829
 s    1 1.00
                 0.122                   1
 p    1 1.00
                 0.727                   1

4 0
 s    8 1.00
                 11720  0.00070964594651845
                  1759  0.0054672722921914
                 400.8   0.027823118610189
                 113.7    0.10474773971146
                 37.03    0.28292084635691
                 13.27    0.44849523869833
                 5.025    0.27081688521277
                 1.013    0.01545029160744
 s    8 1.00
                 11720  -0.00031444341168873
                  1759  -0.0024821376810179
                 400.8  -0.012316355381583
                 113.7  -0.050538917343672
                 37.03   -0.13938490331632
                 13.27   -0.32507749481778
                 5.025   -0.22984830758785
                 1.013     1.0953793467883
 s    1 1.00
                0.3023                   1
 p    3 1.00
                  17.7   0.062679166281506
                 3.854    0.33353656587936
                 1.046    0.74123964163973
 p    1 1.00
                0.2753                   1
 d    1 1.00
                 1.185                   1

5 0
 s    8 1.00
                  6665  0.00069158396281299
                  1000  0.0053257961529341
                   228   0.027060721042034
                 64.71    0.10165684614077
                 21.06     0.2745748236174
                 7.495    0.44829431892377
                 2.797    0.28490261071525
                0.5215   0.015194859206082
 s    8 1.00
                  6665  -0.00029326965268655
                  1000  -0.0023180354739745
                   228  -0.011499786038565
                 64.71  -0.046826727009787
                 21.06   -0.12846616875047
                 7.495   -0.30126627246289
                 2.797   -0.25563070233011
                0.5215      1.093793361012
 s    1 1.00
                0.1596                   1
 p    3 1.00
                 9.439   0.056979251590039
                 2.002    0.31320721150073
                0.5456    0.76037674173753
 p    1 1.00
                0.1517                   1
 d    1 1.00
                  0.55                   1

6 0
 s    8 1.00
                  6665  0.00069158396281299
                  1000  0.0053257961529341
                   228   0.027060721042034
                 64.71    0.10165684614077
                 21.06     0.2745748236174
                 7.495    0.44829431892377
                 2.797    0.28490261071525
                0.5215   0.015194859206082
 s    8 1.00
                  6665  -0.00029326965268655
                  1000  -0.0023180354739745
                   228  -0.011499786038565
                 64.71  -0.046826727009787
                 21.06   -0.12846616875047
                 7.495   -0.30126627246289
                 2.797   -0.25563070233011
                0.5215      1.093793361012
 s    1 1.00
                0.1596                   1
 p    3 1.00
                 9.439   0.056979251590039
                 2.002    0.31320721150073
                0.5456    0.76037674173753
 p    1 1.00
                0.1517                   1
 d    1 1.00
                  0.55                   1

7 0
 s    8 1.00
                  6665  0.00069158396281299
                  1000  0.0053257961529341
                   228   0.027060721042034
                 64.71    0.10165684614077
                 21.06     0.2745748236174
                 7.495    0.44829431892377
                 2.797    0.28490261071525
                0.5215   0.015194859206082
 s    8 1.00
                  6665  -0.00029326965268655
                  1000  -0.0023180354739745
                   228  -0.011499786038565
                 64.71  -0.046826727009787
                 21.06   -0.12846616875047
                 7.495   -0.30126627246289
                 2.797   -0.25563070233011
                0.5215      1.093793361012
 s    1 1.00
                0.1596                   1
 p    3 1.00
                 9.439   0.056979251590039
                 2.002    0.31320721150073
                0.5456    0.76037674173753
 p    1 1.00
                0.1517                   1
 d    1 1.00
                  0.55                   1

8 0
 s    3 1.00
                 13.01   0.033498726389998
                 1.962    0.23480080117413
                0.4446     0.8136829578829
 s    1 1.00
                 0.122                   1
 p    1 1.00
                 0.727                   1

9 0
 s    8 1.00
                  6665  0.00069158396281299
                  1000  0.0053257961529341
                   228   0.027060721042034
                 64.71    0.10165684614077
                 21.06     0.2745748236174
                 7.495    0.44829431892377
                 2.797    0.28490261071525
                0.5215   0.015194859206082
 s    8 1.00
                  6665  -0.00029326965268655
                  1000  -0.0023180354739745
                   228  -0.011499786038565
                 64.71  -0.046826727009787
                 21.06   -0.12846616875047
                 7.495   -0.30126627246289
                 2.797   -0.25563070233011
                0.5215      1.093793361012
 s    1 1.00
                0.1596                   1
 p    3 1.00
                 9.439   0.056979251590039
                 2.002    0.31320721150073
                0.5456    0.76037674173753
 p    1 1.00
                0.1517                   1
 d    1 1.00
                  0.55                   1

10 0
 s    3 1.00
                 13.01   0.033498726389998
                 1.962    0.23480080117413
                0.4446     0.8136829578829
 s    1 1.00
                 0.122                   1
 p    1 1.00
                 0.727                   1

11 0
 s    3 1.00
                 13.01   0.033498726389998
                 1.962    0.23480080117413
                0.4446     0.8136829578829
 s    1 1.00
                 0.122                   1
 p    1 1.00
                 0.727                   1

12 0
 s    3 1.00
                 13.01   0.033498726389998
                 1.962    0.23480080117413
                0.4446     0.8136829578829
 s    1 1.00
                 0.122                   1
 p    1 1.00
                 0.727                   1

13 0
 s    8 1.00
                  6665  0.00069158396281299
                  1000  0.0053257961529341
                   228   0.027060721042034
                 64.71    0.10165684614077
                 21.06     0.2745748236174
                 7.495    0.44829431892377
                 2.797    0.28490261071525
                0.5215   0.015194859206082
 s    8 1.00
                  6665  -0.00029326965268655
                  1000  -0.0023180354739745
                   228  -0.011499786038565
                 64.71  -0.046826727009787
                 21.06   -0.12846616875047
                 7.495   -0.30126627246289
                 2.797   -0.25563070233011
                0.5215      1.093793361012
 s    1 1.00
                0.1596                   1
 p    3 1.00
                 9.439   0.056979251590039
                 2.002    0.31320721150073
                0.5456    0.76037674173753
 p    1 1.00
                0.1517                   1
 d    1 1.00
                  0.55                   1

14 0
 s    3 1.00
                 13.01   0.033498726389998
                 1.962    0.23480080117413
                0.4446     0.8136829578829
 s    1 1.00
                 0.122                   1
 p    1 1.00
                 0.727                   1

15 0
 s    3 1.00
                 13.01   0.033498726389998
                 1.962    0.23480080117413
                0.4446     0.8136829578829
 s    1 1.00
                 0.122                   1
 p    1 1.00
                 0.727                   1

16 0
 s    8 1.00
                  6665  0.00069158396281299
                  1000  0.0053257961529341
                   228   0.027060721042034
                 64.71    0.10165684614077
                 21.06     0.2745748236174
                 7.495    0.44829431892377
                 2.797    0.28490261071525
                0.5215   0.015194859206082
 s    8 1.00
                  6665  -0.00029326965268655
                  1000  -0.0023180354739745
                   228  -0.011499786038565
                 64.71  -0.046826727009787
                 21.06   -0.12846616875047
                 7.495   -0.30126627246289
                 2.797   -0.25563070233011
                0.5215      1.093793361012
 s    1 1.00
                0.1596                   1
 p    3 1.00
                 9.439   0.056979251590039
                 2.002    0.31320721150073
                0.5456    0.76037674173753
 p    1 1.00
                0.1517                   1
 d    1 1.00
                  0.55                   1

17 0
 s    3 1.00
                 13.01   0.033498726389998
                 1.962    0.23480080117413
                0.4446     0.8136829578829
 s    1 1.00
                 0.122                   1
 p    1 1.00
                 0.727                   1

18 0
 s    3 1.00
                 13.01   0.033498726389998
                 1.962    0.23480080117413
                0.4446     0.8136829578829
 s    1 1.00
                 0.122                   1
 p    1 1.00
                 0.727                   1

19 0
 s    8 1.00
                  6665  0.00069158396281299
                  1000  0.0053257961529341
                   228   0.027060721042034
                 64.71    0.10165684614077
                 21.06     0.2745748236174
                 7.495    0.44829431892377
                 2.797    0.28490261071525
                0.5215   0.015194859206082
 s    8 1.00
                  6665  -0.00029326965268655
                  1000  -0.0023180354739745
                   228  -0.011499786038565
                 64.71  -0.046826727009787
                 21.06   -0.12846616875047
                 7.495   -0.30126627246289
                 2.797   -0.25563070233011
                0.5215      1.093793361012
 s    1 1.00
                0.1596                   1
 p    3 1.00
                 9.439   0.056979251590039
                 2.002    0.31320721150073
                0.5456    0.76037674173753
 p    1 1.00
                0.1517                   1
 d    1 1.00
                  0.55                   1

20 0
 s    3 1.00
                 13.01   0.033498726389998
                 1.962    0.23480080117413
                0.4446     0.8136829578829
 s    1 1.00
                 0.122                   1
 p    1 1.00
                 0.727                   1

21 0
 s    8 1.00
                  6665  0.00069158396281299
                  1000  0.0053257961529341
                   228   0.027060721042034
                 64.71    0.10165684614077
                 21.06     0.2745748236174
                 7.495    0.44829431892377
                 2.797    0.28490261071525
                0.5215   0.015194859206082
 s    8 1.00
                  6665  -0.00029326965268655
                  1000  -0.0023180354739745
                   228  -0.011499786038565
                 64.71  -0.046826727009787
                 21.06   -0.12846616875047
                 7.495   -0.30126627246289
                 2.797   -0.25563070233011
                0.5215      1.093793361012
 s    1 1.00
                0.1596                   1
 p    3 1.00
                 9.439   0.056979251590039
                 2.002    0.31320721150073
                0.5456    0.76037674173753
 p    1 1.00
                0.1517                   1
 d    1 1.00
                  0.55                   1

22 0
 s    3 1.00
                 13.01   0.033498726389998
                 1.962    0.23480080117413
                0.4446     0.8136829578829
 s    1 1.00
                 0.122                   1
 p    1 1.00
                 0.727                   1

23 0
 s    3 1.00
                 13.01   0.033498726389998
                 1.962    0.23480080117413
                0.4446     0.8136829578829
 s    1 1.00
                 0.122                   1
 p    1 1.00
                 0.727                   1

24 0
 s    3 1.00
                 13.01   0.033498726389998
                 1.962    0.23480080117413
                0.4446     0.8136829578829
 s    1 1.00
                 0.122                   1
 p    1 1.00
                 0.727                   1

25 0
 s    8 1.00
                  6665  0.00069158396281299
                  1000  0.0053257961529341
                   228   0.027060721042034
                 64.71    0.10165684614077
                 21.06     0.2745748236174
                 7.495    0.44829431892377
                 2.797    0.28490261071525
                0.5215   0.015194859206082
 s    8 1.00
                  6665  -0.00029326965268655
                  1000  -0.0023180354739745
                   228  -0.011499786038565
                 64.71  -0.046826727009787
                 21.06   -0.12846616875047
                 7.495   -0.30126627246289
                 2.797   -0.25563070233011
                0.5215      1.093793361012
 s    1 1.00
                0.1596                   1
 p    3 1.00
                 9.439   0.056979251590039
                 2.002    0.31320721150073
                0.5456    0.76037674173753
 p    1 1.00
                0.1517                   1
 d    1 1.00
                  0.55                   1

26 0
 s    3 1.00
                 13.01   0.033498726389998
                 1.962    0.23480080117413
                0.4446     0.8136829578829
 s    1 1.00
                 0.122                   1
 p    1 1.00
                 0.727                   1

27 0
 s    3 1.00
                 13.01   0.033498726389998
                 1.962    0.23480080117413
                0.4446     0.8136829578829
 s    1 1.00
                 0.122                   1
 p    1 1.00
                 0.727                   1

28 0
 s    8 1.00
                  6665  0.00069158396281299
                  1000  0.0053257961529341
                   228   0.027060721042034
                 64.71    0.10165684614077
                 21.06     0.2745748236174
                 7.495    0.44829431892377
                 2.797    0.28490261071525
                0.5215   0.015194859206082
 s    8 1.00
                  6665  -0.00029326965268655
                  1000  -0.0023180354739745
                   228  -0.011499786038565
                 64.71  -0.046826727009787
                 21.06   -0.12846616875047
                 7.495   -0.30126627246289
                 2.797   -0.25563070233011
                0.5215      1.093793361012
 s    1 1.00
                0.1596                   1
 p    3 1.00
                 9.439   0.056979251590039
                 2.002    0.31320721150073
                0.5456    0.76037674173753
 p    1 1.00
                0.1517                   1
 d    1 1.00
                  0.55                   1

29 0
 s    3 1.00
                 13.01   0.033498726389998
                 1.962    0.23480080117413
                0.4446     0.8136829578829
 s    1 1.00
                 0.122                   1
 p    1 1.00
                 0.727                   1

30 0
 s    3 1.00
                 13.01   0.033498726389998
                 1.962    0.23480080117413
                0.4446     0.8136829578829
 s    1 1.00
                 0.122                   1
 p    1 1.00
                 0.727                   1

31 0
 s    8 1.00
                  6665  0.00069158396281299
                  1000  0.0053257961529341
                   228   0.027060721042034
                 64.71    0.10165684614077
                 21.06     0.2745748236174
                 7.495    0.44829431892377
                 2.797    0.28490261071525
                0.5215   0.015194859206082
 s    8 1.00
                  6665  -0.00029326965268655
                  1000  -0.0023180354739745
                   228  -0.011499786038565
                 64.71  -0.046826727009787
                 21.06   -0.12846616875047
                 7.495   -0.30126627246289
                 2.797   -0.25563070233011
                0.5215      1.093793361012
 s    1 1.00
                0.1596                   1
 p    3 1.00
                 9.439   0.056979251590039
                 2.002    0.31320721150073
                0.5456    0.76037674173753
 p    1 1.00
                0.1517                   1
 d    1 1.00
                  0.55                   1

32 0
 s    3 1.00
                 13.01   0.033498726389998
                 1.962    0.23480080117413
                0.4446     0.8136829578829
 s    1 1.00
                 0.122                   1
 p    1 1.00
                 0.727                   1

33 0
 s    3 1.00
                 13.01   0.033498726389998
                 1.962    0.23480080117413
                0.4446     0.8136829578829
 s    1 1.00
                 0.122                   1
 p    1 1.00
                 0.727                   1

34 0
 s    3 1.00
                 13.01   0.033498726389998
                 1.962    0.23480080117413
                0.4446     0.8136829578829
 s    1 1.00
                 0.122                   1
 p    1 1.00
                 0.727                   1

35 0
 s    3 1.00
                 13.01   0.033498726389998
                 1.962    0.23480080117413
                0.4446     0.8136829578829
 s    1 1.00
                 0.122                   1
 p    1 1.00
                 0.727                   1

36 0
 s    3 1.00
                 13.01   0.033498726389998
                 1.962    0.23480080117413
                0.4446     0.8136829578829
 s    1 1.00
                 0.122                   1
 p    1 1.00
                 0.727                   1

37 0
 s    3 1.00
                 13.01   0.033498726389998
                 1.962    0.23480080117413
                0.4446     0.8136829578829
 s    1 1.00
                 0.122                   1
 p    1 1.00
                 0.727                   1

[5d]
[7f]
[9g]

[MO]
 Sym= A
 Ene=               0
 Spin= Alpha
 Occup=    1.00000
   1    1.0818029405896e-06
   2    1.987984816209e-06
   3    -6.3392192156008e-06
   4    4.6321956469696e-08
   5    -2.8796166578534e-07
   6    9.8094917003922e-08
   7    -9.8233895753483e-08
   8    7.3974079225867e-07
   9    3.8890370635553e-06
  10    -6.8051531760829e-07
  11    -1.5852773731798e-08
  12    3.3789772023473e-08
  13    1.5335865311318e-08
  14    -4.2592692858314e-09
  15    4.8452807411615e-07
  16    8.4064154992025e-06
  17    -8.5563676887078e-08
  18    5.3507756900239e-09
  19    2.4644841995351e-06
  20    3.2894319122743e-07
  21    -1.9035799974987e-06
  22    1.7342587714188e-08
  23    -3.1272735039389e-09
  24    -1.6436675046523e-07
  25    -2.9144357437469e-06
  26    7.3430195724751e-06
  27    5.4907793143788e-05
  28    -2.0348906313769e-05
  29    3.733182359703e-06
  30    -1.9459155531745e-05
  31    5.7369101027356e-05
  32    -3.8550812295779e-05
  33    -3.8667465332551e-05
  34    -1.7938503265795e-06
  35    2.9698715924567e-06
  36    -1.4631241120122e-06
  37    -9.0564397947687e-07
  38    2.6008997329829e-06
  39    9.4909491338287e-05
  40    0.00023229240201897
  41    -0.00085898627320399
  42    -8.0409376467691e-05
  43    6.8556814651882e-05
  44    -7.7305088645906e-05
  45    -0.00029101110649218
  46    0.00022911603069523
  47    0.00016574595829392
  48    1.0570019461233e-05
  49    4.6077399229885e-05
  50    -3.140254222058e-05
  51    -3.4744300147573e-06
  52    2.8326478160256e-05
  53    2.648461496932e-05
  54    0.00014609614450763
  55    0.00016132389185258
  56    0.00013079848959203
  57    0.00010829289894778
  58    -0.00014591606453532
  59    -0.00064512910006812
  60    0.00022121926811482
  61    0.00038225196176419
  62    1.5441768510824e-06
  63    -3.2927047838526e-05
  64    1.8425331667512e-05
  65     3.01155895196e-05
  66    -2.71788995608e-05
  67    0.00016090365106014
  68    0.00015061686241045
  69    0.00088343604171327
  70    1.8142204125908e-05
  71    -4.6306215764413e-05
  72    0.00012952588922841
  73    -0.00040645444961063
  74    0.00011179108350126
  75    0.00032709428025242
  76    1.000444362611e-05
  77    -0.00011397004058857
  78    6.7424271266998e-05
  79    4.226919828173e-05
  80    -4.2269327165056e-05
  81    4.4588276301247e-05
  82    3.4858296706281e-05
  83    1.9550521863971e-05
  84    -6.3090299937031e-06
  85    -2.8224096831153e-05
  86    0.00036600270107252
  87    0.00073441682241099
  88    -0.0004630162308266
  89    0.00047587309870861
  90    -0.00039771554918989
  91    -0.00026711312013692
  92    -0.00040099575411298
  93    -0.00030443799095306
  94    0.00049068852512324
  95    -9.2078177960708e-06
  96    -3.1170081623863e-05
  97    -3.6258714737707e-05
  98    7.112473349352e-05
  99    -9.5662663422056e-06
 100    -1.7939599661982e-05
 101    -9.3146490065628e-05
 102    3.6316252374946e-05
 103    -1.0140808692558e-05
 104    -1.4368112988767e-05
 105    8.8816275198768e-05
 106    0.00011911642385297
 107    2.646962846011e-05
 108    5.6844739312025e-06
 109    -5.5220507289146e-06
 110    4.2429182831907e-05
 111    1.1503245736619e-05
 112    3.7176892413168e-07
 113    -1.6669685209991e-05
 114    -8.7589921248963e-06
 115    -0.062374799496504
 116    0.0018804185176585
 117    0.00041246946100101
 118    -0.00010442722140737
 119    0.0001870532577371
 120    0.0012014418709951
 121    -0.00023395798436525
 122    0.00011832641698114
 123    0.0011229082368435
 124    3.8731878867756e-06
 125    2.4900557825949e-05
 126    -2.6392548958524e-07
 127    -1.7093242040011e-05
 128    4.4489543883186e-06
 129    -5.6606473424023e-05
 130    -0.00018551789754253
 131    3.1762304728127e-05
 132    -5.6070563495307e-06
 133    -5.7905766534077e-05
 134    0.00011860286586866
 135    0.00019504769811529
 136    5.525327566427e-05
 137    -3.0546418946232e-07
 138    -1.6795722948268e-05
 139    -0.062041937552892
 140    -1.5217343701379e-06
 141    -0.00067190549659608
 142    0.00044951575501217
 143    0.0017881432342821
 144    0.00062544947095413
 145    -0.0009846622826286
 146    0.00063504572879492
 147    0.0014394018872032
 148    1.0884133629275e-05
 149    -0.00012405800160061
 150    -0.00014588977736291
 151    2.0032985202419e-05
 152    -3.0674408087842e-05
 153    0.0018813516741411
 154    0.00011948428207819
 155    -3.8136445335595e-05
 156    -0.00014370445036821
 157    -0.00014748372963759
 158    0.0014380455169647
 159    2.1835678014711e-05
 160    0.00012239277726718
 161    0.00012261947657209
 162    -6.1626463615305e-05
 163     -0.28337246147945
 164    -0.0019598584853844
 165    0.0049428691630815
 166    0.00032302561249264
 167    -4.8060499923332e-05
 168    0.00094991615918035
 169    -0.00058881506564046
 170    0.00018979487340718
 171    0.0013633177421619
 172    -3.8678167500364e-05
 173    0.00015664563435851
 174    -0.00012524267314118
 175    4.7875537726322e-05
 176    -0.00013660862103024
 177    0.00025837172940419
 178    4.1431667655911e-06
 179    2.2435161282614e-05
 180    1.7934389499091e-05
 181    -2.2750530796873e-05
 182     -0.57671469772532
 183    -0.002380981084886
 184     0.006217464363355
 185    -0.00082781270716115
 186    6.8309608581811e-05
 187    0.00067588111569999
 188    -0.00092168895583961
 189    -0.00047931484378706
 190    0.00093194602841169
 191    4.8821745512805e-05
 192    -0.00026917884759905
 193    -9.39695652021e-05
 194    5.8988513795698e-05
 195    -3.5530137714642e-05
 196    -0.001594737893842
 197    -0.00082085359887928
 198    6.2627428704987e-06
 199    -9.3799674926615e-05
 200    -5.0736153908714e-05
 201    -0.00094954021837529
 202    -0.00051649238190259
 203     6.21833214764e-06
 204    6.4774084507478e-05
 205    5.4788199633747e-05
 206    -0.00052972184103411
 207    -0.00033835425575875
 208    -7.2019852607312e-05
 209    -6.9646622054429e-05
 210    5.0053380447362e-05
 211      0.56425600108646
 212    0.0029744649794236
 213    -0.0077554329759807
 214    -0.00050411301559899
 215    0.00030774382470318
 216    -0.00046534054960996
 217    -0.00089777198955934
 218    0.00030665331686963
 219    0.00067078992134068
 220    8.9735259813211e-06
 221     5.30038846991e-05
 222    -2.8791351307683e-05
 223    -5.3598772453267e-05
 224    9.324154116899e-05
 225    0.00021543807288805
 226    -0.00086888923064038
 227    -0.00015655410614028
 228    -0.00018154872477275
 229    -0.00016464761637371
 230    0.00038358118723737
 231    -0.00066112002629261
 232    0.00017089431239579
 233    -3.9475388656021e-05
 234    0.00022529162313847
 235     -0.51550220232842
 236    -0.0025834972647576
 237    0.0034056432717441
 238    0.00029335115878762
 239    -0.00029662786940014
 240    -0.00029020893306486
 241    0.00012405521906595
 242    -0.00037503740354558
 243    -7.4996089904157e-05
 244    -4.2966165388752e-05
 245    -0.00011859509602556
 246    0.00010250660129352
 247    6.2036216062469e-05
 248    -0.00014944707047158
 249    -0.00025777430475419
 250    0.00043511499787717
 251    9.8132733583753e-05
 252    0.0001988872554053
 253    0.00018441713619356
 254    -0.00011022486423439
 255    0.00052099460671987
 256    -0.00014958672481391
 257    -0.00022750513188449
 258    8.1247698238432e-05
 259     -0.01689706559214
 260    0.00018566518358462
 261    0.0019006740459925
 262    0.00062278856510913
 263    -0.0004630601394015