[Molden Format]
made by pyscf v[2.0.1]
[Atoms] (AU)
O   1   8     0.00000000000000     0.00000000000000     9.42996968581551
H   2   1     0.00000000000000     0.00000000000000     7.60656786391454
H   3   1    -0.05031916615174     1.78353065140343     9.80584138228218
O   4   8     0.00000000000000     0.00000000000000     2.31533471513237
C   5   6     0.00000000000000     0.00000000000000     0.00000000000000
C   6   6     2.01118073026938    -1.40227222164369    -1.50774939176400
C   7   6    -2.01249334291722     1.41331050329955    -1.50315905028694
H   8   1     3.32037363730244    -2.26721897153159    -0.13599698591495
C   9   6     3.45899267434009     0.28739631745591    -3.37437943254505
H   10   1     1.07662969841332    -2.94725144642667    -2.56541439481080
H   11   1    -2.67503415753480     0.18421555839588    -3.06194479365997
H   12   1    -1.07974048864772     3.03851734677796    -2.43674295017013
C   13   6    -4.21607110578555     2.32938802552922     0.11994162256091
H   14   1     4.24440173074564     1.93368664142019    -2.34976285512790
H   15   1     2.15020713235517     1.04714335134846    -4.81494497423699
C   16   6     5.60746363007797    -1.12419643481196    -4.70268606082550
H   17   1    -3.46838323670267     3.50951302338067     1.66946842715333
H   18   1    -5.11873485366228     0.68575958301209     1.04047743976495
C   19   6    -6.18314754751344     3.80909592987882    -1.39656589068747
H   20   1     6.93011263717176    -1.87550812453645    -3.26656317360070
C   21   6     7.06356622236532     0.52877932406334    -6.57829775293605
H   22   1     4.82318879258361    -2.78573437948532    -5.70504560381835
H   23   1    -6.91582688743803     2.61304780074712    -2.95074552451969
H   24   1    -5.26532430573853     5.45420349051338    -2.31005832200284
C   25   6    -8.39941882261433     4.73263980500213     0.21800571437956
H   26   1     7.83338371486801     2.19084139882824    -5.57093109900697
H   27   1     5.73544244039420     1.27376866537418    -8.01071492370229
C   28   6     9.21124858443101    -0.89699110072176    -7.88926949186242
H   29   1    -7.66272760055236     5.92277078003992     1.77035591474408
H   30   1    -9.31497248082589     3.08753015622020     1.12614408368786
C   31   6   -10.35481709231879     6.21833079391143    -1.30905206253246
H   32   1    10.58815905329501    -1.61074586756696    -6.49512691622620
H   33   1    10.23506248045667     0.32468009384095    -9.23072870921204
H   34   1     8.47665842847139    -2.53598436989925    -8.94921964622535
H   35   1    -9.48948872868064     7.90013588951020    -2.18823918416067
H   36   1   -11.93332513000955     6.86460487874102    -0.11255798845995
H   37   1   -11.15126291841033     5.04495968327630    -2.83849898862534
[GTO]
1 0
 s    8 1.00
                 11720  0.00070964594651845
                  1759  0.0054672722921914
                 400.8   0.027823118610189
                 113.7    0.10474773971146
                 37.03    0.28292084635691
                 13.27    0.44849523869833
                 5.025    0.27081688521277
                 1.013    0.01545029160744
 s    8 1.00
                 11720  -0.00031444341168873
                  1759  -0.0024821376810179
                 400.8  -0.012316355381583
                 113.7  -0.050538917343672
                 37.03   -0.13938490331632
                 13.27   -0.32507749481778
                 5.025   -0.22984830758785
                 1.013     1.0953793467883
 s    1 1.00
                0.3023                   1
 p    3 1.00
                  17.7   0.062679166281506
                 3.854    0.33353656587936
                 1.046    0.74123964163973
 p    1 1.00
                0.2753                   1
 d    1 1.00
                 1.185                   1

2 0
 s    3 1.00
                 13.01   0.033498726389998
                 1.962    0.23480080117413
                0.4446     0.8136829578829
 s    1 1.00
                 0.122                   1
 p    1 1.00
                 0.727                   1

3 0
 s    3 1.00
                 13.01   0.033498726389998
                 1.962    0.23480080117413
                0.4446     0.8136829578829
 s    1 1.00
                 0.122                   1
 p    1 1.00
                 0.727                   1

4 0
 s    8 1.00
                 11720  0.00070964594651845
                  1759  0.0054672722921914
                 400.8   0.027823118610189
                 113.7    0.10474773971146
                 37.03    0.28292084635691
                 13.27    0.44849523869833
                 5.025    0.27081688521277
                 1.013    0.01545029160744
 s    8 1.00
                 11720  -0.00031444341168873
                  1759  -0.0024821376810179
                 400.8  -0.012316355381583
                 113.7  -0.050538917343672
                 37.03   -0.13938490331632
                 13.27   -0.32507749481778
                 5.025   -0.22984830758785
                 1.013     1.0953793467883
 s    1 1.00
                0.3023                   1
 p    3 1.00
                  17.7   0.062679166281506
                 3.854    0.33353656587936
                 1.046    0.74123964163973
 p    1 1.00
                0.2753                   1
 d    1 1.00
                 1.185                   1

5 0
 s    8 1.00
                  6665  0.00069158396281299
                  1000  0.0053257961529341
                   228   0.027060721042034
                 64.71    0.10165684614077
                 21.06     0.2745748236174
                 7.495    0.44829431892377
                 2.797    0.28490261071525
                0.5215   0.015194859206082
 s    8 1.00
                  6665  -0.00029326965268655
                  1000  -0.0023180354739745
                   228  -0.011499786038565
                 64.71  -0.046826727009787
                 21.06   -0.12846616875047
                 7.495   -0.30126627246289
                 2.797   -0.25563070233011
                0.5215      1.093793361012
 s    1 1.00
                0.1596                   1
 p    3 1.00
                 9.439   0.056979251590039
                 2.002    0.31320721150073
                0.5456    0.76037674173753
 p    1 1.00
                0.1517                   1
 d    1 1.00
                  0.55                   1

6 0
 s    8 1.00
                  6665  0.00069158396281299
                  1000  0.0053257961529341
                   228   0.027060721042034
                 64.71    0.10165684614077
                 21.06     0.2745748236174
                 7.495    0.44829431892377
                 2.797    0.28490261071525
                0.5215   0.015194859206082
 s    8 1.00
                  6665  -0.00029326965268655
                  1000  -0.0023180354739745
                   228  -0.011499786038565
                 64.71  -0.046826727009787
                 21.06   -0.12846616875047
                 7.495   -0.30126627246289
                 2.797   -0.25563070233011
                0.5215      1.093793361012
 s    1 1.00
                0.1596                   1
 p    3 1.00
                 9.439   0.056979251590039
                 2.002    0.31320721150073
                0.5456    0.76037674173753
 p    1 1.00
                0.1517                   1
 d    1 1.00
                  0.55                   1

7 0
 s    8 1.00
                  6665  0.00069158396281299
                  1000  0.0053257961529341
                   228   0.027060721042034
                 64.71    0.10165684614077
                 21.06     0.2745748236174
                 7.495    0.44829431892377
                 2.797    0.28490261071525
                0.5215   0.015194859206082
 s    8 1.00
                  6665  -0.00029326965268655
                  1000  -0.0023180354739745
                   228  -0.011499786038565
                 64.71  -0.046826727009787
                 21.06   -0.12846616875047
                 7.495   -0.30126627246289
                 2.797   -0.25563070233011
                0.5215      1.093793361012
 s    1 1.00
                0.1596                   1
 p    3 1.00
                 9.439   0.056979251590039
                 2.002    0.31320721150073
                0.5456    0.76037674173753
 p    1 1.00
                0.1517                   1
 d    1 1.00
                  0.55                   1

8 0
 s    3 1.00
                 13.01   0.033498726389998
                 1.962    0.23480080117413
                0.4446     0.8136829578829
 s    1 1.00
                 0.122                   1
 p    1 1.00
                 0.727                   1

9 0
 s    8 1.00
                  6665  0.00069158396281299
                  1000  0.0053257961529341
                   228   0.027060721042034
                 64.71    0.10165684614077
                 21.06     0.2745748236174
                 7.495    0.44829431892377
                 2.797    0.28490261071525
                0.5215   0.015194859206082
 s    8 1.00
                  6665  -0.00029326965268655
                  1000  -0.0023180354739745
                   228  -0.011499786038565
                 64.71  -0.046826727009787
                 21.06   -0.12846616875047
                 7.495   -0.30126627246289
                 2.797   -0.25563070233011
                0.5215      1.093793361012
 s    1 1.00
                0.1596                   1
 p    3 1.00
                 9.439   0.056979251590039
                 2.002    0.31320721150073
                0.5456    0.76037674173753
 p    1 1.00
                0.1517                   1
 d    1 1.00
                  0.55                   1

10 0
 s    3 1.00
                 13.01   0.033498726389998
                 1.962    0.23480080117413
                0.4446     0.8136829578829
 s    1 1.00
                 0.122                   1
 p    1 1.00
                 0.727                   1

11 0
 s    3 1.00
                 13.01   0.033498726389998
                 1.962    0.23480080117413
                0.4446     0.8136829578829
 s    1 1.00
                 0.122                   1
 p    1 1.00
                 0.727                   1

12 0
 s    3 1.00
                 13.01   0.033498726389998
                 1.962    0.23480080117413
                0.4446     0.8136829578829
 s    1 1.00
                 0.122                   1
 p    1 1.00
                 0.727                   1

13 0
 s    8 1.00
                  6665  0.00069158396281299
                  1000  0.0053257961529341
                   228   0.027060721042034
                 64.71    0.10165684614077
                 21.06     0.2745748236174
                 7.495    0.44829431892377
                 2.797    0.28490261071525
                0.5215   0.015194859206082
 s    8 1.00
                  6665  -0.00029326965268655
                  1000  -0.0023180354739745
                   228  -0.011499786038565
                 64.71  -0.046826727009787
                 21.06   -0.12846616875047
                 7.495   -0.30126627246289
                 2.797   -0.25563070233011
                0.5215      1.093793361012
 s    1 1.00
                0.1596                   1
 p    3 1.00
                 9.439   0.056979251590039
                 2.002    0.31320721150073
                0.5456    0.76037674173753
 p    1 1.00
                0.1517                   1
 d    1 1.00
                  0.55                   1

14 0
 s    3 1.00
                 13.01   0.033498726389998
                 1.962    0.23480080117413
                0.4446     0.8136829578829
 s    1 1.00
                 0.122                   1
 p    1 1.00
                 0.727                   1

15 0
 s    3 1.00
                 13.01   0.033498726389998
                 1.962    0.23480080117413
                0.4446     0.8136829578829
 s    1 1.00
                 0.122                   1
 p    1 1.00
                 0.727                   1

16 0
 s    8 1.00
                  6665  0.00069158396281299
                  1000  0.0053257961529341
                   228   0.027060721042034
                 64.71    0.10165684614077
                 21.06     0.2745748236174
                 7.495    0.44829431892377
                 2.797    0.28490261071525
                0.5215   0.015194859206082
 s    8 1.00
                  6665  -0.00029326965268655
                  1000  -0.0023180354739745
                   228  -0.011499786038565
                 64.71  -0.046826727009787
                 21.06   -0.12846616875047
                 7.495   -0.30126627246289
                 2.797   -0.25563070233011
                0.5215      1.093793361012
 s    1 1.00
                0.1596                   1
 p    3 1.00
                 9.439   0.056979251590039
                 2.002    0.31320721150073
                0.5456    0.76037674173753
 p    1 1.00
                0.1517                   1
 d    1 1.00
                  0.55                   1

17 0
 s    3 1.00
                 13.01   0.033498726389998
                 1.962    0.23480080117413
                0.4446     0.8136829578829
 s    1 1.00
                 0.122                   1
 p    1 1.00
                 0.727                   1

18 0
 s    3 1.00
                 13.01   0.033498726389998
                 1.962    0.23480080117413
                0.4446     0.8136829578829
 s    1 1.00
                 0.122                   1
 p    1 1.00
                 0.727                   1

19 0
 s    8 1.00
                  6665  0.00069158396281299
                  1000  0.0053257961529341
                   228   0.027060721042034
                 64.71    0.10165684614077
                 21.06     0.2745748236174
                 7.495    0.44829431892377
                 2.797    0.28490261071525
                0.5215   0.015194859206082
 s    8 1.00
                  6665  -0.00029326965268655
                  1000  -0.0023180354739745
                   228  -0.011499786038565
                 64.71  -0.046826727009787
                 21.06   -0.12846616875047
                 7.495   -0.30126627246289
                 2.797   -0.25563070233011
                0.5215      1.093793361012
 s    1 1.00
                0.1596                   1
 p    3 1.00
                 9.439   0.056979251590039
                 2.002    0.31320721150073
                0.5456    0.76037674173753
 p    1 1.00
                0.1517                   1
 d    1 1.00
                  0.55                   1

20 0
 s    3 1.00
                 13.01   0.033498726389998
                 1.962    0.23480080117413
                0.4446     0.8136829578829
 s    1 1.00
                 0.122                   1
 p    1 1.00
                 0.727                   1

21 0
 s    8 1.00
                  6665  0.00069158396281299
                  1000  0.0053257961529341
                   228   0.027060721042034
                 64.71    0.10165684614077
                 21.06     0.2745748236174
                 7.495    0.44829431892377
                 2.797    0.28490261071525
                0.5215   0.015194859206082
 s    8 1.00
                  6665  -0.00029326965268655
                  1000  -0.0023180354739745
                   228  -0.011499786038565
                 64.71  -0.046826727009787
                 21.06   -0.12846616875047
                 7.495   -0.30126627246289
                 2.797   -0.25563070233011
                0.5215      1.093793361012
 s    1 1.00
                0.1596                   1
 p    3 1.00
                 9.439   0.056979251590039
                 2.002    0.31320721150073
                0.5456    0.76037674173753
 p    1 1.00
                0.1517                   1
 d    1 1.00
                  0.55                   1

22 0
 s    3 1.00
                 13.01   0.033498726389998
                 1.962    0.23480080117413
                0.4446     0.8136829578829
 s    1 1.00
                 0.122                   1
 p    1 1.00
                 0.727                   1

23 0
 s    3 1.00
                 13.01   0.033498726389998
                 1.962    0.23480080117413
                0.4446     0.8136829578829
 s    1 1.00
                 0.122                   1
 p    1 1.00
                 0.727                   1

24 0
 s    3 1.00
                 13.01   0.033498726389998
                 1.962    0.23480080117413
                0.4446     0.8136829578829
 s    1 1.00
                 0.122                   1
 p    1 1.00
                 0.727                   1

25 0
 s    8 1.00
                  6665  0.00069158396281299
                  1000  0.0053257961529341
                   228   0.027060721042034
                 64.71    0.10165684614077
                 21.06     0.2745748236174
                 7.495    0.44829431892377
                 2.797    0.28490261071525
                0.5215   0.015194859206082
 s    8 1.00
                  6665  -0.00029326965268655
                  1000  -0.0023180354739745
                   228  -0.011499786038565
                 64.71  -0.046826727009787
                 21.06   -0.12846616875047
                 7.495   -0.30126627246289
                 2.797   -0.25563070233011
                0.5215      1.093793361012
 s    1 1.00
                0.1596                   1
 p    3 1.00
                 9.439   0.056979251590039
                 2.002    0.31320721150073
                0.5456    0.76037674173753
 p    1 1.00
                0.1517                   1
 d    1 1.00
                  0.55                   1

26 0
 s    3 1.00
                 13.01   0.033498726389998
                 1.962    0.23480080117413
                0.4446     0.8136829578829
 s    1 1.00
                 0.122                   1
 p    1 1.00
                 0.727                   1

27 0
 s    3 1.00
                 13.01   0.033498726389998
                 1.962    0.23480080117413
                0.4446     0.8136829578829
 s    1 1.00
                 0.122                   1
 p    1 1.00
                 0.727                   1

28 0
 s    8 1.00
                  6665  0.00069158396281299
                  1000  0.0053257961529341
                   228   0.027060721042034
                 64.71    0.10165684614077
                 21.06     0.2745748236174
                 7.495    0.44829431892377
                 2.797    0.28490261071525
                0.5215   0.015194859206082
 s    8 1.00
                  6665  -0.00029326965268655
                  1000  -0.0023180354739745
                   228  -0.011499786038565
                 64.71  -0.046826727009787
                 21.06   -0.12846616875047
                 7.495   -0.30126627246289
                 2.797   -0.25563070233011
                0.5215      1.093793361012
 s    1 1.00
                0.1596                   1
 p    3 1.00
                 9.439   0.056979251590039
                 2.002    0.31320721150073
                0.5456    0.76037674173753
 p    1 1.00
                0.1517                   1
 d    1 1.00
                  0.55                   1

29 0
 s    3 1.00
                 13.01   0.033498726389998
                 1.962    0.23480080117413
                0.4446     0.8136829578829
 s    1 1.00
                 0.122                   1
 p    1 1.00
                 0.727                   1

30 0
 s    3 1.00
                 13.01   0.033498726389998
                 1.962    0.23480080117413
                0.4446     0.8136829578829
 s    1 1.00
                 0.122                   1
 p    1 1.00
                 0.727                   1

31 0
 s    8 1.00
                  6665  0.00069158396281299
                  1000  0.0053257961529341
                   228   0.027060721042034
                 64.71    0.10165684614077
                 21.06     0.2745748236174
                 7.495    0.44829431892377
                 2.797    0.28490261071525
                0.5215   0.015194859206082
 s    8 1.00
                  6665  -0.00029326965268655
                  1000  -0.0023180354739745
                   228  -0.011499786038565
                 64.71  -0.046826727009787
                 21.06   -0.12846616875047
                 7.495   -0.30126627246289
                 2.797   -0.25563070233011
                0.5215      1.093793361012
 s    1 1.00
                0.1596                   1
 p    3 1.00
                 9.439   0.056979251590039
                 2.002    0.31320721150073
                0.5456    0.76037674173753
 p    1 1.00
                0.1517                   1
 d    1 1.00
                  0.55                   1

32 0
 s    3 1.00
                 13.01   0.033498726389998
                 1.962    0.23480080117413
                0.4446     0.8136829578829
 s    1 1.00
                 0.122                   1
 p    1 1.00
                 0.727                   1

33 0
 s    3 1.00
                 13.01   0.033498726389998
                 1.962    0.23480080117413
                0.4446     0.8136829578829
 s    1 1.00
                 0.122                   1
 p    1 1.00
                 0.727                   1

34 0
 s    3 1.00
                 13.01   0.033498726389998
                 1.962    0.23480080117413
                0.4446     0.8136829578829
 s    1 1.00
                 0.122                   1
 p    1 1.00
                 0.727                   1

35 0
 s    3 1.00
                 13.01   0.033498726389998
                 1.962    0.23480080117413
                0.4446     0.8136829578829
 s    1 1.00
                 0.122                   1
 p    1 1.00
                 0.727                   1

36 0
 s    3 1.00
                 13.01   0.033498726389998
                 1.962    0.23480080117413
                0.4446     0.8136829578829
 s    1 1.00
                 0.122                   1
 p    1 1.00
                 0.727                   1

37 0
 s    3 1.00
                 13.01   0.033498726389998
                 1.962    0.23480080117413
                0.4446     0.8136829578829
 s    1 1.00
                 0.122                   1
 p    1 1.00
                 0.727                   1

[5d]
[7f]
[9g]

[MO]
 Sym= A
 Ene=               0
 Spin= Alpha
 Occup=    1.00000
   1    -2.1632007905976e-06
   2    -4.0147799032938e-06
   3    1.2633350486766e-05
   4    -1.9492617401774e-07
   5    5.8925785000029e-07
   6    -3.5207220275959e-07
   7    3.4401516055693e-07
   8    -7.8064707380236e-07
   9    -6.4933088259651e-06
  10    1.1296345782698e-06
  11    6.4599436778315e-08
  12    -4.4365854781258e-08
  13    -1.0118668383096e-07
  14    1.6861653091666e-08
  15    -5.6236707466976e-07
  16    -1.4956960263327e-05
  17    3.7242346229086e-07
  18    -1.637759151725e-07
  19    -4.1525578462182e-06
  20    -4.9012755591215e-07
  21    1.4245535101228e-06
  22    -7.2161231011124e-08
  23    4.7218682190237e-07
  24    3.4150019857737e-07
  25    1.4536657769144e-06
  26    -8.2048628803716e-06
  27    -4.9306797152622e-05
  28    2.1358869427429e-05
  29    -4.3419094299969e-06
  30    1.6542620769626e-05
  31    -5.9848378890224e-05
  32    4.0646911230733e-05
  33    3.8879235949806e-05
  34    2.0601520990533e-06
  35    -2.7924305675208e-06
  36    1.3836425752832e-06
  37    4.9414348436869e-07
  38    -1.9624135590362e-06
  39    -8.8384119544657e-05
  40    -0.00021452062740674
  41     0.000835971214248
  42    7.1075129189192e-05
  43    -6.3187483610122e-05
  44    7.5066443004109e-05
  45    0.00034928454229695
  46    -0.00026584478325159
  47    -0.00017576507973922
  48    -1.2843234559681e-05
  49    -4.8665341799165e-05
  50    3.3418417409111e-05
  51    3.8698605569121e-06
  52    -2.8368752279992e-05
  53    -1.9487865157895e-05
  54    -0.0001308954320757
  55    -0.00021870889831787
  56    -0.00012896732103395
  57    -0.00010335144268405
  58    0.00014133501935931
  59    0.00065808101734224
  60    -0.00023935390673622
  61    -0.00039760240368826
  62    -1.6776220032123e-06
  63    3.447891655739e-05
  64    -1.9764905527469e-05
  65    -3.073476057925e-05
  66    2.8467390311632e-05
  67    -0.00013865258068344
  68    -0.00010760006985032
  69    -0.00083376734979399
  70    -4.2277844243551e-05
  71    5.4350314848438e-05
  72    -0.00010576310713422
  73    0.00043761116652331
  74    -0.00013362934618153
  75    -0.00028676331260288
  76    -1.2097899028704e-05
  77    0.00011696192092906
  78    -6.7742325837983e-05
  79    -4.1908828360294e-05
  80    4.0769520962985e-05
  81    -4.2737439031649e-05
  82    -3.8986689596914e-05
  83    -1.8862185385287e-05
  84    6.3395638927693e-06
  85    2.8330090955968e-05
  86    -0.00035906804683646
  87    -0.00072214886048264
  88    0.00048734266191781
  89    -0.00046915177979048
  90    0.00038863605183565
  91    0.00026375128866217
  92    0.0004061297117545
  93    0.00028679040572825
  94    -0.00048289249387338
  95    7.9540857073817e-06
  96    2.8401809764414e-05
  97    3.6453278375568e-05
  98    -6.7945817513758e-05
  99     7.12594167946e-06
 100    2.0270516824873e-05
 101    8.6887919124857e-05
 102    -3.691545112312e-05
 103    1.0392429352958e-05
 104    1.4540904920189e-05
 105    -8.3225202270876e-05
 106    -0.0001164936624911
 107    -2.9539777210016e-05
 108    -1.8221054678751e-06
 109    5.8664419641376e-06
 110    -3.9616085055294e-05
 111    -1.3913606161379e-05
 112    -4.8508804668234e-06
 113    1.6759396732246e-05
 114    8.3661654361228e-06
 115     0.060373533999827
 116    -0.0019273171129512
 117    -0.0005454554857467
 118    0.0001331743851629
 119    -0.00018652775515135
 120    -0.001262768485852
 121    0.0003198570734575
 122    -0.00016475130430139
 123    -0.0011337627239298
 124    -9.0375339437691e-06
 125    -3.0935411865128e-05
 126    6.6930697943335e-06
 127    2.4688224177893e-05
 128    -1.0580709381059e-05
 129    5.3095459379869e-05
 130     0.000179353049481
 131    -3.2596580362042e-05
 132    6.0614586946937e-06
 133    5.7117252687916e-05
 134    -0.00011422079567884
 135    -0.00019025995883308
 136    -5.4199389989931e-05
 137    5.9807914964045e-07
 138    1.6688771515861e-05
 139     0.059445107932665
 140    3.7071936901431e-05
 141    0.00067798187182228
 142    -0.00041775085348164
 143    -0.0017568749843587
 144    -0.00060214779034692
 145    0.0010027827779238
 146    -0.00063190054144026
 147    -0.0014317677506273
 148    -1.0360561233166e-05
 149    0.00012349283099679
 150    0.00013932579845213
 151    -2.1232407998492e-05
 152    3.1019558872018e-05
 153    -0.0019394030966634
 154    -0.00014384491999252
 155    3.9112628673824e-05
 156    0.00014794737673056
 157    0.00015113082336135
 158    -0.0015070161427757
 159    -5.9867620370914e-05
 160    -0.00012574337835112
 161    -0.00012643562112976
 162    6.412539833096e-05
 163      0.25325831535205
 164    0.0016999383079936
 165    -0.0047122667839813
 166    -0.00045077573746985
 167    1.1929020660402e-05
 168    -0.00075724690202966
 169    0.00061675443002561
 170    -0.0002656481089757
 171    -0.0012365788298514
 172    3.2018837123858e-05
 173    -0.00016310350555322
 174    0.00012958418507678
 175    -3.2261605376472e-05
 176    0.00011387132222318
 177    -0.00020764531362424
 178    9.4298032346037e-06
 179    -2.6033754140541e-05
 180    -1.5605820424256e-05
 181    2.0292492306596e-05
 182      0.56257953306388
 183    0.0023156130995357
 184    -0.0060610371533938
 185    0.00076197327034537
 186    -4.0568493459534e-05
 187    -0.00063759508280246
 188    0.00089498144603728
 189    0.00048132640478268
 190    -0.00091182829868833
 191    -4.5174103393644e-05
 192    0.00026660577646068
 193    8.7323076315722e-05
 194    -5.8789107185175e-05
 195    3.9357444676944e-05
 196    0.0015746080472982
 197    0.00079778407121868
 198    -6.0715406842576e-06
 199    9.3581962637172e-05
 200    5.2514159219657e-05
 201    0.00081576307062322
 202    0.00042847930913634
 203    -1.086147773234e-05
 204    -6.345217341785e-05
 205    -5.3743466936844e-05
 206    0.00031179368277296
 207    0.00021333424300989
 208    6.9803673192417e-05
 209    7.5998731816967e-05
 210    -5.2731959626534e-05
 211     -0.59115822319051
 212    -0.0030955462822698
 213    0.0079769655865158
 214    0.00053131916207491
 215    -0.00029995005048259
 216    0.00026247020928012
 217    0.00093791302078961
 218    -0.00031523000584435
 219    -0.00077925239678378
 220    -1.2902621426275e-05
 221    -5.4039972296127e-05
 222    2.3855559430942e-05
 223    6.6243100772976e-05
 224    -0.00012163304093691
 225    -0.00020310080776261
 226    0.00085138775029052
 227    0.00015164499634193
 228    0.00017649101232547
 229    0.00016027825089294
 230    -0.00035540801573827
 231    0.00066013434243224
 232    -0.00016630718531305
 233    3.7947505474615e-05
 234    -0.00021830945816691
 235      0.51715829373261
 236    0.0025809486691274
 237    -0.0034731321626428
 238    -0.0002312658764751
 239    0.00027846696643712
 240    0.00025182927371434
 241    -8.0199348681031e-05
 242    0.00036066147164253
 243    4.5034907908476e-05
 244    4.3294707918111e-05
 245    0.00011938420440372
 246    -0.0001041260914944
 247    -6.2169153239255e-05
 248    0.00015020622828003
 249    0.0001373134965297
 250    -0.00053379020575453
 251    -9.943949078885e-05
 252    -0.00019967159739467
 253    -0.00018595822046917
 254    1.3206275988139e-05
 255    -0.00061438512093537
 256    0.00015005777813167
 257    0.00023074766138775
 258    -8.3337383089604e-05
 259    -0.017755220296023
 260    -0.0003102058748995
 261    -0.0016069259208812
 262    -0.0005383146254681
 263    0.00042866681781367