[Molden Format]
made by pyscf v[2.0.1]
[Atoms] (AU)
C   1   6    -0.00491185910195    -0.00302299034612    -6.30478139015019
O   2   8    -0.00302499062123    -0.00226824280266    -4.17507277885027
[GTO]
1 0
 s    5 1.00
          1238.4016938  0.0055173650481097
          186.29004992   0.041088828555946
          42.251176346     0.1822538212649
          11.676557932    0.46828459437429
          3.5930506482    0.44575817336002
 s    1 1.00
         0.40245147363                   1
 s    1 1.00
         0.13090182668                   1
 p    3 1.00
          9.4680970621   0.056888332011037
          2.0103545142    0.31294059336471
         0.54771004707    0.76065016509135
 p    1 1.00
         0.15268613795                   1
 d    1 1.00
                   0.8                   1

2 0
 s    5 1.00
          2266.1767785  -0.0053893503921743
          340.87010191   -0.04023472138896
          77.363135167   -0.18008184205526
           21.47964494   -0.46828857657651
          6.6589433124   -0.44692617160187
 s    1 1.00
         0.80975975668                   1
 s    1 1.00
         0.25530772234                   1
 p    3 1.00
          17.721504317   0.062630248763161
           3.863550544    0.33331138482352
          1.0480920883    0.74148638308122
 p    1 1.00
         0.27641544411                   1
 d    1 1.00
                   1.2                   1

[5d]
[7f]
[9g]

[MO]
 Sym= A
 Ene=               0
 Spin= Alpha
 Occup=    1.00000
   1      0.10118112894637
   2      -0.2402310514217
   3    -0.048453319709628
   4    -6.8328308935494e-05
   5    -2.7331329238752e-05
   6    -0.077119528345829
   7    1.8851216895903e-05
   8    7.5404882696944e-06
   9     0.021277499964042
  10    0.0035578316606946
  11    5.4584362724352e-06
  12    2.1833748635008e-06
  13    2.0097863717497e-09
  14    1.9407507730156e-09
  15      0.25064318749874
  16      0.47736312885696
  17       0.4206931993119
  18    0.00037118419772565
  19    0.00014847370929969
  20      0.41894888085932
  21    0.00019737034558524
  22    7.8948154168618e-05
  23      0.22276920333251
  24    -0.017549837061815
  25    -2.6933216822215e-05
  26    -1.0773288955612e-05
  27    -1.0008986903873e-08
  28    -9.5515536857624e-09
 Sym= A
 Ene=               1
 Spin= Alpha
 Occup=    1.00000
   1    -6.1759957260585e-09
   2    1.5351020449577e-08
   3    3.0964583487476e-09
   4      0.33604055185414
   5    -0.0071327243393335
   6    -0.00029520682473244
   7      0.13207814940533
   8    -0.0028034623253886
   9    -0.00011602855234226
  10    -6.6740184522825e-05
  11     0.043861248882671
  12    -0.00093100381032488
  13    3.9192486060852e-05
  14    1.4718789571815e-05
  15    -2.3015876766095e-09
  16    -3.1949896927068e-09
  17    1.418107412446e-10
  18      0.55931167758316
  19    -0.011871829045778
  20    -0.00049132537858295
  21      0.32913187100057
  22    -0.0069860821186039
  23    -0.00028912708390192
  24    4.0031318809476e-05
  25    -0.026311363636502
  26    0.00055848794384448
  27    -2.3510940366601e-05
  28    -8.8284173781779e-06
 Sym= A
 Ene=               2
 Spin= Alpha
 Occup=    1.00000
   1    2.6237635849701e-09
   2    -6.5218140116154e-09
   3    -1.3153201213951e-09
   4    -0.0071326163930698
   5       -0.336040660323
   6    0.00012541349302911
   7    -0.0028034199234033
   8     -0.13207819210729
   9    4.9292715711623e-05
  10    2.8353408312612e-05
  11    -0.00093096153407702
  12    -0.043861291305582
  13    1.4720145235373e-05
  14    -3.9188930738478e-05
  15    9.7797251679034e-10
  16    1.3575569956273e-09
  17    -5.9684788953476e-11
  18    -0.011871649569132
  19      -0.5593118581704
  20    0.00020873105556439
  21    -0.0069859764954836
  22     -0.32913197744969
  23    0.00012283062106927
  24    -1.7006610496774e-05
  25    0.00055846263526851
  26     0.026311389176334
  27    -8.8303775690817e-06
  28    2.3505753215823e-05
 Sym= A
 Ene=               3
 Spin= Alpha
 Occup=    1.00000
   1     -0.23381284709368
   2       0.4490496371552
   3      0.51024812868023
   4    -0.00036446566141976
   5    -0.00014578629388155
   6     -0.41137687150494
   7    -0.00012200702470029
   8    -4.8802819673763e-05
   9     -0.13770277720451
  10    -0.030245860027795
  11    -4.6409220027218e-05
  12    -1.8563691721161e-05
  13    -1.7284270182018e-08
  14    -1.6433912011516e-08
  15    -0.016662272870064
  16    -0.046751857748571
  17    -0.026820141417459
  18    0.00017879531058025
  19    7.151813889996e-05
  20      0.20182483248155
  21    9.2893828874147e-05
  22    3.715753917014e-05
  23      0.10486212454105
  24    -0.0012960978763218
  25    -1.9883307961311e-06
  26    -7.9533252413118e-07
  27    -7.2988186342334e-10
  28    -7.1033190844943e-10
