[Molden Format]
made by pyscf v[2.0.1]
[Atoms] (AU)
C   1   6    -0.00491185910195    -0.00302299034612    -6.30478139015019
O   2   8    -0.00302499062123    -0.00226824280266    -4.17507277885027
[GTO]
1 0
 s    5 1.00
          1238.4016938  0.0055173650481097
          186.29004992   0.041088828555946
          42.251176346     0.1822538212649
          11.676557932    0.46828459437429
          3.5930506482    0.44575817336002
 s    1 1.00
         0.40245147363                   1
 s    1 1.00
         0.13090182668                   1
 p    3 1.00
          9.4680970621   0.056888332011037
          2.0103545142    0.31294059336471
         0.54771004707    0.76065016509135
 p    1 1.00
         0.15268613795                   1
 d    1 1.00
                   0.8                   1

2 0
 s    5 1.00
          2266.1767785  -0.0053893503921743
          340.87010191   -0.04023472138896
          77.363135167   -0.18008184205526
           21.47964494   -0.46828857657651
          6.6589433124   -0.44692617160187
 s    1 1.00
         0.80975975668                   1
 s    1 1.00
         0.25530772234                   1
 p    3 1.00
          17.721504317   0.062630248763161
           3.863550544    0.33331138482352
          1.0480920883    0.74148638308122
 p    1 1.00
         0.27641544411                   1
 d    1 1.00
                   1.2                   1

[5d]
[7f]
[9g]

[MO]
 Sym= A
 Ene=               0
 Spin= Alpha
 Occup=    1.00000
   1    0.00046105880408492
   2    0.00024464386514662
   3     0.010412912168054
   4    -2.0144433454591e-06
   5    -8.0577749749721e-07
   6    -0.0022737354198512
   7    6.578051744926e-06
   8    2.6312212233628e-06
   9    0.0074246504320279
  10    -0.0024296636100373
  11    -3.7283955804051e-06
  12    -1.4913585271043e-06
  13    -1.387405790036e-09
  14    -1.3212008676218e-09
  15      -0.9883637874402
  16     0.043175110712993
  17    -0.028222788027823
  18    -2.9965985232033e-06
  19    -1.1986396798065e-06
  20    -0.0033818875674581
  21    4.6741296419757e-06
  22    1.8696522391454e-06
  23    0.0052756422955519
  24     0.000899038999618
  25    1.3797539522394e-06
  26    5.5190170333158e-07
  27    5.1539279577148e-10
  28    4.8798178330422e-10
 Sym= A
 Ene=               1
 Spin= Alpha
 Occup=    1.00000
   1       0.9885768488405
   2     0.045227337598102
   3    -0.0087844942374669
   4    5.5775880419684e-06
   5    2.2310357047982e-06
   6    0.0062955039101504
   7    3.7907862300912e-06
   8    1.5163147844829e-06
   9    0.0042785714336303
  10    0.0029516515635895
  11    4.5294300179978e-06
  12    1.8117723872665e-06
  13    1.6859373741449e-09
  14    1.6046978182381e-09
  15    0.00027224478392771
  16    -0.0010464220554043
  17    -0.010938494919711
  18    1.3984482157488e-06
  19    5.593793927586e-07
  20    0.0015785477742271
  21    7.3468861475247e-06
  22    2.938755041802e-06
  23    0.0082924326763127
  24    -0.00028095610899635
  25    -4.308637435228e-07
  26    -1.7234551498016e-07
  27    -1.6116004280263e-10
  28    -1.5185813018811e-10
 Sym= A
 Ene=               2
 Spin= Alpha
 Occup=    1.00000
   1      0.14949835136043
   2     -0.28551763748951
   3     -0.03043425317767
   4    -0.00020166038517945
   5    -8.0664170395469e-05
   6     -0.22761427587162
   7    -1.2442509696716e-05
   8    -4.977004833578e-06
   9    -0.014044142907111
  10    -0.032077915930819
  11    -4.9223411790909e-05
  12    -1.9689368716931e-05
  13    -1.8355087593427e-08
  14    -1.7425821355234e-08
  15     -0.26456881718999
  16     -0.52555415586828
  17     -0.22473025014213
  18    0.00016773602056153
  19    6.7094421506206e-05
  20      0.18932575249847
  21    1.4497153710957e-05
  22    5.798862664747e-06
  23      0.01636299801271
  24    -0.014962409910886
  25    -2.2960920010719e-05
  26    -9.1843698872868e-06
  27    -8.5390567108304e-09
  28    -8.1421459834822e-09
 Sym= A
 Ene=               3
 Spin= Alpha
 Occup=    1.00000
   1     -0.16952915493418
   2      0.38206866304849
   3     0.098826129986617
   4    0.00011252253926283
   5    4.5009024686561e-05
   6      0.12700379644264
   7    -2.4840516539892e-05
   8    -9.9362087334046e-06
   9    -0.028036010003085
  10     0.004828573910834
  11    7.4104310476305e-06
  12    2.9641730827729e-06
  13    2.7916754166819e-09
  14    2.614181304492e-09
  15     -0.15630816462176
  16     -0.33046013221906
  17     -0.36881479516256
  18    -0.00043350289808205
  19    -0.00017340119484939
  20     -0.48928258223583
  21    -0.00020572122562467
  22    -8.2288507128749e-05
  23     -0.23219117612955
  24     0.023369017602469
  25    3.5863495714758e-05
  26    1.4345401264776e-05
  27    1.3330459431678e-08
  28    1.2718056696842e-08
 Sym= A
 Ene=               4
 Spin= Alpha
 Occup=    1.00000
   1    7.0399511820128e-09
   2    -1.8861804268541e-08
   3    -3.8697840044843e-09
   4     -0.33604056650911
   5    0.0071320339457378
   6    0.00029520560628565
   7     -0.13207815516479
   8    0.0028031909717754
   9    0.00011602882738147
  10    6.6740134152875e-05
  11      -0.0438612507954
  12    0.00093091369755569
  13    -3.9192455818743e-05
  14    -1.4718870085049e-05
  15    2.6903151488704e-09
  16    4.6233116063231e-09
  17    2.1979866377969e-09
  18     -0.55931170196811
  19     0.011870679945106
  20    0.0004913299427045
  21     -0.32913188535078
  22    0.0069854059199969
  23    0.00028912914194185
  24    -4.0031562731801e-05
  25     0.026311364783496
  26    -0.00055843388741616
  27    2.3510922224426e-05
  28    8.8284656706861e-06
 Sym= A
 Ene=               5
 Spin= Alpha
 Occup=    1.00000
   1    -2.9909625029841e-09
   2    8.0137451642631e-09
   3    1.6439963431638e-09
   4    0.0071319260007761
   5       0.3360406749771
   6    -0.00012541225929537
   7    0.0028031485697506
   8      0.13207819786697
   9    -4.9292551189187e-05
  10    -2.8353225039772e-05
  11    0.0009308714215323
  12     0.043861293218259
  13    -1.4720225756362e-05
  14    3.9188900499435e-05
  15    -1.1431614726492e-09
  16    -1.9645135378092e-09
  17    -9.3461699938461e-10
  18     0.011870500465809
  19      0.55931188255876
  20    -0.00020873180341964
  21    0.0069853002957758
  22      0.32913199180144
  23    -0.0001228307943783
  24    1.7006617060599e-05
  25    -0.00055840857862807
  26    -0.026311390323645
  27    8.8304258722342e-06
  28    -2.3505735077508e-05
 Sym= A
 Ene=               6
 Spin= Alpha
 Occup=    1.00000
   1     -0.18468318915017
   2      0.39347358801665
   3      0.50196616555519
   4    -0.00039411380783532
   5    -0.00015764555490455
   6      -0.4448404230931
   7    -0.00012138949561008
   8    -4.8555808001428e-05
   9     -0.13700576421751
  10     -0.03337163957454
  11    -5.1205825426143e-05
  12    -2.048233428527e-05
  13    -1.9075653987837e-08
  14    -1.8131075352265e-08
  15     -0.02037620014615
  16    -0.054339464641774
  17    -0.007455062176387
  18    0.00023672508088417
  19    9.4690051622402e-05
  20      0.26720979711141
  21    0.00011560043121199
  22    4.6240181896602e-05
  23      0.13049085229079
  24    -0.004810214750303
  25    -7.3811707538476e-06
  26    -2.952468947626e-06
  27    -2.7346861550906e-09
  28    -2.6227480722193e-09
